/*--------------------------------*- C++ -*----------------------------------*\
  =========                 |
  \\      /  F ield         | OpenFOAM: The Open Source CFD Toolbox
   \\    /   O peration     | Website:  https://openfoam.org
    \\  /    A nd           | Version:  12
     \\/     M anipulation  |
\*---------------------------------------------------------------------------*/
FoamFile
{
    format      ascii;
    class       volScalarField;
    location    "0.0057";
    object      k_0;
}
// * * * * * * * * * * * * * * * * * * * * * * * * * * * * * * * * * * * * * //

dimensions      [0 2 -2 0 0 0 0];

internalField   nonuniform List<scalar> 
75962
(
2.9622437025369166048e-05
5.323860807360500559e-05
8.0685934449489091409e-05
9.2085826902760887711e-05
9.9366362875361917352e-05
0.00011554730200338852097
0.00015148159717330721857
0.00018461750245033135246
0.00020819659789226898912
0.00022843065916125501811
0.0002531114184286540128
0.00028847147300516064357
0.0003377884768186422402
0.00039806992204252655831
0.00045775572655362781888
0.0005109147475906714508
0.00057111718310915273247
0.00063620128839532062107
0.00068839935548001014026
0.00072233391000578440165
0.00074626451442212431934
0.00077042540957853681421
0.00080356936492057234704
0.00085480185887549424775
0.00092243934633349350914
0.00099134407992948242634
0.0010422455471888513248
0.0010783992779586088883
0.0011328409038531379264
0.0012385987354689099917
0.0013878624965546527709
0.001535783835880803359
0.001642496612470799788
0.0017010081572869644329
0.0017314668995748985943
0.0017584515673722473424
0.0017981248576318697215
0.0018582001564039403192
0.0019409006800408992038
0.0020414809433635695834
0.0021468057103804080374
0.0022397083977172588427
0.0023052376346102791682
0.0023424044520634563007
0.0023704157110712911066
0.0024204014995800157868
0.0025468910026695879868
0.0028067400992118048467
0.0030600486934388737049
0.0032466559509337503467
0.0033541340766335974062
0.0034103923526391669366
0.0034447766695115539237
0.0034686610247819564881
0.0034851122131054589059
0.0035022086012144360186
0.0035331341547242883436
0.0036028101455106670108
0.0037940683234510700142
0.0040494581943925946066
0.0042319671438599089017
0.0043198762180636602823
0.0043643656011627587205
0.0044455084694623135666
0.0046872074239267778883
0.0052479037254081995975
0.0057057406362072274689
0.0059564568510733330656
0.0060450319889330163953
0.0060572632323386398773
0.006050632988945065828
0.0060302779705084536693
0.0060222345283680225186
0.0060242354711854146504
0.0060494564244727207919
0.0061814198841150750502
0.0064961222367085130411
0.00669089483889837109
0.006746298981204117487
0.0067410874244155484861
0.006694397430027860911
0.0066641063969474292894
0.0066699213272814342549
0.0067319990177016767255
0.0069685855532450931976
0.0073655913565782689736
0.0077219796230430619299
0.0079927929635897725091
0.0081487003975873450318
0.00821398015612371038
0.008262392923478809395
0.0083690267171857898182
0.0087065695067950078095
0.0094927812743403495316
0.010119779779843298198
0.010439455058592584172
0.010520397351578324521
0.010508260232134971138
0.010424393341776728994
0.010379289765633611942
0.010402752806270834304
0.010610408636525433049
0.011300168437726751738
0.011904321490254412413
0.012180429303966374202
0.012244910227017855378
0.012242090252177137422
0.012240880236232484085
0.012277512103697403936
0.012373279681761844076
0.012392993369194868838
0.012357638169146123105
0.012159309555636776262
0.011909763329585822469
0.011824741555939329019
0.011826414336092470198
0.011898849976262185213
0.012136065673066402659
0.012327112430683654851
0.012421610269480513888
0.012459814402595689037
0.01247083736015452797
0.012471178635604065338
0.012466392406804711196
0.01244334540462801314
0.012373962958484637648
0.012303597838874327092
0.01225804696785090693
0.012237925113973599847
0.012234125636370812157
0.012237624032292478485
0.012259225531577258236
0.012329893548750039955
0.012434408483702660483
0.012554017472177112294
0.012697430538259295643
0.012858356090141692327
0.013018058654952572098
0.013155046675448228699
0.013254355349824867641
0.013313263903229420604
0.01334129621640449577
0.01335643725018792298
0.013378928894728126658
0.013430591070698423214
0.013568635869636410524
0.013761685249120074459
0.0139436128422245776
0.01409932493257118509
0.014228598558842397992
0.014342965355992495086
0.014457323348314017608
0.014583597027056895146
0.014724131997572919781
0.014870848410644810569
0.015009699780343175105
0.015125380812937140249
0.015209179309982031117
0.015263893060473732524
0.015301838322462223488
0.015342295821255038518
0.015404288532431847231
0.015501834049073957497
0.015640590394713882461
0.015814313544959792551
0.016009776591375479704
0.016209239972358166493
0.016394729924788034592
0.016551351841244850427
0.016674571408419259361
0.016764757383201413232
0.016831492173859895212
0.016884293534881827936
0.016939520879511740792
0.017005636485798919511
0.017091354511473609568
0.017196816476917599348
0.017320264523481617575
0.017455308922831893476
0.017593186515742580828
0.017726686956487033853
0.017847289656150913673
0.017951289499920711212
0.018037353187273497818
0.018110272539729539015
0.018174472972297898987
0.018238804553755587345
0.018309689539488718107
0.019581489804559138596
0.019566584121050056844
0.019551679690201082679
0.019536814312033717878
0.019521590155618415846
0.019506068767135432973
0.019489575865951302286
0.019472485128173764451
0.019454743054178894046
0.019437191325748212622
0.019419384380041340016
0.019401820575317637457
0.019384169490151686305
0.01936738009024397203
0.019350808653952254051
0.019334472557619431649
0.019317086078328261217
0.019299068031846673688
0.019279823049415958924
0.019260259235776247544
0.019239719374078610714
0.019219301194169462893
0.019198343707979691891
0.019177857854396636317
0.019156665695670004046
0.019135784527752934536
0.019114369233508253509
0.019093750294303216825
0.019072843065244100835
0.019052502448715622624
0.019031431481928907934
0.019010754475309768474
0.018989426484398226613
0.018968747825933319345
0.01894762105995640919
0.018927245539536129842
0.018906195434026967783
0.018885334804866378555
0.018863190746679324439
0.018841245820653329535
0.018818778673889924313
0.01879779629832858262
0.018776980613958008104
0.018757381279181084555
0.018736852031260037982
0.018716558479476896881
0.018695018290762158153
0.018674163468489650419
0.01865287564769058451
0.018633168592989808598
0.018613376161541451276
0.018594924188724871322
0.018575593326207267414
0.018556903462225163987
0.018537032886596627873
0.018517725275442063759
0.018497165501205885263
0.018477108607467731399
0.018455902850059137388
0.018435360442952058307
0.018413615999800066886
0.018392296498021837997
0.018369774811409989718
0.018347918593361493139
0.018325325372841677618
0.018303606641341532008
0.018281475113834880913
0.018260571775535125449
0.018239690446362418624
0.018220030707055162589
0.018199919716977909501
0.018180219727899946114
0.018159239587152542494
0.018138162809424387967
0.018115524842883649198
0.018092915201976974421
0.018069101585928327297
0.018046046073915571195
0.018022543938662972246
0.018000427777866395695
0.017977896647458052604
0.01795661442893246168
0.017934759071389392432
0.017914387459835569294
0.017893754040855951865
0.017874582297591357777
0.017854699409898030366
0.017835491750545155731
0.017815012516208154209
0.017794949512794967089
0.017773694062417633166
0.017752922864591048902
0.017731137657207515085
0.017710066088401490991
0.017688437025881121462
0.017667860072800661841
0.017646855683448724184
0.017626642493340470563
0.017605867905412842661
0.017585867349255848019
0.017565534442998131937
0.017545809438605296932
0.017525346914903091461
0.017504853067229295821
0.017483507447700559478
0.017462483886638832664
0.017441382580241662076
0.017421008705040461756
0.017400734182264440686
0.017380858296852284839
0.0173607698143438266
0.017340867146426134499
0.01732053820940631858
0.017300736008099924096
0.017280756133854473927
0.017261827689654604678
0.017242749469509849325
0.01722461644827897459
0.017205841722265122207
0.017187451487754003276
0.01716789856196456257
0.017148477043188805474
0.017128234003738005559
0.017108658145783647853
0.01708884078800332329
0.017069530938381437951
0.017049880591824519843
0.017030319647895107715
0.017010728611022783718
0.016991471788836354923
0.016972592517569082965
0.016954500455959194832
0.016936627210329291415
0.016919679487938821261
0.016901950790281318471
0.016884560226542701111
0.01686574690577259672
0.016847043135322922053
0.016827581292018896353
0.016808249731614433031
0.016788979998362072582
0.016769841416190318928
0.016751148881105289851
0.016732689211159230969
0.016714182159340340572
0.016695654234968153318
0.016676734079108693903
0.016657610084014125296
0.016638636478882095487
0.016619226292580807636
0.016600692271617503021
0.016581824152925014881
0.016564103654471230842
0.016546036126772776381
0.016528672722979215887
0.016510436863382403627
0.016492951133120409279
0.016474359295991360813
0.016457107959437097811
0.016439020627090072946
0.016422270693081563592
0.016404596347649125221
0.016387512926297403276
0.016368491643238232414
0.016350233877922473041
0.016329464365727682645
0.016310823100414467007
0.01629027438583887169
0.016272395047998555045
0.016253188630846942403
0.016236688597054408506
0.016218581588475392691
0.016203151822925372649
0.016185617956822731522
0.01617032207821857831
0.016152713906872541438
0.01613707233730002355
0.016119039343555411486
0.016103070993082901213
0.016084715793507516068
0.016068698656521239465
0.016050233311970030226
0.016034170826652552333
0.016015505842145911358
0.015999483013566871692
0.015980674338009200758
0.015964790294793140824
0.015945636473045008558
0.015929607891486365773
0.01590974296398540988
0.015893036540654926353
0.01587270897091642291
0.015855731534463037707
0.015835459683159466143
0.015819090511180133873
0.015799769285947500019
0.015784231813870720079
0.01576614728446490768
0.015751570938474040995
0.01573420593199998524
0.015720427283120372991
0.01570326746553354913
0.015689497615952334442
0.015671964005377538726
0.015657739216843585134
0.015639967085622659415
0.015626006334180153612
0.015608710695784479977
0.015595717786521787196
0.015579099101051735454
0.01556694123281533032
0.015550755795620709379
0.015538782949623373975
0.01552258063937192456
0.015510267263003670382
0.015493630633574088581
0.015480948807424300614
0.01546390417374307602
0.01545069395497916491
0.015433294566640141238
0.015419866397216028253
0.015402717813988017412
0.015390073185733816122
0.015373826698995283688
0.015361832477517288476
0.015346006838234985473
0.015333947486585194561
0.015318086293640500659
0.015306483889835130127
0.015291304602048931896
0.015280404827944144702
0.015266020659618798755
0.015255597173542339434
0.015241355319761604181
0.015231074973310568255
0.015216622225026970108
0.015206418119103497222
0.015191278945807474773
0.015181058807430891991
0.015165732190220103034
0.015155444113920290422
0.015140239810456713673
0.015130101107656538165
0.015115387407958048513
0.015105570071928916404
0.015091712844322808032
0.015082739836530523192
0.015069469956252169729
0.015060622362788583101
0.01504738140439655647
0.015038558254820753521
0.015024944268149285909
0.015016169362620073943
0.015002288953793671555
3.1412191983449472906e-05
5.4629410742662756859e-05
8.7277825848715013916e-05
0.00010744359990343918835
0.00011565618952342815234
0.00012558976745414312973
0.00014740493465660624772
0.00018378996229117736377
0.0002255230970282931036
0.00026096342446220113396
0.00028644155939736037388
0.00031517151340170482471
0.00036260573508618089205
0.00042659924942586299268
0.00048123220276839826642
0.00051504550658041487691
0.00055485554021692255929
0.00062213717491355448926
0.00069877276712837662048
0.0007550193778438155914
0.00078368091680514149339
0.00080188716343930965466
0.00083490210994759865657
0.00090297953574213375011
0.00098071862248305034619
0.0010402505746775925644
0.0010751403790435799801
0.0011040978725484803646
0.0011578213388139151421
0.0012821256274037865375
0.0014748862555902897235
0.0016619829101870539807
0.0017885956180831727794
0.0018434886082154258377
0.0018575323104127994776
0.0018653457518815078162
0.0018820545700864294274
0.0019219653414063854555
0.0020097266015169988444
0.0021253004073931856983
0.0022486125948068752881
0.0023571758980219584267
0.0024332251937711486638
0.0024734133953634909048
0.0024939992804442149416
0.0025223333343727251214
0.0025913201685760153814
0.0027984315293565456724
0.003111462789566735946
0.0033566214822977023802
0.0035037444736765272976
0.0035686618947325570231
0.0035887303058976722549
0.0035940674223480422247
0.0036007497481349124042
0.0036160950301928791728
0.0036531857085043595475
0.0037529064194461842462
0.0040058676302436885958
0.0042875137363174112975
0.004495778716976210794
0.0046021842256018016121
0.0046451995345635800627
0.004702238919155273672
0.0048597416681225979324
0.0053157706570359708129
0.0057939648280811335834
0.006084304029508204488
0.0062088001631063882008
0.0062401565482174715938
0.0062421278149939534927
0.0062395634626099495332
0.0062394971835410678596
0.0062445286576597947362
0.0062760381560899164421
0.0064163286620524005374
0.0067269735047236932021
0.0069329845999612817187
0.0070088855536981692004
0.0070132355821685360767
0.0069896001652237594801
0.0069590184086523411075
0.006956769466493636922
0.0069865137075502594527
0.0071393319647386774621
0.0075866700211536059958
0.0080702485479558442455
0.0084278537155907211342
0.0086331007388654179557
0.0087190809761663948252
0.0087756076261370774549
0.008892429684382564814
0.0092454010604145521468
0.0099355258419244543711
0.010464810369251885749
0.010732339956398434869
0.010794446128675390731
0.010779000078299526971
0.010704469553468031265
0.010678492777797747582
0.010723726988365538115
0.011034105870694529278
0.011897177988762953557
0.01255027178807996413
0.012845146866987918952
0.012915753651161078486
0.012918574772707840798
0.012932365800451622873
0.0130426056481999144
0.013228578102151148169
0.013277440964941503165
0.013247972467231224417
0.013047910214867090503
0.012750960271090726675
0.012642795956899014961
0.012642310897958480495
0.012719290862371803591
0.012975051545453282834
0.013170773188239110266
0.013258468245606452526
0.013287760932924700188
0.013292909536554955302
0.013290753697030161656
0.013273972000296535567
0.013204395084383521719
0.013102769357526187696
0.013034679503591464073
0.012999898694777986194
0.012988493950313805339
0.012987408276291783488
0.012992698447683311003
0.013010634456190132632
0.013053300716382503985
0.013146073946028903959
0.013283219273178558523
0.013448001799159605904
0.013614451755150585796
0.013754035570968343311
0.013850997025520167885
0.013904214581440667992
0.013929488891558918992
0.013951816824676423201
0.013995878490323307788
0.014093992987256304117
0.01423437439978374533
0.014393224071971215047
0.014552679130814375613
0.014697167794688536027
0.014824834390190175584
0.014940799991217886683
0.015059028997722987905
0.015191702335603943577
0.01534467861524639945
0.01551181493130789589
0.015680798883055357268
0.015835621798518332431
0.015961022028691845831
0.016048796250375110123
0.016100218929966665649
0.016128758965693528599
0.016153387335510235867
0.016196116619890035121
0.016276644680504201435
0.016405353938094856259
0.016583018801095750216
0.016797900528711107171
0.01703118094558939144
0.017257238669009938858
0.017454107981295530899
0.017604921668360848375
0.017703032408311294987
0.017755203724216479105
0.017779072114298091756
0.017801030734945415962
0.017845597884699231778
0.017919680344727979132
0.018025522692185640822
0.018156420119210658209
0.018303326561794362737
0.018455564453557629645
0.018602630180766032558
0.01873609733349723
0.018850793933958311099
0.018947523491149000779
0.019028765387807167891
0.019103100506167359357
0.019176293635608882004
0.019257461794309978925
0.01935082539954056588
0.020628469710152325806
0.020611364386014553729
0.020594638450749772757
0.020577884994765444776
0.020561285334760964066
0.0205443904515228426
0.020527289612586704232
0.020509509021313616223
0.020491228124207488265
0.020472136679676754267
0.020452816812863438417
0.020433349545037487321
0.020414467343174053787
0.020396058102669877704
0.020378657779412522044
0.020361739902672211511
0.020345254415659617953
0.020328113493991599448
0.020310177960724911522
0.020290795515641096153
0.020270485138518083701
0.020249149534624505398
0.020227680206817949538
0.020205876300670343876
0.0201843714246926903
0.020162640914506153866
0.020141505985114702137
0.020120583173673788069
0.020100409628634786224
0.020079920022107823618
0.020059242566236354377
0.020037489575867522412
0.02001525786674201654
0.019992014106662740064
0.0199687068567259568
0.019945152714726119281
0.019922390645642242685
0.019899780871865408588
0.019877484996813500617
0.019854490705772796788
0.019831373183699717994
0.019808034994054084243
0.019785656256062909147
0.019763865517884962597
0.019743023117257917087
0.019722081221873053597
0.01970112448722181886
0.019679449029019933926
0.019657556873193638564
0.019635296650840357302
0.019613459835615791593
0.01959178052405208606
0.019570581397767353865
0.019549274464887769071
0.019528233460769917756
0.019507221357726988592
0.019486600851490117753
0.019465913876701858298
0.019445203652554608753
0.019424062399106781229
0.0194026180047181529
0.019380586037984794123
0.019358207916297390933
0.01933528134750174543
0.019312138816139912123
0.019288584486488725284
0.019265116112114517855
0.019241918592793994663
0.019219500682626036031
0.019197762413641440704
0.019176549884556113451
0.01915542331038290122
0.019134193764939824017
0.019112559108239831479
0.01909039118997921114
0.019067364718747949887
0.019043587981455951941
0.019019151294268191177
0.01899464398881698865
0.018970311298842239267
0.01894651153602134111
0.018923190750551901335
0.01890060286187035879
0.018878633068728563338
0.018857490636373219067
0.018836728524121142819
0.018816297350641338071
0.01879559657811647605
0.018774557373915146119
0.018752930866757142742
0.018730831929823277271
0.018708417323385125725
0.018685763138807081479
0.018662982609628224473
0.01864014240139114445
0.018617548094920732121
0.01859531577596360008
0.018573641264518138405
0.018552271908230104358
0.018531288743702245547
0.018510536371289861013
0.018490143077314155629
0.018469611058609104043
0.018448750157796314081
0.018426896478056693091
0.018404529300416083704
0.018381710613394795784
0.018359396747976153286
0.018337261235387661285
0.018315799626773595493
0.018294217765483157534
0.018273101973734724723
0.018251816308440766551
0.018230839440308892196
0.018209775043167012593
0.018189019787077730095
0.018168499711268566027
0.018148476580591800522
0.01812875565375727735
0.018109206125730956116
0.018089385073125432285
0.018069119250099685559
0.018048170807750486822
0.018027167084859345436
0.018006011536893656855
0.017985509287497293551
0.017964798030931778544
0.017944521255711758795
0.017923630947217852188
0.017903336249829170101
0.017882780502656615146
0.017863227242869279127
0.017843887393836251054
0.017825290286105764659
0.01780677257933231325
0.017788117705289634846
0.017768989863591745648
0.017749417794331329851
0.017729310408765516088
0.01770937615843089924
0.017688834593307445342
0.017669071919290849776
0.017648548051869179104
0.017629073652658738131
0.017608880918052672443
0.017589384431848917312
0.01756902536324238609
0.017549142671607016741
0.017528347505194285388
0.017508582581416350793
0.017487824297855784211
0.017468882708642184676
0.017448900437012377501
0.017430909726638042778
0.017411513654600505735
0.017393528780540887246
0.017373715666098823313
0.017355445971181288761
0.017335506981255542625
0.01731765223806808196
0.017298362132131081537
0.017281175405454970995
0.017262325982624129872
0.017245067219343133275
0.0172251011750998613
0.017206661307509536762
0.017184831178058315726
0.017165692360645579129
0.017143908795640011578
0.017125586405517922994
0.017105248878788038847
0.017088423451970702338
0.017069166252419443186
0.017053347640303712779
0.017034535215840404532
0.01701865399028215653
0.016999630793895298408
0.016983199437086201472
0.016963645197081541477
0.016946946086357789901
0.016927108241824778689
0.016910325620820648718
0.016890426297994379223
0.016873595709522640207
0.016853471730059969153
0.016836659388801657883
0.016816251603771974199
0.016799502757056179042
0.016778772240836035967
0.016762069032223159137
0.016741114742386344755
0.016724142138553724918
0.016702945847581539968
0.016685734338015321271
0.01666434766284677349
0.01664736089422756346
0.016626367074679661295
0.01660995109292078345
0.016590019065961410932
0.016574589629972241722
0.01655572224918591337
0.01654130912764320907
0.016522806575423980291
0.01650848705836685526
0.016489657219418495104
0.016474990344576723178
0.016455871559396016007
0.016441423515060064192
0.016422711228102741116
0.016409156499360724041
0.016391291339415563905
0.016378692971379189142
0.016361415938607393877
0.016349227276531250186
0.016331858811145308352
0.016319080068218916324
0.016301121444075875044
0.016287683715217531749
0.016269077459315436224
0.016254989488419621657
0.01623591322767439088
0.016221624448798790258
0.016202681309257449538
0.016189277176962880295
0.016171587127512661308
0.016159180632674900735
0.016142179219711512428
0.016129985136051811639
0.016112988731824980787
0.016100991413074750014
0.016084376505842136462
0.016072816565669653666
0.016056692598940550815
0.016045331322126543672
0.016029269391384812216
0.016018125873933967973
0.016001919162705165178
0.015990972921872823737
0.015974412728426857361
0.015963504743196719332
0.015946759130011190636
0.015935916505460209769
0.015919399854378204345
0.015908672681490539785
0.015892595783383648561
0.015882235420361111994
0.015866882876875699343
0.015857115580771023039
0.015842207225172679624
0.015832587720468478676
0.015817747490535209731
0.015808233510860879301
0.015793264327847823109
0.015783871323024695199
0.015768655056583084917
2.862054775821912367e-05
5.2812448651324359202e-05
9.0509175263892913794e-05
0.0001095453033302189839
0.00011723372198860547791
0.00012796131175135230297
0.00015176171743052304275
0.00020232714895187012792
0.0002515142740549253372
0.00028375497789730582321
0.00030012401971540099855
0.00031555622062485848278
0.00034749881380955025163
0.00043074686648109561295
0.00052631933411140892267
0.00059115544260739138517
0.00064183114433106406953
0.00070044221173473978064
0.00076048795873837223263
0.00080154347801966079404
0.00082123669629601903433
0.00083631225655239171523
0.00086619934146637037574
0.00094174127386774657712
0.0010360676627510377514
0.0011000835196534036048
0.001134024018143617871
0.0011649529841708259129
0.0012264377177230436841
0.0013541016962209820405
0.0015249481700335156247
0.0016932535736239242175
0.0018204540771315871374
0.0018973915006164120481
0.0019382344417967815008
0.0019640450111091702079
0.0019958087726909875398
0.0020504022607623550653
0.0021361669686717640014
0.0022487287391607449494
0.0023691235914828920675
0.0024712426063611698385
0.0025362988659855625374
0.0025669106845687176231
0.0025876859399780595232
0.0026283480860015179421
0.0027442675697940369269
0.0030839042629923238241
0.0034603496898451264856
0.0036969451035559356203
0.0037953788462915553567
0.0038124119137766423852
0.0038075723745229087328
0.0037937977382835942099
0.0037911481737111616015
0.0038001381936047465976
0.0038519808825469054221
0.0040364922070343905308
0.0043080413911298154686
0.0045258937791908667933
0.004667840166359775271
0.0047332519344455417296
0.0047630936664932862698
0.0048152808040313986593
0.0049723748985478141704
0.0054306525936375976346
0.0058882881866716150002
0.0061562273046623372519
0.0062668944100700224933
0.0062946730781094171331
0.006299394698444206811
0.0063054269689921671471
0.006322750601583176748
0.006383251669178157707
0.0065909941018900174495
0.0068911822620277831883
0.0071012374038402943655
0.0072051776896561517405
0.0072282791644391131483
0.0072204278763546882181
0.0071856415140434835506
0.0071730322960565735466
0.0071887013769961708581
0.0072979569349352867158
0.0076967816209069280647
0.0082616375735275644765
0.0087076029065825157061
0.0090017762261655510925
0.0091474657704043258605
0.0092026177068704143741
0.0092560721722473732198
0.0093908552178717068226
0.0098619206726178257338
0.010676111432012653363
0.011191612515882104484
0.01138723631712151331
0.011403495038061388714
0.011336769853163227578
0.011180671288707415278
0.011140414057597025632
0.011191173447480147127
0.011551197753739759003
0.012539605288295252797
0.013266585763557282515
0.013583270277511237667
0.013651844022625848896
0.013651918995419428174
0.013669826024061219535
0.013823509913834575169
0.014094607764642037503
0.014177415046297764736
0.014153091930212744962
0.013949102184740741484
0.013560394376941677444
0.013381924822774450903
0.013353467149195328775
0.013377410018984191992
0.013501991065817299173
0.013694924737351661312
0.013836071711362344164
0.013946350997504373959
0.014028867676279256974
0.014080204450448064943
0.014097979374503034553
0.014096736878043161084
0.014068295741283149206
0.013956456503137038005
0.013841862352927244637
0.013787833084962033275
0.013774643044500675323
0.013778760448715598672
0.013813996374463177741
0.013892905022464758016
0.013938814068007503166
0.013965562118816580647
0.014004630079293622566
0.01409582333838657435
0.014248499436838391388
0.014409925113658862347
0.01455558177928782497
0.014679607741723124659
0.014793102787148321164
0.014911776717189099625
0.015044078061822631007
0.015186318187071518732
0.015327309503197368221
0.015454449312294053775
0.015563769282671406982
0.015659317038167887975
0.015752270883133544233
0.015855907938014675296
0.015979637769301550942
0.016123692683905215678
0.016283456297059156759
0.016448959245552657177
0.016608238938272318341
0.01675290402711609658
0.016880513124138078057
0.016993801460672638276
0.017099855966331782564
0.017208598306961298691
0.017326868946218428741
0.017459471788199339842
0.017604845902832153698
0.017758389426979947351
0.017913163794054387523
0.018060660399124042058
0.018194821257848138585
0.018310231030401951519
0.0184053633254975188
0.018485750183750027792
0.0185593971458174814
0.018639790034773135591
0.01873440054098524446
0.018854903229688076832
0.019000174327898272653
0.019165304724832722683
0.019338023446085862017
0.019507319713180999027
0.019664060822981534182
0.019799152712732019654
0.019911399382194258645
0.020001575955127161993
0.020073513762689901979
0.020133816074094378762
0.020192269761093929736
0.02025438053301471461
0.02032824399445511479
0.020417034562076382537
0.021740501776596539429
0.02171978233023992913
0.021699266729282070537
0.021679372708489796917
0.021659431037709026696
0.02163999134361693083
0.021620471095463559413
0.021601340388311310314
0.021581362621270843566
0.021560707118184630621
0.021538772589409192759
0.021517155297166461192
0.021495841411148807615
0.021476084308447083299
0.02145694902338057472
0.02143914916198478085
0.021421267715561166656
0.021403500343620731478
0.021384090666162695882
0.021363678551427654068
0.021341457418059983642
0.021319138213122767328
0.021296161226189505578
0.021273970800158227556
0.02125123999645445183
0.021229437441462887387
0.021207556722412632122
0.021187323901549273697
0.021166863398023295917
0.021146890140865629709
0.021125101922033904384
0.021102795035346361835
0.02107824335803746077
0.021053251750612407556
0.021026635151491751552
0.021001030135859511533
0.020975436407308489101
0.02095173618504311136
0.020927590707954427107
0.020904284579597465915
0.020879844628778041621
0.020856468649327230408
0.020832592245794499808
0.020810350181440364498
0.020787719708873875907
0.020766551606781355477
0.020744392514415035261
0.020722879203244989887
0.020699453276630679771
0.020676276466513127117
0.020651337579519226523
0.020627401190193354191
0.020602408398771837605
0.020579056190807538257
0.020555089225711468959
0.020533057619096101165
0.020510424668106860824
0.020489439561265178347
0.02046722026882744766
0.020446119086186594765
0.020423249608344056644
0.020401267761261152045
0.020377458278442370926
0.020354497351492771562
0.020329569417544126469
0.020305454206329009992
0.02027976635968660804
0.020255986559707700456
0.020231640542007885142
0.020209439793789231443
0.02018611398771796156
0.020164224968291441509
0.020140811385566198544
0.020118843430140778
0.020094925334223533858
0.020071923143727590788
0.020046376899971532493
0.020021936356159088927
0.019995571351713620212
0.019971042822644963916
0.019945069751202328806
0.019921533737870460862
0.019897129598290114877
0.019875600983315564602
0.019852973440951545564
0.019832436591012199412
0.019809865263312371325
0.019788701458276936052
0.019765012256810016167
0.019742593342707441539
0.019717706938586210264
0.019694502641948979232
0.019669384571832950609
0.01964620829726963086
0.019621238124604315628
0.01959828811511177965
0.019573913195022385469
0.019551897591430743295
0.019528718902519191791
0.019507752487193618512
0.019485477243011941478
0.019465148573365141649
0.019443146015102882179
0.019422236778020438713
0.019398824932636313939
0.019376144322301364076
0.019351280623349596116
0.019328149311832038687
0.019303527783536948009
0.019280905569037203734
0.019256798914536948225
0.019234822921450532573
0.01921150050682234392
0.019190348825846321318
0.019167465187539887983
0.019146387463299503751
0.019123580483526071011
0.019102861919216423958
0.019080775669628780716
0.019060692846972003556
0.019038882546129034384
0.019018367526143598739
0.018995704557211896824
0.01897442935979774814
0.018951499511524839969
0.018930501427870363024
0.018908065349807046118
0.018887192878909601912
0.018864704956854379952
0.018843713092736073811
0.018821456001951467063
0.018801339417057624792
0.018779924905196046514
0.018761033736731859423
0.018739773755645037362
0.018721065918730406263
0.018699038873851679676