/*--------------------------------*- C++ -*----------------------------------*\
  =========                 |
  \\      /  F ield         | OpenFOAM: The Open Source CFD Toolbox
   \\    /   O peration     | Website:  https://openfoam.org
    \\  /    A nd           | Version:  12
     \\/     M anipulation  |
\*---------------------------------------------------------------------------*/
FoamFile
{
    format      ascii;
    class       volScalarField;
    location    "0.0057";
    object      nut;
}
// * * * * * * * * * * * * * * * * * * * * * * * * * * * * * * * * * * * * * //

dimensions      [0 2 -1 0 0 0 0];

internalField   nonuniform List<scalar> 
75962
(
4.5042634237097667026e-07
6.0378921733875664016e-07
7.4303871608265947305e-07
7.9334816157041484958e-07
8.2348670687179445952e-07
8.8721834732734542366e-07
1.0150679844608328697e-06
1.1199540442584820815e-06
1.1885779679280221647e-06
1.2441486024645103185e-06
1.308678931291585563e-06
1.3960446423179369963e-06
1.5095631133048548229e-06
1.6376177427488154377e-06
1.7549548088850663137e-06
1.8527653739559005409e-06
1.9574801424015356128e-06
2.0646186579160961159e-06
2.1462630121382473941e-06
2.1970743397291601428e-06
2.2316422276651532904e-06
2.2658831274843030244e-06
2.3124356630498182063e-06
2.3832746919418874046e-06
2.4740202427709663168e-06
2.5630359008874614692e-06
2.626275228481565425e-06
2.6695796919239417891e-06
2.7340855714314104707e-06
2.856697682863280693e-06
3.0218084437662885204e-06
3.1766852043129571994e-06
3.2830829110198213245e-06
3.338854345463201028e-06
3.3663187545127356355e-06
3.3900677614986684121e-06
3.4256636021867910684e-06
3.479939648863481227e-06
3.5540104071428439933e-06
3.6423762351752811167e-06
3.7325756553003908617e-06
3.8098942734746090976e-06
3.8626203946132621779e-06
3.8909844318366860737e-06
3.9114497427295043326e-06
3.949630339747052033e-06
4.0483509131784886756e-06
4.246789426660335995e-06
4.4313631749217980801e-06
4.5615361487235030568e-06
4.6333742100797538853e-06
4.668898455480506014e-06
4.6891443376367230599e-06
4.7021266181774636127e-06
4.7099932486409632523e-06
4.7182272353550768463e-06
4.7356745964029183226e-06
4.7786883659249749297e-06
4.9001816259006152464e-06
5.0590118340135691681e-06
5.1683823000973368907e-06
5.2183121348487708982e-06
5.2414545060352235017e-06
5.2861253513052099435e-06
5.4235810768100129581e-06
5.7346347461124552215e-06
5.9758528065018889843e-06
6.1018701493319937193e-06
6.1430236192442407971e-06
6.1450269876951355789e-06
6.137409452906154022e-06
6.1228212676816271267e-06
6.1144677595148733267e-06
6.1112301911355328636e-06
6.1196803679617327207e-06
6.1814351801055622692e-06
6.3323802663487208382e-06
6.4224374690209301707e-06
6.4446790869643894102e-06
6.4377840954321926501e-06
6.4110575576472335466e-06
6.3919986073107159169e-06
6.3902852894693476659e-06
6.4153144194726199399e-06
6.5221093863974521554e-06
6.7006831468445923492e-06
6.8562512299218690613e-06
6.9707989059927115787e-06
7.0337556255723534686e-06
7.057050228055200322e-06
7.0728562888019635028e-06
7.1132465716898367493e-06
7.2496322703292768278e-06
7.5644241403586988173e-06
7.8053097979141530111e-06
7.9225373702711578952e-06
7.9478956558971592717e-06
7.9378770307134005347e-06
7.9007246115912451237e-06
7.8780113312070126523e-06
7.8813130441902653318e-06
7.9535838549545142796e-06
8.2018560708673095153e-06
8.4129231250472757508e-06
8.5043958582335729967e-06
8.521132919171744524e-06
8.5142608429270648482e-06
8.507906241596092215e-06
8.5146226137921676019e-06
8.5418666050455062058e-06
8.5428319008592419376e-06
8.5248100487535672255e-06
8.4505062675414833827e-06
8.3573585044580585301e-06
8.3215203774336101247e-06
8.3162764882916814579e-06
8.3357407545569647193e-06
8.4124313438253819425e-06
8.4726581621161119748e-06
8.4992694873083700179e-06
8.5064798352119822889e-06
8.5043618333490768741e-06
8.4985805637046062046e-06
8.4910599456436423096e-06
8.4773578216931589566e-06
8.447875002819599027e-06
8.4179423628215004587e-06
8.3964728081123390479e-06
8.3837159394340554614e-06
8.3765706322019645917e-06
8.3719333143088821932e-06
8.3734572034864749874e-06
8.3916472161307340406e-06
8.4212736122885415037e-06
8.4557776960006606702e-06
8.4980063586745450402e-06
8.5457413270169142619e-06
8.5926961015906437569e-06
8.6318331955515704035e-06
8.6583913973315193802e-06
8.6716364194340766314e-06
8.674767385376799323e-06
8.6736684953948039876e-06
8.6749201006599879673e-06
8.6855508826885791552e-06
8.7238751406222139409e-06
8.7796068491073338356e-06
8.8313370772677015583e-06
8.874382860083763279e-06
8.9088141673367967971e-06
8.9383478492903636051e-06
8.9676747553820810324e-06
9.0004876202569305421e-06
9.0374666387921348104e-06
9.0760846212335323047e-06
9.1120500814983933853e-06
9.1407747772088089637e-06
9.1597235124467873285e-06
9.1698295138172255164e-06
9.1748463255906369544e-06
9.1805711945715424044e-06
9.1926798269313613995e-06
9.215294539650604612e-06
9.2499791263069040066e-06
9.2947237224264103614e-06
9.3454865445148851022e-06
9.397003485385967318e-06
9.44407929388570009e-06
9.4825245902745419063e-06
9.5111799738135308617e-06
9.5302732135460967205e-06
9.5426127924020820328e-06
9.5509399395147593281e-06
9.5598980632605685189e-06
9.5718684639278765752e-06
9.5892775466716322248e-06
9.6121189684112031917e-06
9.6398447273626323295e-06
9.6706242533658038751e-06
9.7019987053499756867e-06
9.7319812422885016345e-06
9.7582614373164896284e-06
9.7798732952138575674e-06
9.7965007130258282322e-06
9.809483583552227481e-06
9.820043400663816218e-06
9.8305808742022107201e-06
9.8428235811264686982e-06
9.9069813031509300653e-06
9.8963394129232344057e-06
9.8857068645394756851e-06
9.8750915789685155303e-06
9.8643931241978177613e-06
9.8536284942859407544e-06
9.8426283256862734497e-06
9.8314865787935242154e-06
9.8201883763865458041e-06
9.8089447782174009853e-06
9.7976423478109124921e-06
9.786406607096527824e-06
9.7751550773426303456e-06
9.7641294075948507875e-06
9.7531702861703536338e-06
9.7422839528410352185e-06
9.7311461488433551286e-06
9.7198602511102563884e-06
9.7082732855045854114e-06
9.696611767937965808e-06
9.6847100440688487557e-06
9.6728463465636480587e-06
9.6608565734263252635e-06
9.64899614344805285e-06
9.6369676647316202927e-06
9.625025384543354622e-06
9.6129560988538294346e-06
9.6010954715944109305e-06
9.5891727863226871394e-06
9.5774042475960433594e-06
9.5654634497270854749e-06
9.5536311404839863518e-06
9.5416428094092939566e-06
9.5298244682684739087e-06
9.5179014457338973132e-06
9.5061770581136236815e-06
9.4942947957764138589e-06
9.4824712545224248988e-06
9.4703342232031014934e-06
9.4582530635088806929e-06
9.4460453198787234445e-06
9.4342161031758405406e-06
9.4224378976310525958e-06
9.4109770892857825468e-06
9.3992960869667317671e-06
9.3876857890834038801e-06
9.3757715293910196707e-06
9.3640348606797730322e-06
9.3521938086864570916e-06
9.3407540741996351327e-06
9.32930067946815533e-06
9.3181939801487717752e-06
9.3068794678596968782e-06
9.2957377307889367182e-06
9.2843114141256703542e-06
9.2730358920660399351e-06
9.261455460222024248e-06
9.2500087664547145898e-06
9.2382822084527534758e-06
9.2267299654625853004e-06
9.2148861102590077208e-06
9.2031581126628159048e-06
9.1911383942631486954e-06
9.1792927738732785572e-06
9.1672689115100864949e-06
9.1554686885813769156e-06
9.1435705531003897279e-06
9.1319871351093760995e-06
9.120420236003631324e-06
9.1091726175429998388e-06
9.0978273087287540226e-06
9.0865989831896275698e-06
9.0750622802680453897e-06
9.063509354138100642e-06
9.0515711818526041379e-06
9.0396439521612623761e-06
9.0274209039425539906e-06
9.0153942172666550722e-06
9.0032645807939736367e-06
8.9914904177638183978e-06
8.979621201642730828e-06
8.9680711547685493343e-06
8.9563843922506451462e-06
8.9450749994945619599e-06
8.9337087885485637562e-06
8.9227177957123915517e-06
8.9115609646611073123e-06
8.9005843798599046119e-06
8.889301360126859722e-06
8.8781315348859227745e-06
8.8666721057645328768e-06
8.8553400251522223835e-06
8.843761372991820513e-06
8.8323673159592796801e-06
8.8208413979613904725e-06
8.8095854348592901503e-06
8.7982312403191930653e-06
8.7870831149497361748e-06
8.7758044619771303157e-06
8.7647284763459465515e-06
8.7535798247021496632e-06
8.7425925397628667657e-06
8.7314307050032583809e-06
8.7202689437524166831e-06
8.7089018775753679775e-06
8.6976214300205384087e-06
8.6863286441701624525e-06
8.6752248493004699062e-06
8.6641545899288863007e-06
8.6531926373674783421e-06
8.6421866903803125267e-06
8.6312356320892316642e-06
8.6201865710695038783e-06
8.6092766802378061902e-06
8.5983305759249269059e-06
8.5876543722232804629e-06
8.5769492367734235388e-06
8.5664875423084241497e-06
8.555874521703131272e-06
8.5453653394846528841e-06
8.5345755144651569321e-06
8.5238267837253700962e-06
8.5128825507548205648e-06
8.5021127119445267937e-06
8.4912913650823369338e-06
8.4806033734998942988e-06
8.4698368514526227999e-06
8.4590971644105368777e-06
8.4483546863886166265e-06
8.4377009300184715676e-06
8.4271485501177607669e-06
8.4168016958813525414e-06
8.4065206478200913071e-06
8.3964820851681810541e-06
8.3862616373406657824e-06
8.3761352584659324336e-06
8.3656635088088804477e-06
8.3552236160544728712e-06
8.3445997762770447227e-06
8.3340123904461606362e-06
8.3234468876263437474e-06
8.3129224120173794704e-06
8.3025187164779343647e-06
8.2921837025097769894e-06
8.2818469958571409747e-06
8.2715136830675171041e-06
8.2610899749597737051e-06
8.2506209640664544613e-06
8.2401947442233540063e-06
8.2296660650501470962e-06
8.2193614058036522575e-06
8.2089819055656109022e-06
8.1988947944757563152e-06
8.1887300647799045794e-06
8.1787472514047357663e-06
8.1685556152390187802e-06
8.158557066476357795e-06
8.1482927701788351361e-06
8.1383690069773272514e-06
8.1282486529089953555e-06
8.1184693741266436437e-06
8.1084719799662008003e-06
8.0986300323443455177e-06
8.08831641406830787e-06
8.0781975385763789976e-06
8.0674620181462609045e-06
8.0572564801432582814e-06
8.0465850459487717981e-06
8.0365792172000926355e-06
8.0262533755440421509e-06
8.0166041368267103041e-06
8.0065665834365863375e-06
7.99719834000149816e-06
7.9873190396884580943e-06
7.9779997793795612233e-06
7.9681180777442618337e-06
7.9587294301130746176e-06
7.9487591228292356989e-06
7.9393058783845257359e-06
7.9292717487077714642e-06
7.9198212031869654875e-06
7.909774397192990782e-06
7.9003269662583918169e-06
7.8902458133351890696e-06
7.8808235421662675452e-06
7.8707232215860893496e-06
7.8613516094886439183e-06
7.8511827467552876178e-06
7.8417910017358623097e-06
7.8314617776021235848e-06
7.8219160580742738166e-06
7.8114853441429205787e-06
7.8018850141791261425e-06
7.7914803635020244484e-06
7.782042354806466313e-06
7.7718854481916206813e-06
7.7626660417473619175e-06
7.7528277239842950582e-06
7.7438592069436033036e-06
7.7342124375431722734e-06
7.7254549847031654095e-06
7.715874708840381459e-06
7.7071355285043018134e-06
7.6974800913644353791e-06
7.6886449658626826383e-06
7.6789460077740915488e-06
7.6701893204020163061e-06
7.6606201797596280514e-06
7.6521132286282545989e-06
7.6427230229521484443e-06
7.6344339157256789724e-06
7.625164640499120853e-06
7.6169360569234253715e-06
7.6076793745273465721e-06
7.5993842336311313575e-06
7.5900383728560259287e-06
7.5816690863793170907e-06
7.5722386773992376641e-06
7.5637530438621020112e-06
7.5542472864763503978e-06
7.5457179714901268186e-06
7.5362829632357448178e-06
7.5279549052895785075e-06
7.5187520172566016648e-06
7.510595675179101108e-06
7.5015103763883532082e-06
7.493353187108895219e-06
7.4842745156454395844e-06
7.476243664857380817e-06
7.4673466287997539081e-06
7.4595014231506008497e-06
7.4508128249405799269e-06
7.4430975788985785486e-06
7.4344573250852164105e-06
7.4267898162049837671e-06
7.4181113999857597088e-06
7.4104757842944869527e-06
7.4016440786188198372e-06
7.3940175759489350037e-06
7.3851540727765990671e-06
7.3775234477662303645e-06
7.3687022020499135414e-06
7.3611191194981037878e-06
7.3524290950743875851e-06
7.344935496447146772e-06
7.3364660444592994252e-06
7.329190436157697728e-06
7.3208780055310805678e-06
7.313646745464899332e-06
7.3053557948292798972e-06
7.298144386423353338e-06
7.2897770455492285707e-06
7.2825904716828747924e-06
7.2741726984587467113e-06
4.7645115649318553506e-07
6.2745989563292485375e-07
7.9278236904346819546e-07
8.7927550606029622515e-07
9.1160591970426698771e-07
9.4917050396443393066e-07
1.0274357602976620078e-06
1.1464191983109321568e-06
1.269070044806782175e-06
1.3642961272524078115e-06
1.4284062270979385969e-06
1.4972164113909850748e-06
1.6047125450769350975e-06
1.7393764552639594546e-06
1.8462529343396605898e-06
1.9087402292075761848e-06
1.9796595223282445303e-06
2.0947116851428109914e-06
2.2184958894661893943e-06
2.3045831451186867666e-06
2.346373986757253774e-06
2.3718115289173830486e-06
2.4183508227449325654e-06
2.5131600355246881078e-06
2.6173271210074868553e-06
2.6938326674641503002e-06
2.736805667803517171e-06
2.7714511962244536218e-06
2.835941545748599316e-06
2.9819065198617236982e-06
3.195994821149130035e-06
3.3904872806115929408e-06
3.5150730215982368077e-06
3.5663176923041981917e-06
3.5774537418959404846e-06
3.5824612623812625371e-06
3.595924892245752461e-06
3.6312153010454170409e-06
3.7104856390201780031e-06
3.8129964497988866353e-06
3.9193518950892092969e-06
4.0101439512162151388e-06
4.0715904413176065018e-06
4.1023011669883653526e-06
4.1164932609248176809e-06
4.1368822027436065884e-06
4.1899675064896462249e-06
4.3506926132299862856e-06
4.5845142231622469721e-06
4.758661162615456048e-06
4.858679028718338476e-06
4.9002098519299061796e-06
4.9106199400426167248e-06
4.9108795985490066974e-06
4.9120191973399327578e-06
4.9190198247972381643e-06
4.9406713976026523828e-06
5.003940212792322488e-06
5.165965465260174371e-06
5.3409238033715019024e-06
5.4655279360665523608e-06
5.5261768491848368902e-06
5.5481233688874977635e-06
5.5780965736456612037e-06
5.6664339062604842694e-06
5.9217161030602571379e-06
6.1784275994387569876e-06
6.3273207069664399316e-06
6.3875328284235913413e-06
6.3992835254757853228e-06
6.395852297694966924e-06
6.3900963126021864151e-06
6.385626954032097097e-06
6.3837589531440466846e-06
6.3953226527983649756e-06
6.4615764859339074345e-06
6.6115239262573208867e-06
6.7075842776822896816e-06
6.7397077947663235542e-06
6.7371918142257145948e-06
6.7212218600241643802e-06
6.7017860942930823978e-06
6.6960017824772147997e-06
6.7055209592696774084e-06
6.7733807089288098767e-06
6.9771070216484854919e-06
7.1912862007414816255e-06
7.3440560974230955008e-06
7.4280172689536577002e-06
7.4598411221917293104e-06
7.4787463394843339991e-06
7.5229752145522704504e-06
7.6649028038049296749e-06
7.9403343043173933567e-06
8.1437918354742359466e-06
8.2418610363343200177e-06
8.2601255473802961303e-06
8.2485591408329363166e-06
8.2143236508065399981e-06
8.1985415471068951197e-06
8.2100090938217659675e-06
8.321509907070948658e-06
8.6344896955410588914e-06
8.8627735944838605949e-06
8.9604744463132377207e-06
8.9790145855893314258e-06
8.9737747590591796285e-06
8.9722801767905609763e-06
9.0039791569649000024e-06
9.0617732959240312145e-06
9.0723348965067263452e-06
9.056069812219621847e-06
8.9814916401553302367e-06
8.8723642443577615797e-06
8.82831399867447962e-06
8.8219512587064631619e-06
8.8424413321590937927e-06
8.9245574797499389213e-06
8.9855558982470150271e-06
9.0092698622643467224e-06
9.0130077601939207014e-06
9.008513196678754001e-06
9.0015353652750633456e-06
8.9896358787775586675e-06
8.959913959191574177e-06
8.9191527781265032018e-06
8.8897318498302180787e-06
8.8716583102419175634e-06
8.8615751476516154019e-06
8.8550312805326675681e-06
8.8506622557793531136e-06
8.8505932735487215669e-06
8.858894595918406469e-06
8.8840836452407039551e-06
8.9240604959024494243e-06
8.9729852940824913907e-06
9.0220906396396835297e-06
9.0619721440513517727e-06
9.0876029452777150206e-06
9.0987739434870973636e-06
9.1007439949874058808e-06
9.1017068158567537942e-06
9.1097002772796473435e-06
9.1351514745994733332e-06
9.1741200723626604779e-06
9.2187433767773392277e-06
9.2632379609872365353e-06
9.3026700474076356361e-06
9.3365218282380080809e-06
9.3664682283215832244e-06
9.3969122519575879534e-06
9.4316379463545017603e-06
9.4724053135755421993e-06
9.5172397589293346158e-06
9.5623146594483004855e-06
9.6027658554700169997e-06
9.6340557098805593215e-06
9.653836371083908478e-06
9.662601687819652937e-06
9.6644576777702274564e-06
9.6651096877296529186e-06
9.6711350371783279365e-06
9.6883703207979263991e-06
9.7197952566450226166e-06
9.7654541688282293552e-06
9.8216677958111226512e-06
9.8827596868863244105e-06
9.9412432219273907285e-06
9.9908847670956332359e-06
1.0027041554804369227e-05
1.0048015322735611346e-05
1.0055864545378461275e-05
1.0055649947890030817e-05
1.0054857204323123848e-05
1.006041288525170802e-05
1.0074238278349447869e-05
1.0096900466997507127e-05
1.0126439158626523272e-05
1.0160254876000456709e-05
1.0195336855034432735e-05
1.0228777877124082187e-05
1.0258292616757431264e-05
1.0282517196093841438e-05
1.0301725704128981989e-05
1.0316634701395347573e-05
1.0329598347503828111e-05
1.0342185479443861574e-05
1.0356850782236538475e-05
1.0374709154684083208e-05
1.0440059053749817084e-05
1.0428488729036282934e-05
1.0417025276036313318e-05
1.0405562774158711754e-05
1.0394146214536255997e-05
1.0382663287603688054e-05
1.0371138482666409256e-05
1.0359453139639420124e-05
1.0347652391888432352e-05
1.0335656242064577236e-05
1.0323609253203975842e-05
1.0311530206817374897e-05
1.0299603605968138205e-05
1.028780227338155116e-05
1.0276263982211865998e-05
1.0264859064789931406e-05
1.0253577126424051586e-05
1.0242144403744309005e-05
1.0230524221571445919e-05
1.0218549245610777134e-05
1.0206347219800768311e-05
1.0193892413253750147e-05
1.018141022635578018e-05
1.0168851843365058567e-05
1.0156377859923626869e-05
1.0143856301265347648e-05
1.013149362538227567e-05
1.0119194263302859675e-05
1.010709503990929376e-05
1.0094929719745011668e-05
1.0082730832622819169e-05
1.0070273598928091571e-05
1.0057704971261482245e-05
1.0044887890187050359e-05
1.0032059570733264283e-05
1.0019175489988001315e-05
1.0006499844918656888e-05
9.9938749243351305206e-06
9.9813419128386482096e-06
9.9686446498849091004e-06
9.9559242074145718886e-06
9.9431537248595929608e-06
9.930629565209383834e-06
9.9182611239497527175e-06
9.9061419459236139544e-06
9.894010965242543986e-06
9.8818891156193833133e-06
9.8695981057483812723e-06
9.8572613195450864784e-06
9.8448387278107610287e-06
9.8325281461509096318e-06
9.8202640300826814121e-06
9.8081292241064757254e-06
9.7959778217372987813e-06
9.7839038017240634158e-06
9.771847601114173651e-06
9.759899732923667213e-06
9.7479453968497487617e-06
9.7359952126757963811e-06
9.7239469822873692099e-06
9.7118327313169793816e-06
9.6995813023429513545e-06
9.6872528661210362434e-06
9.6747961179580911363e-06
9.6622930836037322752e-06
9.6496934454517158504e-06
9.6371209935020735339e-06
9.6246227742380763558e-06
9.6123281963549352482e-06
9.6002151087564514185e-06
9.5882471169330755865e-06
9.576314867675211407e-06
9.5643700098007360452e-06
9.5523346951281012105e-06
9.5401744672345556718e-06
9.5278064291977898089e-06
9.5152573075924500062e-06
9.5025501435808489947e-06
9.4898328215561928741e-06
9.4771670777768143179e-06
9.4646422822006737977e-06
9.4522443603647220985e-06
9.4400366004711019701e-06
9.427991007850766112e-06
9.4161612437497137993e-06
9.4044372520452452585e-06
9.3928078311097511357e-06
9.3811233887176854958e-06
9.3693662120775537722e-06
9.3574731821491931034e-06
9.345471283922880348e-06
9.3333982011431951644e-06
9.3212721172052686778e-06
9.309121099847770644e-06
9.2969618526385292142e-06
9.2848709735672294648e-06
9.2728780248957742811e-06
9.2610327138700700329e-06
9.2492728467108525735e-06
9.2376193699612211776e-06
9.2260342136332720788e-06
9.2145498868942960608e-06
9.2030422557574730709e-06
9.1914632069672139468e-06
9.1796457877298979561e-06
9.1677079664321644756e-06
9.1556644371640490235e-06
9.1437537535336933033e-06
9.1318953985654828038e-06
9.1202134913465655056e-06
9.1085103958101851381e-06
9.0969318954776675712e-06
9.0853195549325490351e-06
9.0737922606608311071e-06
9.0622515878196698334e-06
9.0507963733784188446e-06
9.0394086406318266641e-06
9.0281537541290513715e-06
9.0169834462215309921e-06
9.0058650921678561345e-06
8.9946883215632370212e-06
8.9834098999847298547e-06
8.971970350429330556e-06
8.9605257161342611992e-06
8.9490517085835228522e-06
8.9377481839656107551e-06
8.9263999741196009503e-06
8.9151660396812126375e-06
8.9037851457837705922e-06
8.8925579193639511284e-06
8.8812728858673454271e-06
8.8702456417959916677e-06
8.8592826097055716147e-06
8.8485163207879134132e-06
8.8377826723006443275e-06
8.8270267095448596043e-06
8.8161629615058059099e-06
8.8051960158552479386e-06
8.7941009135144620129e-06
8.7830532843794658607e-06
8.7718602628739227332e-06
8.7608681674177359898e-06
8.7496969741722260312e-06
8.7387969347628270483e-06
8.7277301416035036257e-06
8.7168458931952305625e-06
8.7057561403134914172e-06
8.6947908175430592897e-06
8.6836045906773011926e-06
8.6726794064177583802e-06
8.6615146250727169342e-06
8.6508078997794077422e-06
8.6398522828411608685e-06
8.6293988415800645182e-06
8.6186061815630747113e-06
8.6081704810739019095e-06
8.597289318878598735e-06
8.5867974156569317964e-06
8.5759008827207190999e-06
8.5655296766637850522e-06
8.5548144560552932017e-06
8.5446307917823957504e-06
8.5340470955562077848e-06
8.5238664029245183814e-06
8.5130238809407561621e-06
8.5025644018422747995e-06
8.49127108331984615e-06
8.4806468948888795749e-06
8.4693748992484316586e-06
8.4589649878136106899e-06
8.4480661936952185215e-06
8.4380441951163364311e-06
8.4274310160113145054e-06
8.4176757573507325616e-06
8.4071901496648745962e-06
8.3974357434740767327e-06
8.386914093186610141e-06
8.3770395658046032262e-06
8.3664027344066969655e-06
8.356478152130708938e-06
8.3457877186085799548e-06
8.3358583282810384607e-06
8.3251685160260988501e-06
8.3152429257273355323e-06
8.3045138415820653552e-06
8.2946092140517985316e-06
8.2838272247315195354e-06
8.2739550605465767371e-06
8.2631101451371265709e-06
8.2532644894946287736e-06
8.2423793210189971601e-06
8.2324810287007484051e-06
8.2215501059448067422e-06
8.2116070948422183878e-06
8.2006440560920729378e-06
8.1907711316946246039e-06
8.1799199008729157353e-06
8.1702017085782016164e-06
8.1596259229355584712e-06
8.1501642774066158649e-06
8.1398645748100678079e-06
8.1306678573728813819e-06
8.1204744411145268393e-06
8.1113177544671534745e-06
8.1010617652489611267e-06
8.0918367978800584877e-06
8.0815261779088231806e-06
8.0723695690729998793e-06
8.0621724518975023326e-06
8.0532476017561628476e-06
8.0432714857960046503e-06
8.0345947440042484057e-06
8.0247781730638283128e-06
8.0162179485664574114e-06
8.0063969993519438101e-06
7.9977101406725539383e-06
7.9877631854351146434e-06
7.9789325323714034257e-06
7.9688438394798460066e-06
7.9598683703105638319e-06
7.9496770759555737039e-06
7.9406624466659851474e-06
7.9305128913752753978e-06
7.9217236928860903486e-06
7.9118919529657675204e-06
7.903359582769700246e-06
7.8937115513945627592e-06
7.885247341086121234e-06
7.8756177013501339605e-06
7.8672179370829507713e-06
7.8576979542600164049e-06
7.8494199868035446297e-06
7.840034730178622194e-06
7.8318191031466278314e-06
7.8224630450002470718e-06
7.8143142763581606734e-06
7.8049373099170293546e-06
7.7968507554869592729e-06
7.7874026335553434865e-06
7.77933963065304988e-06
7.7698611905225955745e-06
7.7618273183438769001e-06
7.7524179607187451713e-06
7.7444239700069891275e-06
7.7351339473816877276e-06
7.7272410054899423718e-06
7.7181402530604384106e-06
7.7104048317494312044e-06
7.7014269390705494432e-06
7.6937420327144542158e-06
7.6847961058262216101e-06
7.6771515371843556785e-06
7.6681895108249998997e-06
7.6605886492536065199e-06
7.6515819393492820385e-06
4.6632969924939528635e-07
6.3292153709231705804e-07
8.2827381085315947843e-07
9.1084270818883228267e-07
9.4164572995777634734e-07
9.8300693853933861647e-07
1.0695661498290572352e-06
1.2340234038167007415e-06
1.3750708346902785403e-06
1.4596963546460579532e-06
1.5002561388016736795e-06
1.5372142143288338324e-06
1.6118354781652505366e-06
1.7929990462248444278e-06
1.9808065536801849301e-06
2.0980029187855771765e-06
2.1846168361628373138e-06
2.2805623743378673774e-06
2.3746762885846613824e-06
2.4363469239583584184e-06
2.4644402186969527452e-06
2.485193448523154966e-06
2.5273415340188130557e-06
2.6331992995113196368e-06
2.7601019382928278543e-06
2.8422651613665670826e-06
2.8838434225106465108e-06
2.9208139995844507362e-06
2.9946355808895582239e-06
3.1442561270811676722e-06
3.3343957664071588845e-06
3.5112751291726575468e-06
3.6384324343222569587e-06
3.7120907618182256182e-06
3.7492931471454720443e-06
3.7715547968411976847e-06
3.7992443959475407981e-06
3.848103441370785856e-06
3.9249415244559626682e-06
4.0241745299265852025e-06
4.127652848700758345e-06
4.212844980369932146e-06
4.2650847904170842423e-06
4.2878217697438867094e-06
4.3021243792169821954e-06
4.3326890528234080632e-06
4.4237640901111864898e-06
4.6857535949511071457e-06
4.9604549621898794606e-06
5.1240591268421929532e-06
5.1884745507483067767e-06
5.1965894152050715168e-06
5.1897238364189011083e-06
5.1767425786612354229e-06
5.1713262439664751296e-06
5.1738064264784005395e-06
5.2051752640348721341e-06
5.3242888290947897896e-06
5.496728093971414208e-06
5.63025020638788107e-06
5.7140740687642994404e-06
5.7501080994875920376e-06
5.7642052931073007002e-06
5.7915627237086711132e-06
5.8807845427583906584e-06
6.1410568175272923114e-06
6.3905471866693956486e-06
6.5301605658511221661e-06
6.5842463658568754135e-06
6.5943167390982350298e-06
6.5922059365370405955e-06
6.5907682508969819374e-06
6.5952022608404329938e-06
6.6219526864052213856e-06
6.7238369993878190786e-06
6.8705759230729209917e-06
6.9698389362642695737e-06
7.015951681451815624e-06
7.0224080447420049377e-06
7.0137714172792079497e-06
6.9920225133379347679e-06
6.9809710975651956819e-06
6.9836562146682127833e-06
7.0313345976177317619e-06
7.2152805610324831614e-06
7.4703381656417423661e-06
7.6642627912557428124e-06
7.7875062402327902326e-06
7.8450142314469639509e-06
7.8632264344448561091e-06
7.8804976156985884195e-06
7.9319278111322993554e-06
8.1220019819612356487e-06
8.4449712335988461276e-06
8.6409533506954372536e-06
8.7104648219675268224e-06
8.7107640886063458433e-06
8.6793913706311641649e-06
8.6133897417626247749e-06
8.5917405054414228735e-06
8.6051124082579199496e-06
8.7355717503904000982e-06
9.0949847719160170899e-06
9.3491338633084704508e-06
9.4539596466149509747e-06
9.4714086859648473105e-06
9.4648671139815013654e-06
9.4644232642139013064e-06
9.5105703530238587724e-06
9.5968590279253861348e-06
9.6185233057867873551e-06
9.6037041559955067983e-06
9.5280030960324662307e-06
9.3876526415861531207e-06
9.3189546160109662835e-06
9.3024716923259201672e-06
9.3042847510637225676e-06
9.3408435853780388754e-06
9.4008575512220936575e-06
9.4426667201407173808e-06
9.4736724176706406934e-06
9.4950957394988531169e-06
9.5058897125859179579e-06
9.5053195218293200594e-06
9.4983174007218412521e-06
9.4822156682689525596e-06
9.4380038430502643761e-06
9.3925771393622029876e-06
9.3676445795778373322e-06
9.35661425813418629e-06
9.3514884318074801303e-06
9.3568622571632426564e-06
9.3770365907585401607e-06
9.3860352905103224333e-06
9.3885127709486188084e-06
9.3950666970701680528e-06
9.4189660368014329109e-06
9.4632280300796487479e-06
9.5100870261973823521e-06
9.5514283064337347822e-06
9.585405740672263601e-06
9.6157189234525047313e-06
9.6474993263365607605e-06
9.6834562459352447656e-06
9.7223605270460048344e-06
9.7606120691242976748e-06
9.7942259813940078388e-06
9.8220045788341059823e-06
9.8452799969308174869e-06
9.8675921654723975111e-06
9.8930969676917530632e-06
9.9246925965839155696e-06
9.9623835852438995009e-06
1.0004665258840742963e-05
1.0048413675608253468e-05
1.0089958334053155349e-05
1.0126787371513535114e-05
1.0158233798499027335e-05
1.0185191166690241906e-05
1.02098290790455477e-05
1.023512467982620939e-05
1.02630964312885438e-05
1.0295130520983903811e-05
1.033071715081417124e-05
1.0368463103841885114e-05
1.0406322027902880549e-05
1.0441831282995427504e-05
1.047328014639793601e-05
1.0499168484184769881e-05
1.0519118092732103061e-05
1.0534757172796252887e-05
1.0548391769553678953e-05
1.0563857887788931573e-05
1.0583250865420659349e-05
1.0609825260342408182e-05
1.0643195448522686685e-05
1.0681909379890564926e-05
1.0722487437989243318e-05
1.0761858444939718533e-05
1.079752861670641955e-05
1.0827057133415909584e-05
1.0850187867442801754e-05
1.086719756248373475e-05
1.0879177592363180609e-05
1.0887948979697006769e-05
1.0896174663931652447e-05
1.0905340494108178967e-05
1.0917614619990085873e-05
1.0933824452887023497e-05
1.0996483325169691247e-05
1.0983616129951213474e-05
1.0970811333577861531e-05
1.0958171349151761732e-05
1.0945526182099227331e-05
1.0933016457356602627e-05
1.0920497529508787834e-05
1.090808997969743081e-05
1.0895481764967030874e-05
1.0882713748698157069e-05
1.0869631004639597436e-05
1.0856633567953728455e-05
1.0843716746552501393e-05
1.0831197995333272083e-05
1.0818844426589455817e-05
1.0806839289031141302e-05
1.0794828122929810637e-05
1.0782861283962999358e-05
1.0770494908051894532e-05
1.0757886969462927652e-05
1.0744830805319631971e-05
1.0731755196936996314e-05
1.0718519447193942468e-05
1.0705488697395683191e-05
1.0692330577855759457e-05
1.067941565271183146e-05
1.066649176503932176e-05
1.0653994735396454661e-05
1.0641454987542362792e-05
1.0629053464723927906e-05
1.0616210803440971714e-05
1.0603249923028757948e-05
1.0589733136477880258e-05
1.0576110250494121718e-05
1.0562082303139584176e-05
1.0548313489576267423e-05
1.0534556576240232872e-05
1.052128807062535732e-05
1.050792219385383393e-05
1.0494780035151081435e-05
1.0481362999445118634e-05
1.0468219958876523852e-05
1.0454957532688652567e-05
1.0442112814265209028e-05
1.0429180847760616643e-05
1.0416628489464471193e-05
1.0403841664019617885e-05
1.0391230438121498632e-05
1.0378151362168148292e-05
1.0365143871486891144e-05
1.0351701670627396298e-05
1.0338516824282704268e-05
1.032507361054470087e-05
1.0312049145767893373e-05
1.0298879868880157873e-05
1.0286205837109436422e-05
1.0273392421633460478e-05