/*--------------------------------*- C++ -*----------------------------------*\
  =========                 |
  \\      /  F ield         | OpenFOAM: The Open Source CFD Toolbox
   \\    /   O peration     | Website:  https://openfoam.org
    \\  /    A nd           | Version:  12
     \\/     M anipulation  |
\*---------------------------------------------------------------------------*/
FoamFile
{
    format      ascii;
    class       volScalarField;
    location    "0.0057";
    object      p;
}
// * * * * * * * * * * * * * * * * * * * * * * * * * * * * * * * * * * * * * //

dimensions      [1 -1 -2 0 0 0 0];

internalField   nonuniform List<scalar> 
75962
(
98919.9861489412433
98719.208615505573107
98472.167083953449037
98386.977133955457248
98498.707438541619922
98598.271410743283923
98673.147077265632106
98808.278351313449093
98835.267547878567711
98790.05365207689465
98729.25111713471415
98672.032438618130982
98670.829939297123929
98683.529269210543134
98666.473154329753015
98695.613516243640333
98799.528196591461892
98879.387241660951986
98861.404338211883442
98805.537737526290584
98805.52107684056682
98856.241028449701844
98898.522198463004315
98924.611117948923493
98950.37873372330796
98946.815233186876867
98901.487418874152354
98863.844377527086181
98864.81583148392383
98871.332608730896027
98847.004333011995186
98809.968188756291056
98800.130122725080582
98821.394060037506279
98853.290298820938915
98880.879750307518407
98890.76824608782772
98877.006081685103709
98846.505722816829802
98812.684887660754612
98794.35198954072257
98799.710125786994467
98824.873122611097642
98856.307225522628869
98876.153376471265801
98880.831832688199938
98887.822149846717366
98919.624129679083126
98969.371549041214166
99010.254067151327035
99035.700871184191783
99054.67644571819983
99062.66235911619151
99045.29761277223588
99021.435280696648988
99027.006571955775144
99068.754919253420667
99107.059277826876496
99109.229160711882287
99067.333726616518106
99000.839201376846177
98934.821859449730255
98897.802563501041732
98899.157280064144288
98930.934488692306331
98973.236760536630754
98999.059540042624576
98989.926009284870815
98955.782655032307957
98930.200235989977955
98937.07977212840342
98967.45697281610046
98990.323059972928604
98989.911439707648242
98978.17057501556701
98980.892430976731703
99007.60551103981561
99036.894947786815464
99035.409727728329017
98993.936485114187235
98931.395931742663379
98874.215941043046769
98836.899012814086745
98823.223753272803151
98833.424656597839203
98859.453885602226364
98879.515238810548908
98875.965590874417103
98855.39019544160692
98839.396019278181484
98840.908896953958902
98852.13201765078702
98857.889192550748703
98851.322508104902226
98835.976123272776022
98814.182448005216429
98782.866282371862326
98738.15498761976778
98685.184001620582421
98638.702364311291603
98614.152411911345553
98618.172214242382324
98641.417195379457553
98666.846162962974631
98685.362408312401385
98702.826728675034246
98727.175013929969282
98757.412648219164112
98778.753424504495342
98775.936881578905741
98750.023052082382492
98719.400412719944143
98704.832196682895301
98712.674649872016744
98731.42641106924566
98745.913122792000649
98753.372336734712007
98763.494065760314697
98782.312789650241029
98804.089420903139398
98817.503753190714633
98817.498569133706042
98810.123031541268574
98803.570088082968141
98799.007503990142141
98791.952257329234271
98778.345176955554052
98762.793614894369966
98753.54810704101692
98756.569712297539809
98770.146219286703854
98787.039539964986034
98801.614233050277107
98814.753108882679953
98831.185045808306313
98853.500327996938722
98878.590380744382855
98900.784137429072871
98916.978335473759216
98926.486202033498557
98928.038177847774932
98919.709770198169281
98902.463841808392317
98882.064526653077337
98866.976089805801166
98863.848244420645642
98870.814396751346067
98881.988653440814232
98892.062955268542282
98896.995669713054667
98898.570435603804071
98897.830635759426514
98893.011058474919992
98880.124200937178102
98857.356633854476968
98828.56453602356487
98802.410447632864816
98788.066375348193105
98790.65556675667176
98808.550348839184153
98835.694457495832467
98865.330020560068078
98892.203192631612183
98912.372928112090449
98922.926904320600443
98922.77732500093407
98914.155662253091577
98902.191774258608348
98892.686697102137259
98888.726409851777134
98889.009294158546254
98890.088555866634124
98889.84320935998403
98888.550476967779105
98887.615981771625229
98887.67979007451504
98887.46697080344893
98885.594123732313165
98882.466542527574347
98880.956744293231168
98884.514113185956376
98894.907895314812777
98910.737294755686889
98928.345769465915509
98943.542016654886538
98953.068660037082736
98955.301040397011093
98949.655040848738281
98947.614610832155449
98963.823800299112918
98975.091980786935892
98982.433745063652168
98987.587325922926539
98991.178139668525546
98992.116561198592535
98988.716572167861159
98980.302045639502467
98968.174768085111282
98955.537040958704893
98946.473645695499727
98944.582200221266248
98951.50731274021382
98965.726430188849918
98982.703147352789529
98996.769188707388821
99003.670263734675245
99002.563947505957913
98996.215666486270493
98989.131679910264211
98984.724699956845143
98983.667318767635152
98984.337394195055822
98984.901284651976312
98985.132548626759672
98986.349988217407372
98989.962880003440659
98995.72889592962747
99001.220270671241451
99003.162326867488446
98999.665748302853899
98991.602869791240664
98981.903514818142867
98973.500244943264988
98967.209573202504544
98961.310989928606432
98953.112174842535751
98941.358033706521383
98927.490023559977999
98915.095669916889165
98907.811071170450305
98906.991022952628555
98910.618782916208147
98914.318889376954758
98913.896061781415483
98907.602333948918385
98896.972912148587056
98885.973481177570648
98879.034101539800758
98878.942100662941812
98885.804499362973729
98897.336052774844575
98910.3025941568485
98921.961713678465458
98930.753102067596046
98936.500514707455295
98940.003708128919243
98942.370643348214799
98944.30903674379806
98945.539625950172194
98944.861219361773692
98940.91500227463257
98933.359626646604738
98923.764520229917252
98915.667503118282184
98913.611751864067628
98921.144047141307965
98938.768625980766956
98963.153078585179173
98988.092138558829902
99006.835656629205914
99014.623032754665473
99010.289751522548613
98996.322310261180974
98977.267975208276766
98957.466697082170867
98939.520601173775503
98924.085310932219727
98910.701319505664287
98898.9841262128175
98889.573499262158293
98884.123744919692399
98884.375294631288853
98890.943610360118328
98902.632675472807023
98916.537660870701075
98928.9402355782222
98936.603013943589758
98937.786077788186958
98932.554011423810152
98922.639272144573624
98910.590337633897434
98898.719143678230466
98888.762765880601364
98881.928100612873095
98878.807515198379406
98879.204074559806031
98882.077150878641987
98885.675138503938797
98887.906555316338199
98887.009865031199297
98882.181014496629359
98873.877872173135984
98863.590915424356353
98853.224171097157523
98844.335485848409007
98837.640743790820125
98832.983016852449509
98829.726576800865587
98827.255765703506768
98825.329827001318336
98824.083528079761891
98823.757339638133999
98824.415756381582469
98825.851162177830702
98827.640578946680762
98829.32738865884312
98830.586652877784218
98831.299694580287905
98831.377656111450051
98830.527907108946238
98828.090405858441954
98823.129161545730312
98814.838877795540611
98803.121157038505771
98789.159426196405548
98775.458255791585543
98765.346050370877492
98762.037443705368787
98767.462693643712555
98781.324636633624323
98800.823922873692936
98821.24718084858614
98837.516620416179649
98846.025462228237302
98845.813823353440966
98838.732468016823987
98828.551926896616351
98819.3634988314152
98814.023543417060864
98813.188309004064649
98815.314114137741853
98817.57437618431868
98817.236864718273864
98812.819318130801548
98804.610907216265332
98794.33181190432515
98784.217218872960075
98776.025397130084457
98770.445009765899158
98767.152058175212005
98765.37631751220033
98764.630856848627445
98765.230058236629702
98768.246835438680137
98774.955840936177992
98786.036757314141141
98800.919111420444096
98817.43739584380819
98832.22320389476954
98841.809182287906879
98843.815077266437584
98837.609173435019329
98824.42424445823417
98807.003374736319529
98788.726197690877598
98772.520411631980096
98760.134337390700239
98752.12085006426787
98748.162816000549356
98747.493050814635353
98749.20088491574279
98752.493456598997
98756.796404468783294
98761.584248275248683
98766.140676237715525
98769.506614262150833
98770.752492278348655
98769.422557015073835
98765.780730403857888
98760.669171696397825
98755.041316664457554
98749.507623371100635
98744.068443510914221
98738.112090643830015
98730.671482297300827
98720.876593960158061
98708.278696341905743
98692.967798296827823
98675.509472140940488
98656.754607873124769
98637.565590837228228
98618.654111696785549
98600.545648974162759
98583.677549488216755
98568.54218547110213
98555.77217816686607
98545.988702287708293
98539.646326093992684
98536.879362992214737
98537.378419624496019
98540.324368727233377
98544.545659284616704
98548.872003490934731
98552.498208959470503
98555.14577614548034
98557.113652907850337
98559.240901769109769
98562.633971480303444
98568.21807039459236
98576.286693687623483
98586.278892364280182
98596.884929196690791
98606.350865029889974
98612.93904290444334
98615.31753155188926
98612.901928781415336
98606.003144771369989
98595.733524610754102
98583.776359140887507
98572.002244700328447
98561.983952863432933
98554.71566521814384
98550.661144088371657
98549.861066370358458
98551.940571375220316
98556.228550759624341
98561.938273652805947
98568.320417969196569
98574.840126437775325
98581.306922776027932
98587.807788558842731
98594.466824997143704
98601.209700745079317
98607.77144396516087
98613.81805243290728
98618.993748385386425
98622.960225910836016
98625.571157254264108
98626.953317989245988
98627.540892297212849
98627.99442976868886
98629.096575598581694
98631.56167579596513
98635.779174345589126
98641.687788856579573
98648.87835221196292
98656.757127071818104
98664.535747177826124
98671.392714607951348
98676.557965935906395
98679.34555261330388
98679.311549680365715
98741.601701247651363
98795.749791317881318
98902.402863402152434
98884.445221563611994
98825.942300525464816
98825.101733841598616
98826.598909833774087
98847.677864586657961
98922.777394867996918
98986.841930249065626
98926.372587853067671
98808.209788126710919
98766.697011962678516
98769.850983870448545
98757.563774562921026
98806.544686047302093
98905.022715525788954
98934.303090991263161
98878.43313779674645
98823.061265212949365
98827.562614612121251
98880.232987387687899
98933.773050185642205
98974.814059125215863
99001.768900378607213
99000.02935747896845
98984.961922742266324
98984.718075350057916
98986.656644563263399
98962.718112650487456
98922.871766203854349
98897.864520705625182
98891.08805244154064
98879.152040259476053
98875.679013357876102
98898.552578177244868
98920.332816931899288
98905.606577487676986
98871.096079815513804
98856.002509210215067
98866.694638334200135
98877.67641799771809
98881.581572134295129
98893.254594044148689
98914.32719818057376
98934.249438609273056
98952.689290316571714
98976.437659573974088
98998.443533078461769
99010.969634764798684
99029.426781294139801
99064.289443866509828
99091.965162458232953
99083.286347729881527
99052.959480178935337
99034.243037175067002
99043.392278973420616
99066.076783163982327
99069.309625854002661
99038.300281442643609
98980.912710319971666
98924.77114245876146
98897.322170711428043
98910.624041191869765
98953.055139854011941
99001.693303313848446
99028.798877212873776
99016.301052456110483
98975.802690849974169
98943.824240132336854
98950.410529021653929
98988.631274370971369
99024.643827185427654
99032.347974763499224
99016.614145610903506
99003.679591751919361
99011.257990546189831
99026.660679675027495
99020.423240929376334
98981.818684223791934
98924.925763244376867
98872.93753326771548
98841.072011995551293
98833.078079480430461
98842.153468810764025
98855.391503903199919
98858.192216196737718
98843.523148792708525
98822.873015604403918
98813.882664556280361
98823.160663500588271
98840.585947683401173
98849.868958779465174
98843.846840768135735
98824.472751312277978
98795.872426866815658
98760.457668921604636
98717.882444662813214
98669.955570906691719
98627.810840387872304
98607.513538833489292
98617.42194082379865
98647.428665148370783
98674.763768872173387
98687.415561937872553
98692.043263349230983
98704.976701877370942
98728.441689606450382
98748.830577892047586
98748.044021765337675
98724.422480883949902
98695.633749453307246
98683.706678815578925
98696.471958981419448
98722.987959423204302
98745.911138417795883
98757.813620770539274
98764.720355617173482
98774.205670208088122
98786.716430475120433
98795.868911730591208
98798.65176076424541
98798.438121009938186
98800.309306803566869
98803.905945627615438
98801.385547361627687
98787.390648820073693
98767.255933195905527
98752.713611089871847
98752.556791322931531
98766.505247733875876
98785.238634630426532
98799.650562127135345
98809.532021790451836
98822.05057738845062
98843.335239678781363
98871.846815004304517
98900.948495011311024
98924.606116410897812
98939.409152688676841
98942.770884785772068
98933.294427500062739
98913.372334871586645
98890.369392491193139
98873.055830337107182
98866.619288542176946
98869.065894598155865
98873.361404348732322
98874.711667454510462
98872.722351024785894
98872.344011111519649
98877.092095160871395
98882.690695934346877
98880.549882126768352
98864.776869497698499
98838.31126646528719
98812.062856292817742
98797.49077959904389
98799.786234287326806
98816.350892803937313
98839.779435917211231
98863.252343918051338
98882.394724149940885
98895.13104784283496
98900.62351461086655
98899.248095195463975
98893.591023470769869
98887.053988957981346
98882.064484211674426
98879.135921274617431
98877.014918402826879
98874.265485706113395
98871.649535957534681
98871.682742114819121
98875.930550033692271
98883.317347573742154
98890.555013376273564
98894.306837831187295
98893.649814108881401
98890.764935464321752
98889.32668136859138
98892.208885730826296
98899.961809693166288
98910.928872253949521
98922.094263550403412
98930.120972722375882
98932.351329214841826
98926.87058327923296
98912.978354297243641
98912.051282512155012
98928.647563962309505
98941.009259071288398
98949.222032451929408
98955.541729336662684
98961.93177666363772
98968.240731767684338
98972.407073721129564
98971.880917633447098
98965.260507543076528
98953.603493391114171
98940.273767598191625
98929.724588189143105
98926.12212793409708
98931.716522164773778
98945.514308594079921
98963.337798764958279
98979.411177376066917
98988.85193832013465
98989.795051258406602
98984.05039742012741
98975.722263007948641
98968.846914246925735
98965.686137490221881
98966.663609156268649
98971.446265971200773
98979.899491331103491
98991.927837110706605
99006.425273831555387
99020.47595485720376
99029.694758858357091
99030.24661775311688
99021.102080191267305
99004.98271336837206
98987.051620527621708
98972.199382629216416
98962.58732630618033
98956.840130761411274
98951.4724514187983
98943.627190234517911
98933.095386530549149
98922.44537249970017
98915.382167260846472
98914.305320317900623
98918.682053125579841
98925.282097482151585
98930.021619190592901
98930.03641289526422
98924.797046728373971
98916.00522323398036
98906.572681141013163
98899.253128668802674
98895.658869761042297
98895.960313577379566
98899.433502511019469
98905.056236837888719
98911.987776012261747
98919.582009205230861
98927.338395079656038
98934.813634738238761
98941.359453539902461
98945.974410874492605
98947.524691107420949
98945.287426312061143
98939.629441194367246
98932.42090589714644
98926.867542415449861
98926.416533981057
98933.315294022540911
98947.380190989308176
98965.763796028288198
98983.880038096394856
98997.114875684943399
99002.515681186981965
98999.589800866335281
98989.907604735009954
98975.949682179270894
98959.975892839283915
98943.556465169589501
98927.714872785072657
98913.38840601935226
98901.96226593189931
98895.194911179889459
98894.554192297058762
98900.508981068385765
98912.022288683816441
98926.436321653920459
98940.255816648539621
98950.073483258602209
98953.426328318848391
98949.424671122033033
98938.921802088865661
98923.988507610993111
98907.171449148198008
98890.999713515411713
98877.670557548932265
98868.824169791085296
98865.341111968882615
98867.183612771696062
98873.285364220413612
98881.605417360231513
98889.49320125678787
98894.420880854289862
98894.745671321172267
98890.189662883232813
98881.747844264333253
98871.086659288353985
98859.829132469531032
98849.025866754847812
98839.080523946875473
98830.067091870048898
98822.070992096007103
98815.378682479262352
98810.488808882728335
98807.831829296832439
98807.484273206326179
98809.028846000102931
98811.616386185429292
98814.207189839551575
98815.862378907899256
98816.001992494755541
98814.378724274269189
98810.859281288852799
98805.178188602891169
98796.923566954021226
98785.959497454357916
98772.844800625287462
98759.077367243517074
98747.072419958072715
98739.656334390296252
98739.218597396960831
98746.759189997959766
98761.173387316710432
98779.239691083857906
98796.503430520664551
98808.70718448763364
98813.256637144775596
98810.104329419657006
98801.621945487786434
98791.566137266592705
98783.530855876626447
98779.540718218064285
98779.415772630978609
98781.063361135325977
98781.565828374572448
98778.586774838739075
98771.376559106865898
98760.968785952427424
98749.59545615776733
98739.641150313356775
98732.634309915752965
98728.769261379173258
98727.148306015791604
98726.594860758530558
98726.529036330393865
98727.454919597745175
98730.860827228316339
98738.413926278546569
98750.935775447651395
98767.714072080620099
98786.296030342768063
98802.908137605831143
98813.692132631113054
98816.174067645450123
98810.125634076379356
98797.454297427801066
98781.473843102372484
98765.891046272416133
98753.689814031458809
98746.319009283804917
98743.631739817472408
98744.456971422128845
98747.334279753224109
98751.067523945006542
98754.903910522480146
98758.556444456946338
98761.998054345443961
98765.158089833712438
98767.703100753569743
98769.0456449764024
98768.644159609480994
98766.309426610328956
98762.355717537240707
98757.343411638808902
98751.661440233685425
98745.340253849382862
98738.055384822466294
98729.287991797275026
98718.616374821591307
98705.998542358633131
98691.783829688036349
98676.554473512791446
98660.857965969917132
98645.046777288196608
98629.214852635734132
98613.334557336187572
98597.472001940535847
98582.05972331839439
98567.959422716565314
98556.290280416505993
98548.024028834915953
98543.634219663334079
98542.910032215746469
98544.985800925060175
98548.611366769677261
98552.470700010366272
98555.5939964154677
98557.680254151797271
98559.123945732513675
98560.823795593809336
98563.892601393017685
98569.329105545868515
98577.569217806798406
98588.213604747463251
98599.974785327867721
98610.926366302170209
98619.055389625194948
98622.767336929653538
98621.23996621472179
98614.616930732227047
98603.976962434928282
98591.107429107229109
98578.112823624993325
98567.028666079248069
98559.308056641326402
98555.576402788734413
98555.727104349381989
98559.129447242361493
98564.807550981640816
98571.706976111454424
98578.935311166322208
98585.907395858856034
98592.418623404751997
98598.572572274133563
98604.651660989344236
98610.827737253042869
98617.005096951121232
98622.760197406329098
98627.518514372117352
98630.789344993696432
98632.348443871786003
98632.341199159651296
98631.284634007883142
98629.984087181364885
98629.374925885858829
98630.310898656476638
98633.40069598107948
98638.833844154840335
98646.363404313757201
98655.42847972009622
98665.173390218231361
98674.588784469800885
98682.729099408883485
98688.811774844129104
98692.229849676019512
98901.273282710084459
98949.066843695269199
99121.856417824397795
99222.899061568561592
99220.850411848165095
99176.167328539537266
99052.594484926579753
98956.445107405685121
99037.541153350146487
99133.833994639469893
99065.298289988611941
98958.541092575615039
98933.715793543218751
98931.157170164238778
98906.038966192252701
98913.981952391564846
98934.294891765806824
98916.785650463833008
98898.648283979258849
98885.417553410763503
98883.630987391268718
98915.962275534038781
98983.390297884514439
99052.165343613567529
99087.336884656266193
99082.485371385788312
99070.008603169771959
99062.202698889406747
99035.382079213755787
98989.725332157497178
98961.184787978447275
98965.638589372960269
98970.363257813995006
98946.018541021432611
98925.499985348273185
98941.62124599069648
98967.570041314145783
98957.534590564944665
98933.209007424899028
98943.498102829820709
98975.690553811014979
98984.714592702468508
98966.960885901236907
98963.194862266129348
98987.284931532602059
99014.271937715966487
99022.683108065859415
99014.186841185815865
98998.776398216985399
98996.784251309989486
99027.487550214093062
99081.461907944918494
99117.621236439968925
99105.638051361675025
99056.814734833649709
99011.248096910698223
99000.193399389841943
99012.270239125122316
99021.710680834090454
99009.617115178654785
98975.938397496749531
98942.401314820366679
98931.141556822185521
98947.391592540559941
98982.559540776550421
99021.577984812145587
99046.047427456593141
99039.391716592799639
99003.968838875822257
98967.544964497254114
98963.305965634936001
98994.413006108181435
99035.013897947865189
99052.631417753742426
99040.000810442783404
99017.238029766449472
99004.731199633664801
99003.425837071641581
98996.615238385638804
98973.278466352741816
98937.634795955542359
98901.950476294528926
98877.172722838979098
98864.862076512275962
98858.78138525414397
98850.48863574618008
98834.621530450545833
98813.491041479966952
98797.103510972156073
98793.909437930924469
98802.589421677592327
98814.70969599786622
98822.516202053084271
98819.360382384649711
98802.511110253457446
98774.642452393614803
98740.421365174595849
98703.995931875222595
98666.824217826855602
98635.375908368398086
98622.615590709014214
98635.712818098254502
98663.816198557862663
98685.48501870855398
98689.248588204340194
98682.578166889798013
98683.410892011568649
98696.397389229314285
98709.515357028038125
98707.028696533627226
98687.413702121077222
98666.010016382453614
98662.609614736924414
98683.847967124092975
98718.17113292562135
98747.1151603248436
98760.886373360044672
98763.315316162392264
98764.246950458065839
98768.823937705761637
98776.35028643537953
98783.550961202810868
98790.096259735815693
98797.811229703744175
98805.851034475228516
98807.311359937972156
98799.40516296698479
98786.366072933451505
98775.082715771728544
98773.611818617311656
98782.832214786511031
98794.754854375714785
98801.951601649518125
98805.845952393734478
98814.995686751135509
98836.623386016697623
98869.14892135692935
98903.898717575779301
98932.171977260732092
98948.828601864079246
98951.967770788338385
98942.528268482798012
98923.985541931091575
98902.809054332625237
98885.819375567240058
98875.343927154273842
98869.285567550134147
98863.205454614741029
98853.99180414325383
98846.187971683539217
98846.619139478454599
98857.748151498177322
98872.873604511885787
98879.977039176184917
98870.759477196043008
98847.947247801261256
98823.687153326784028
98810.179644162242766
98812.004969251443981
98825.530326773703564
98843.512106624359149
98860.093807618948631
98872.421760298559093
98879.538726252081688
98882.299506873561768
98881.559147569787456
98879.164257739073946
98877.194929092001985
98875.718859811662696
98873.401402102885186
98869.204432449027081
98863.220624634952401
98857.658096174127422
98856.531353563637822
98862.951318420702592
98875.963019745206111
98890.79050983482739
98901.376467762747779
98904.169002867827658
98899.638776698149741
98891.576275670391624
98884.911495960201137
98883.580275546817575
98888.16354829116608
98896.185773341945605
98903.442299777991138
98905.982486901179072
98901.094242359598866
98887.566094639536459
98885.666685958669404
98899.126209686786751
98908.28314388988656
98914.190128461894346
98920.035210832036682
98928.258405647837208
98938.546017380809644
98948.121381890610792
98953.335330971152871
98951.721966242606868
98943.407256475227769
98931.20934756170027
98919.907235106220469
98914.47840947311488
98917.907690304811695
98929.936781489246641
98946.972989944799338
98963.366398145168205
98973.934021959605161
98976.286021748688654
98971.585942496240023
98963.576667515066219
98956.685825374268461
98954.333237098355312
98958.312179362634197
98969.039115791543736
98985.86901053506881
99007.136419615941122
99029.565553403808735
99048.224403000393067
99057.761248203765717
99054.698023891425692
99039.348265051856288
99015.918558642821154
98990.921121009087074
98970.257613085748744
98956.94660062539333
98950.256584189570276
98946.725694269160158
98942.632251377392095
98936.399618525392725
98929.365087671903893
98924.59523715620162
98924.871497831409215
98930.989340567422914
98941.088698582723737
98951.375770576647483
98957.841992520465283
98957.867320127581479
98950.944494314826443
98938.546335034436197
98923.4602562047221
98908.971212850388838
98897.974755905219354
98892.230729739865637
98892.249673249578336
98897.537832022047951
98906.899194855548558
98918.65437717550958
98930.886811517513706
98941.688355209611473
98949.451767017977545
98953.180969300374272
98952.859317284644931
98949.58609034185065
98945.405559466787963
98942.786039396130946
98943.84902677674836
98949.204525548862875
98958.113009734821389
98968.556196598205133
98978.026769896387123
98984.385905074421316
98986.428509052231675
98984.568872860312695
98979.378616142639657
98971.251929015881615
98960.387935257691424
98947.09340332132706
98932.470759153729887
98918.895954230058123
98909.318665099766804
98906.114790453953901
98910.249281345197232
98920.793278496188577
98935.09880575905845
98949.513679230367416
98960.36312320556317
98965.010147767912713
98962.345086173227173
98952.770465696667088
98937.851050914949155
98919.736822475577355
98900.783505544066429
98883.261318926844979
98869.142645887593972
98859.973696590226609
98856.764502354213619
98859.753668229517643
98868.122152692332747
98879.885080524763907
98892.195238953194348
98902.000772282844991
98906.9274839014397
98905.913278769323369
98899.300820781063521
98888.375063950254116
98874.751433156678104
98859.870314491825411
98844.801641994534293
98830.355820005148416
98817.221253783849534
98806.051638930468471
98797.505557959448197
98792.098829512717202
98789.940723529725801
98790.562830393930199
98792.939192075762548
98795.732266168648493
98797.633502067415975
98797.701917056125239
98795.428903990468825
98790.62323960471258
98783.281251063774107
98773.528990991457249
98761.718492478772532
98748.718959934994928
98736.048660343047231
98725.802138187078526
98720.219285540326382
98720.890368902342743
98728.010263535601553
98740.049281333966064
98754.026609545093379
98766.280046987827518
98773.594488910734071
98774.305985001454246
98768.944266998558305
98759.940513479872607
98750.612927415699232
98743.833448614837835
98740.864387872745283
98740.974759527132846
98741.921434791758657
98741.076592351731961
98736.637632137222681
98728.440740964637371
98717.93603144880035
98707.39206428702164
98698.881552743929205
98693.448396801381023
98690.799112234657514
98689.682869879063219
98688.821867235557875
98687.841031954987557
98687.618148211375228
98689.988756664271932
98696.871232359757414
98709.163816254236735
98725.958104868695955
98744.577998347973335
98761.248625052787247
98772.281066887444467
98775.436308017437113
98770.844482922489988
98760.848445168609032
98749.003438549261773
98738.868058882057085
98733.023018306063022
98732.395754112716531
98736.189238876162563
98742.505498578364495
98749.260117258527316
98755.000712424487574
98759.132501899250201
98761.786999511910835
98763.496268826493178
98764.801990316889714
98765.972666769477655
98766.851479624572676
98766.964504935691366
98765.776576046526316
98762.968133914968348
98758.57543619988428
98752.764371566154296
98745.596043078316143
98737.063969352398999
98727.148571324229124
98715.925909576777485
98703.664754270794219
98690.788446630424005
98677.752378923993092
98664.881207863276359
98652.191403330827598
98639.410070329569862
98626.212950180037296
98612.511388453742256
98598.624449540962814
98585.342589972788119
98573.80185936910857
98565.065546367142815
98559.706509911615285
98557.582633257174166
98557.875729567676899
98559.383672024472617
98560.962265161389951
98561.902292811777443
98562.111596490140073
98562.167051864700625
98563.077554851013701
98565.891921948175877
98571.427220974859665
98579.98689093865687
98591.139958580926759
98603.613531684881309
98615.477238996390952
98624.587965210637776
98629.148477669019485
98628.140710100196884
98621.581197227249504
98610.508235216722824
98596.797248993694666
98582.74367316577991
98570.616154057948734
98562.260607240052195
98558.625149696716107
98559.599642299086554
98564.272506827852339
98571.40233343221189
98579.808160148153547
98588.590568789906683
98597.218617239777814
98605.51171925952076
98613.492341523509822
98621.186639702427783
98628.47658257112198
98635.079042688797927
98640.613549026267719
98644.605092656653142
98646.629970306879841
98646.567148832313251
98644.770100579713471
98642.000787203316577
98639.130282680722303
98637.02589870004158
98636.412130062686629
98637.854509385346319
98641.613029556363472
98647.553055304932059
98655.274060543859378
98664.201251455306192
98673.62169702850224
98682.68881653517019
98690.596073262553546
98696.698000575910555
98700.484821505393484
99363.972495781708858
99324.265461146293092
99357.906192986221868
99345.737391836766619
99315.680636435994529
99299.351856643726933
99178.689579332451103
99083.067119258485036
99139.47542070010968