/*--------------------------------*- C++ -*----------------------------------*\
  =========                 |
  \\      /  F ield         | OpenFOAM: The Open Source CFD Toolbox
   \\    /   O peration     | Website:  https://openfoam.org
    \\  /    A nd           | Version:  12
     \\/     M anipulation  |
\*---------------------------------------------------------------------------*/
FoamFile
{
    format      ascii;
    class       volScalarField;
    location    "0.0057";
    object      pMean;
}
// * * * * * * * * * * * * * * * * * * * * * * * * * * * * * * * * * * * * * //

dimensions      [1 -1 -2 0 0 0 0];

internalField   nonuniform List<scalar> 
75962
(
98741.840368306744494
98741.964418315896182
98741.602034243318485
98741.444667828895035
98741.393329132464714
98741.207659615742159
98740.951367342233425
98740.600165029420168
98740.151855886826525
98739.661912456824211
98739.147232235452975
98738.633979359205114
98738.121513683610829
98737.584873894011253
98737.040759398805676
98736.499650093479431
98735.919797610025853
98735.277446216117823
98734.61580509300984
98733.985655326134292
98733.382355489637121
98732.772556897121831
98732.144961500060163
98731.510736140262452
98730.871031866670819
98730.23175724966859
98729.619550054354477
98729.048544371675234
98728.499872264903388
98727.956010168665671
98727.42808230452647
98726.930276982515352
98726.455572098740959
98725.982903396085021
98725.498970832704799
98725.004059548780788
98724.505734237667639
98724.018231726513477
98723.554032788641052
98723.119437005516374
98722.710304376087151
98722.313036555118742
98721.915099619451212
98721.509711170758237
98721.098424448136939
98720.691599729310838
98720.297841158317169
98719.912042168129119
98719.523177287293947
98719.127908511625719
98718.73220957009471
98718.337110254491563
98717.94365564500913
98717.56230733198754
98717.206744099326897
98716.871092946574208
98716.533042352384655
98716.18024854156829
98715.820899672151427
98715.477382007229608
98715.168074798391899
98714.899851442824001
98714.663148915831698
98714.438425843211007
98714.208419901915477
98713.96240771014709
98713.702079239927116
98713.441690362713416
98713.199354635682539
98712.979572473850567
98712.768239128490677
98712.548160788326641
98712.316136106557678
98712.081761703491793
98711.854935112874955
98711.634014237075462
98711.405511622055201
98711.158157833458972
98710.897180593470694
98710.642723060664139
98710.412111335026566
98710.209166551547241
98710.026265651205904
98709.852802604029421
98709.677049414895009
98709.488484880610486
98709.284527278447058
98709.073515490192221
98708.86824679786514
98708.671920068169129
98708.476603251154302
98708.272755660029361
98708.057940111350035
98707.836426844922244
98707.61277008059551
98707.389468755573034
98707.170416080494761
98706.962478816320072
98706.772826195257949
98706.603149710164871
98706.447073132789228
98706.291491573632811
98706.123980912670959
98705.940672020660713
98705.745141185252578
98705.541209175047697
98705.327789195696823
98705.100531436808524
98704.859171104239067
98704.613568964865408
98704.378042244206881
98704.160834444177453
98703.958569586131489
98703.75982645493059
98703.555138815499959
98703.344603119447129
98703.133657167898491
98702.925167115739896
98702.716456760768779
98702.50402636261424
98702.289624210607144
98702.079284213017672
98701.878490442453767
98701.688662249041954
98701.507896153590991
98701.335291619427153
98701.172555742508848
98701.021497524314327
98700.880355717046768
98700.744146703567822
98700.607067979712156
98700.466087213717401
98700.321746825517039
98700.175571611966006
98700.026986863493221
98699.872547411127016
98699.709336964442628
98699.537588314604363
98699.360648686168133
98699.181905444173026
98699.004471547828871
98698.831834461932885
98698.668253562791506
98698.516142483684234
98698.374526064071688
98698.238576100164209
98698.102557521109702
98697.963647433847655
98697.821127522358438
98697.676668503350811
98697.531609219542588
98697.386178014916368
98697.240665060395258
98697.097436738884426
98696.961452934454428
98696.837707783604856
98696.728283765783999
98696.631220046314411
98696.541291044020909
98696.452062473646947
98696.358418089061161
98696.257962879986735
98696.15097828314174
98696.039680315530859
98695.927916154032573
98695.820379745287937
98695.721134976891335
98695.632001717822277
98695.551843845765688
98695.477013718162198
98695.403556579505675
98695.329310054061352
98695.253990241195424
98695.17806056261179
98695.101880550195347
98695.025406605491298
98694.948734765843255
98694.873043985731783
98694.799835913669085
98694.729242356377654
98694.65933910565218
98694.586866187441046
98694.508383801570744
98694.421653427300043
98694.326612986420514
98694.225484810958733
98694.121768546770909
98694.019368153676623
98691.110275239610928
98691.022528299421538
98690.931619863607921
98690.840166795649566
98690.74975745244592
98690.660977989289677
98690.574232407307136
98690.490758336891304
98690.412786368571687
98690.34284924773965
98690.282748196594184
98690.232755010190886
98690.191270810973947
98690.155055211595027
98690.120366513423505
98690.08455960144056
98690.047234401281457
98690.010170224777539
98689.976143691543257
98689.947346783577814
98689.924326888693031
98689.905821088425
98689.889833139852271
98689.874880779971136
98689.860500190450693
98689.846924869692884
98689.834316065855091
98689.822137227005442
98689.80931715798215
98689.795186898380052
98689.780359417185537
98689.766619961548713
98689.75587817998894
98689.749170583803789
98689.7464015079604
98689.746825674257707
98689.750007106456906
98689.756587870113435
98689.768154577555833
98689.786243585665943
98689.811240161041496
98689.841808035154827
98689.875450302657555
98689.909730111132376
98689.943432250060141
98689.977099762429134
98690.0126309357438
98690.0522242084553
98690.096982367569581
98690.146097656746861
98690.197019946252112
98690.246369152257103
98690.291161091066897
98690.329692330938997
98690.36158141476335
98690.38748818806198
98690.408714495642926
98690.426769553057966
98690.443067757092649
98690.458683022618061
98690.474352401302895
98690.490815229306463
98690.509037836382049
98690.530211669582059
98690.555108904387453
98690.583319765559281
98690.612761740994756
98690.639862257536151
98690.660449313829304
98690.671240270588896
98690.671172146699973
98690.661959520846722
98690.647617324793828
98690.633155078496202
98690.623079739816603
98690.620203424943611
98690.62538503720134
98690.638151489576558
98690.657549529205426
98690.6827424740477
98690.713247017090907
98690.748668101237854
98690.788029951945646
98690.829454762846581
98690.870336866282742
98690.907993521905155
98690.940492606343469
98690.967167899972992
98690.988681807008106
98691.006669290014543
98691.023080001614289
98691.039559160431963
98691.056942293944303
98691.075228480825899
98691.093817012224463
98691.111632822983665
98691.127353754083742
98691.139615225605667
98691.147237312732614
98691.149443176240311
98691.14609655518143
98691.137824062083382
98691.125863307563122
98691.111745893576881
98691.096823180094361
98691.081937317896518
98691.067361458961386
98691.052961294466513
98691.038427339997725
98691.023420007841196
98691.007717467960902
98690.991258935740916
98690.974049918775563
98690.956069893887616
98690.937333330439287
98690.917988266650354
98690.898244573065313
98690.87831799252308
98690.858425430546049
98690.838786017688108
98690.81958794494858
98690.801098113428452
98690.783898619774845
98690.769020589767024
98690.757943344884552
98690.752373460214585
98690.753765407585888
98690.762720534781693
98690.778600524645299
98690.799468597731902
98690.822428163679433
98690.844380248439847
98690.862888200004818
98690.876981554582017
98690.887524256919278
98690.896967840817524
98690.90849927115778
98690.924950384025578
98690.947888988084742
98690.977259138569934
98691.01169460262463
98691.049209243705263
98691.088154338460299
98691.127925432156189
98691.169202299992321
98691.213644541829126
98691.263200104629504
98691.319388372241519
98691.382867527543567
98691.453370660325163
98691.529986126362928
98691.611527517263312
98691.696913548439625
98691.785255082751974
98691.875704348480213
98691.967152173063369
98692.058068926489796
98692.146616894809995
98692.231009221271961
98692.309997583259246
98692.383369457224035
98692.452172970952233
98692.518464968918124
98692.584788419582765
98692.653487361531006
98692.726106209942373
98692.803072635811986
98692.883780421048868
98692.966866267524892
98693.050646677540499
98693.133526444798918
98693.214261156055727
98693.292032716490212
98693.366399502963759
98693.437142171795131
98693.504129646578804
98693.56727351542213
98693.626587721941178
98693.682289253047202
98693.734810912646935
98693.784651992536965
98693.832217009927263
98693.877781253613648
98693.921507469232893
98693.963542359168059
98694.004203586271615
98694.04414135881234
98694.084386109912884
98694.126243820224772
98694.171035517778364
98694.21983349074435
98694.273295456820051
98694.331609467262751
98694.394545452945749
98694.461526059691096
98694.531812485613045
98694.604642027537921
98694.679307483354933
98694.755116639527841
98694.831379884970374
98694.907468509642058
98694.982922209179378
98695.05752062376996
98695.131334199439152
98695.204735311548575
98695.278354079069686
98695.352875862707151
98695.428789611163666
98695.506250184407691
98695.585071804584004
98695.664780077378964
98695.744789751057397
98695.824627132125897
98695.904187120686402
98695.983910172973992
98696.064871409369516
98696.148725147460937
98696.237528317185934
98696.333420154085616
98696.438236926100217
98696.55320059270889
98696.67881449671404
98696.814913314330624
98696.960760821049917
98697.115198395433254
98697.276968024933012
98697.444988223913242
98697.618526990729151
98697.797240031111869
98697.981123396457406
98698.17035848890373
98698.365305081606493
98698.566541185544338
98698.774736001927522
98698.990546027111122
98699.214598420774564
98699.447579902756843
98699.69027342760819
98699.943564109009458
98700.208418054520735
98700.48586777933815
98700.776909633816103
98701.082323563940008
98701.402594207393122
98701.737977919648984
98702.088641842012294
98702.454747513387701
98702.836554181194515
98703.234534134986461
98703.649357966191019
98704.081868037639651
98704.533087826828705
98705.004205906734569
98705.496593551433762
98742.438297105371021
98742.528639181691688
98741.414370444996166
98741.223806764057372
98741.15173960881657
98740.900833600171609
98740.562981392838992
98740.202623869874515
98739.793744840644649
98739.292459472897463
98738.73708454593725
98738.207247343452764
98737.703516304783989
98737.188655867808848
98736.665717984666117
98736.131401631617337
98735.540927590991487
98734.903484048802056
98734.275097546749748
98733.682083701714873
98733.110226252145367
98732.527931914359215
98731.925125988898799
98731.307467609862215
98730.679524656748981
98730.053658166041714
98729.449916171564837
98728.868004536954686
98728.295837935773307
98727.735280496694031
98727.198342000716366
98726.685969929239945
98726.187091105894069
98725.699834952887613
98725.225160545742256
98724.749453023236129
98724.26291360896721
98723.780479966284474
98723.32546020107111
98722.898785292403772
98722.483951635382255
98722.071640938491328
98721.662652228187653
98721.255560168545344
98720.846672343221144
98720.439115861503524
98720.038164403784322
98719.642904959953739
98719.251154562996817
98718.865645365323871
98718.486142462774296
98718.104335458789137
98717.714132964101736
98717.329167695759679
98716.968316645274172
98716.633222865508287
98716.309099793303176
98715.980189881825936
98715.647515421223943
98715.327040340547683
98715.035778516350547
98714.780363008743734
98714.55116651384742
98714.329590897512389
98714.09758043110196
98713.846646766396589
98713.580695350116002
98713.315713050222257
98713.071305881938315
98712.853832716602483
98712.648347560825641
98712.431231415292132
98712.19466730314889
98711.94740603856917
98711.704216698242817
98711.469437608408043
98711.234047774851206
98710.987941391329514
98710.732737148122396
98710.483473367683473
98710.254755474321428
98710.050511381195975
98709.864000762972864
98709.684350133698899
98709.501289015315706
98709.30880002513004
98709.10806028272782
98708.906601057678927
98708.712680484182783
98708.524572543858085
98708.333771765537676
98708.131048416369595
98707.914698131135083
98707.690341796405846
98707.464819744694978
98707.243830081963097
98707.031316433669417
98706.830361549087684
98706.645088127930649
98706.477348736705608
98706.321850094580441
98706.165106358894263
98705.993736114702187
98705.804598791190074
98705.6049004043889
98705.402409929796704
98705.196693024059641
98704.981372329551959
98704.753518948666169
98704.520676991189248
98704.296195268325391
98704.088194018346258
98703.893627737445058
98703.701154501133715
98703.500685762206558
98703.290591956334538
98703.076625819259789
98702.864424826126196
98702.654649896227056
98702.445423532379209
98702.237208799924701
98702.033460231454228
98701.837304499305901
98701.648788371283445
98701.465208540510503
98701.286857171377051
98701.117087224192801
98700.95974307943834
98700.814562078652671
98700.676604920183308
98700.539003965051961
98700.397837452153908
98700.254108373104827
98700.110841824338422
98699.968619600302191
98699.823555875118473
98699.670585996966111
98699.507702748946031
98699.336230499044177
98699.159550049342215
98698.982497978635365
98698.810622151228017
98698.649011565052206
98698.500274456964689
98698.363035093439976
98698.232632309678593
98698.1039595718903
98697.974379343329929
98697.844889255982707
98697.716669849702157
98697.589731242755079
98697.461166370587307
98697.328326477014343
98697.192364682108746
98697.058930427330779
98696.935082262585638
98696.824556813953677
98696.725551506446209
98696.632175776918302
98696.537742188971606
98696.438105229739449
98696.332625247741817
98696.222971547133056
98696.111897896887967
98696.002913098112913
98695.899701358852326
98695.804453839547932
98695.717327648162609
98695.636973704342381
98695.561020568507956
98695.487441668243264
98695.415510835155146
98695.345004207396414
98695.274908222621889
98695.203554486462963
98695.129549387900624
98695.052436249694438
98694.973578909528442
98694.89525761330151
98694.818848445065669
98694.743963902787073
98694.668692533101421
98694.590124538037344
98694.505762738568592
98694.414638243310037
98694.317753585492028
98694.217646779536153
98694.117966433710535
98694.022928026039153
98691.232231626781868
98691.14903436313034
98691.062059173476882
98690.973722369089955
98690.885869237841689
98690.798973267999827
98690.712777196371462
98690.627575743797934
98690.544886290910654
98690.467387166412664
98690.398114914554753
98690.339258219129988
98690.291377344881766
98690.253089050776907
98690.221272914932342
98690.192047964723315
98690.162355900829425
98690.131253684390686
98690.099991095106816
98690.07109313874389
98690.047037460128195
98690.029179126853705
98690.017299884275417
98690.009852301314822
98690.004801969524124
98690.000320245249895
98689.994841233594343
98689.986800586455502
98689.974749480083119
98689.957998203972238
98689.937466785515426
98689.915765843528789
98689.896428314619698
98689.882614854024723
98689.875881259547896
98689.875761859526392
98689.880458231797093
98689.8881810620951
98689.898334441022598
98689.911766228164197
98689.929947858152445
98689.953731417524978
98689.98255873520975
98690.014463960484136
98690.04692748998059
98690.078066870410112
98690.10755948026781
98690.136683514487231
98690.167472482964513
98690.201662183098961
98690.239874407110619
98690.281403183427756
98690.324592909295461
98690.367364826175617
98690.407710553277866
98690.444109081567149
98690.475737666420173
98690.502440066149575
98690.524641128926305
98690.543061888078228
98690.558611777189071
98690.572362347142189
98690.585612396564102
98690.599865159834735
98690.616479564661859
98690.636200109060155
98690.658658953834674
98690.682142322330037
98690.703769754763925
98690.720356258563697
98690.729590473274584
98690.730972449367982
98690.726049572229385
98690.717907289566938
98690.71019392371818
98690.706048708118033
98690.707527804435813
98690.715646117547294
98690.730688382929657
98690.752540328685427
98690.780853970718454
98690.814985688251909
98690.853734686766984
98690.895121654408285
98690.936597826046636
98690.975524648980354
98691.009767024486791
98691.038223533600103
98691.061108553636586
98691.079788936549448
98691.096330637519713
98691.112835010761046
98691.130788911017589
98691.15084975521313
98691.1728841936565
98691.196109964643256
98691.219259906123625
98691.240684982927633
98691.25854320594226
98691.271076279212139
98691.276957850845065
98691.275645545552834
98691.267563361703651
98691.254089564346941
98691.237152870351565
98691.218675873009488
98691.20015939429868
98691.182546417039703
98691.166288775013527
98691.15150789321342
98691.138101391290547
98691.125892193478649
98691.114707414177246
98691.104276186510106
98691.09420762618538
98691.084015054409974
98691.073215416297899
98691.061500673749833
98691.048817255490576
98691.03540338743187
98691.021706159343012
98691.008298152388306
98690.995892701976118
98690.985404603081406
98690.9780516714236
98690.975230729760369
98690.978237877352512
98690.987948605499696
98691.00440957857063
98691.026574067029287
98691.052307735750219
98691.078855563348043
98691.103514567977982
98691.124514062699745
98691.141642351663904
98691.156318084264058
98691.171160684985807
98691.189162803158979
98691.212680406461004
98691.242765575982048
98691.278982621894102
98691.319764167667017
98691.363259374717018
98691.408154674558318
98691.454309065302368
98691.502802293180139
98691.555458418428316
98691.614172903282451
98691.680226439901162
98691.753915339970263
98691.834626046635094
98691.921217700481066
98692.012478717035265
98692.107449696952244
98692.20548186058295
98692.305939176003449
98692.407786660391139
98692.509390742387041
98692.608677660173271
98692.703620475163916
98692.792857131367782
98692.876189586459077
98692.954806883994024
98693.031027209202875
98693.107605165132554
98693.186969221453182
98693.2705723533727
98693.358595817247988
98693.449997592440923
98693.542985847627278
98693.635659335719538
98693.726499871816486
98693.814593684059219
98693.899603463185485
98693.981624098814791
98694.06096353007888
98694.137908460470499
98694.212585937944823
98694.284999441108084
98694.355170534618082
98694.423252346619847
98694.489477340277517
98694.554048326637712
98694.617090261934209
98694.678717093149316
98694.739183514888282
98694.798957964027068
98694.858769017635495
98694.919633444456849
98694.982676582483691
98695.048903225848335
98695.119019471705542
98695.193378892858163
98695.272016258168151
98695.354754962638253
98695.441348632040899
98695.53153825487243
98695.625092731672339
98695.721713143808302
98695.820950651657768
98695.922162631439278
98696.024604616279248
98696.127599272454972
98696.230721058062045
98696.333879067999078
98696.437376247384236
98696.541792216579779
98696.647770733281504
98696.755786702866317
98696.865969542239327
98696.97803348126763
98697.091353681738838
98697.205144701831159
98697.318741061360925
98697.431861127086449
98697.544868260200019
98697.658878606103826
98697.775719020864926
98697.897619758732617
98698.026897771793301
98698.165696305557503
98698.315607246142463
98698.477405827012262
98698.650999077261076
98698.835588037938578
98699.029914876926341
98699.232534372902592
98699.442160574093577
98699.657886990433326
98699.879272325590136
98700.106312446325319
98700.339305402769241
98700.578691465576412
98700.825002724770457
98701.078825097778463
98701.340763024403714
98701.611493961740052
98701.891758236379246
98702.182382701997994
98702.4843002200505
98702.798536295609665
98703.126139533531386
98703.468061679697712
98703.825060453949845
98704.197638718716917
98704.586059131717775
98704.990393379266607
98705.410655199069879
98705.846924760757247
98706.29942148498958
98706.768567926832475
98707.255039720606874
98707.759700340320705
98708.283598228706978
98708.82792087548296
98738.680252450416447
98740.141619665329927
98740.113632283857442
98740.073193552321754
98740.050641935187741
98739.846582173719071
98739.580226591962855
98739.359464277993538
98739.101896956010023
98738.706711913415347
98738.235359230384347
98737.76762645933195
98737.282182532580919
98736.759923207340762
98736.234712647346896
98735.706928118335782
98735.146775687360787
98734.562524320819648
98733.976159546829876
98733.393335443615797
98732.822343863372225
98732.252565544316894
98731.666549987625331
98731.053502447335632
98730.42406343203038
98729.801393500805716
98729.201048273418564
98728.618968387439963
98728.055156580958283
98727.520406334879226
98727.010953250326565
98726.506641001542448
98725.997524053338566
98725.497376417115447
98725.019393196460442
98724.549763249131502
98724.073073107603705
98723.599719894467853
98723.150855195359327
98722.718760008283425
98722.282163264972041
98721.841655039446778
98721.416586849401938
98721.011457330227131
98720.609033868589904
98720.199231672217138
98719.787402327230666
98719.383744449296501
98718.995820672702393
98718.625883179949597
98718.263587983645266
98717.890804601105629
98717.501954791499884
98717.115706363430945
98716.755852522561327
98716.430497285531601
98716.126131668701419
98715.824752924061613
98715.522660649716272
98715.227926616571494
98714.953417532815365
98714.704754410005989
98714.474295303341933
98714.246598867641296
98714.010343588117394
98713.75952013785718
98713.496555473175249
98713.23207943685702
98712.982776527715032
98712.758044265181525
98712.547967600563425
98712.331126389675774
98712.094435021514073
98711.84222428733483
98711.589700501528569
98711.346198011917295
98711.108267282717861
98710.867382255513803
98710.622120112020639
98710.379646258923458
98710.149872160938685
98709.93640494500869
98709.736057484042249
98709.541453354511759
98709.346090275503229
98709.147438402389525
98708.948605956451502
98708.754944759275531
98708.56808881899633
98708.384339580312371
98708.195593305135844
98707.996762561873766
98707.786454317159951
98707.567357499385253
98707.345344028435647
98707.127639491605805
98706.918885449325899
98706.72106260266446
98706.535388083022553
98706.362690469904919
98706.198537957461667
98706.031946088609402
98705.851890697231283
98705.655981821357273
98705.451885831906111
98705.248381817393238
98705.046811596912448
98704.841578834777465
98704.629360197272035
98704.414723207941279
98704.207669411072857
98704.014075911763939
98703.829617477371357
98703.642738676004228
98703.443870752977091
98703.232553894733428
98703.016096273393487
98702.802152016651235
98702.594016004804871
98702.391072767801234
98702.1915086768131
98701.995434127748013
98701.803780017085955
98701.615930655330885
98701.431386153024505
98701.249220540383249
98701.07356956100557
98700.907619225938106
98700.752128291045665
98700.604312552910415
98700.45911956121563
98700.313466612424236
98700.168682507195626
98700.02807853910781
98699.891655142317177
98699.754185303187114
98699.608935720694717
98699.452351459491183
98699.285386038100114
98699.112203187018167
98698.938926205519238
98698.771468246282893
98698.614247515957686
98698.46955482987687
98698.336019558220869
98698.210078875272302
98698.088541876539239
98697.970330606782227
98697.856312247371534
98697.747418904182268
98697.64053495292319
98697.529884171381127
98697.410672994228662
98697.283536572751473
98697.155136606335873
98697.033885934972204
98696.924228930030949
98696.824274730010075
98696.728303571639117
98696.630605288999504
98696.528145981646958
98696.421233056229539
98696.311979588601389
98696.203052072698483
98696.097160290184547
98695.996712767795543
98695.903076583621441
98695.815858193032909
98695.733685585320927
98695.655315870171762
98695.58022243763844
98695.508491499349475
98695.440169667941518
98695.374061675393023
98695.307423396021477
98695.236995655432111
98695.160820759760099
98695.079692829560372
98694.996560051076813
98694.914628921935218
98694.835753646941157
98694.759618460913771
98694.683601755881682
98694.604181570830406
98694.518959241002449
98694.427599849674152
98694.332188151762239
98694.236427084135357
98694.144705710816197
98691.288756277426728
98691.207819954390288
98691.124981579661835
98691.042390397036797
98690.96108144284517
98690.880670217942679
98690.800156643308583
98690.719291383094969
98690.639298800175311
98690.562909636995755
98690.493621696630726
98690.434457545401528
98690.386790574935731
98690.349748086926411
98690.320452642336022
98690.295115521468688
98690.270499405494775
98690.245045342788217
98690.219389969264739
98690.195873750955798
98690.177363789523952
98690.16577883104037
98690.161180448965752
98690.161859083527816
98690.165024560687016
98690.167509773789789
98690.166324193807668
98690.158997107340838
98690.144067094734055
98690.121775569350575
98690.094430724173435
98690.066220940876519
98690.04197829675104
98690.025586990290321
98690.01884420918941
98690.021107288543135
98690.029839215014363
98690.042039924752316
98690.055792308907257
98690.070984732286888
98690.088771947062924
98690.110294454876566
98690.135645305534126
98690.163507872959599
98690.191588887755643
98690.217670823840308
98690.240687661091215
98690.26116707631445
98690.280976541063865
98690.302498184348224
98690.32788399940182
98690.358464236676809
98690.394265573529992
98690.433921701347572
98690.475060158671113
98690.514976445192588
98690.551260820473544
98690.582212417546543
98690.606993013003375
98690.625708415362169
98690.639302302472061
98690.649448595780996
98690.658226715997444
98690.667639771665563
98690.679176309262402
98690.693467532342765
98690.710075708237127
98690.727516521859798
98690.743695539465989
98690.756688535999274
98690.765423351025674
98690.770028067781823
98690.771729807296651
98690.772513022136991
98690.774374944463489
98690.778914374604938
98690.787371753292973
98690.800676120561548
98690.819629227771657
98690.844862429468776
98690.876494408395956
98690.913678446609993
98690.954538689227775
98690.996461952017853
98691.036622657469707
98691.072696684132097
98691.103392719582189
98691.128682976108394
98691.149663281510584
98691.168117316163261
98691.186058999825036
98691.205170374916634
98691.226472123555141
98691.250248644675594
98691.27617403853219
98691.303458676295122
98691.330864880408626
98691.356713005312486
98691.378984650204075
98691.395582609649864
98691.404781714241835
98691.405693798747961
98691.398567144293338
98691.384766734481673
98691.366476481634891
98691.346125371841481
98691.325835856434423
98691.307118511380395
98691.290879544278141
98691.277545341581572
98691.267233529768419
98691.2598047471256
98691.254955518554198
98691.252238848843263
98691.250978698852123
98691.250293542980216
98691.249270074607921
98691.247167565088603
98691.24360389202775
98691.238635616915417
98691.232764706932358
98691.22675811566296
98691.221580761106452
98691.218372482675477
98691.218368071553414
98691.22279584746866
98691.232693487821962
98691.248650511202868
98691.270492834941251
98691.297049955406692
98691.326317666345858
98691.355912528320914
98691.383791252446827
98691.408830768748885
98691.431189812239609
98691.452412672922947
98691.47499921223789
98691.501554862275952
98691.533954141224967
98691.572807197546354
98691.617419779693591
98691.666265715379268
98691.717749115210609
98691.770931687424309
98691.825924194927211
98691.883847792400047
98691.94636541690852
98692.015027659843327
98692.090738127706572
98692.173538381408434
98692.262757884032908
98692.357435777943465
98692.45674800206325
98692.560173473597388
98692.667365835339297
98692.777800903859315
98692.890376437469968
98693.003286341147032
98693.114280755093205
98693.221215819736244
98693.322702204357483
98693.418623607271002
98693.510240915566101
98693.599834698339691
98693.689991722771083
98693.782825020782184
98693.879399306999403
98693.979494292667368
98694.081800365282106
98694.184408733679447
98694.285431750002317
98694.383570589590818
98694.478359640692361
98694.5700430758734
98694.659288579685381
98694.746858155005611
98694.83336585892539
98694.919132897281088
98695.004187215759885
98695.088422309214366
98695.171709677786566
98695.253995124629
98695.335301180151873
98695.415758115414064
98695.495597076514969
98695.575157311992371
98695.65494714298984
98695.735625598957995
98695.817951536155306
98695.90273117920151
98695.990669511040323
98696.082257315647439
98696.177689576521516
98696.276901156030362
98696.379721063698526
98696.486040363044594
98696.595863020702382
98696.709267226542579
98696.826292946221656
98696.946787960099755
98697.070330911039491
98697.196314351705951
98697.324155699141556
98697.453506582896807
98697.584360161083168
98697.716958239892847
98697.851699929175084
98697.989022681445931
98698.129239010057063
98698.272308731044177
98698.417769470819621
98698.564822179134353
98698.71256228578568
98698.860232235514559
98699.007480814529117
98699.15460140950745
98699.302667945536086
98699.453509830345865
98699.609473792937933
98699.773051074182149
98699.946553364745341
98700.131830215570517
98700.329877851007041
98700.54072062454361
98700.763550710020354
98700.997034949250519
98701.23966170658241
98701.490050025327946
98701.747174838630599
98702.0105008847313
98702.279952809825772
98702.555783513133065
98702.838416768892785
98703.128307690043584
98703.42592856218107
98703.731880926934537
98704.046893263366655
98704.371826200847863
98704.707666701433482
98705.055511789876618
98705.416466985741863
98705.791588471343857
98706.181815568197635
98706.587863732464029
98707.010166204025154
98707.448903334981878
98707.904078318373649
98708.375626253342489
98708.863529668873525
98709.367885410276358
98709.888954730849946
98710.427168168243952
98710.983124715625308
98711.557587426083046
98712.151488922172575
98712.765940265569952
98739.929300889431033
98740.766999295388814
98740.42251277352625
98740.150084918175708
98740.003720791981323
98739.810505971123348
98739.524732120407862
98739.238756406950415