/*--------------------------------*- C++ -*----------------------------------*\
  =========                 |
  \\      /  F ield         | OpenFOAM: The Open Source CFD Toolbox
   \\    /   O peration     | Website:  https://openfoam.org
    \\  /    A nd           | Version:  12
     \\/     M anipulation  |
\*---------------------------------------------------------------------------*/
FoamFile
{
    format      ascii;
    class       volScalarField;
    location    "0.0057";
    object      pPrime2Mean;
}
// * * * * * * * * * * * * * * * * * * * * * * * * * * * * * * * * * * * * * //

dimensions      [2 -2 -4 0 0 0 0];

internalField   nonuniform List<scalar> 
75962
(
1003874.1796684265137
984491.56450653076172
975881.18315887451172
969621.09063911437988
964549.06096076965332
960008.29483795166016
955613.8294677734375
951249.45892906188965
946817.42237281799316
942338.61809349060059
937836.99197196960449
933372.98690223693848
928987.9029712677002
924645.78374099731445
920365.85896682739258
916208.64156341552734
912184.10287284851074
908273.90363121032715
904439.95798301696777
900640.08233070373535
896861.21151351928711
893124.4960823059082
889493.87588500976562
886005.24513816833496
882699.67980766296387
879618.65322875976562
876792.70441627502441
874246.67938613891602
871982.33218002319336
869963.35232734680176
868155.7357292175293
866534.03992080688477
865063.71256637573242
863698.20196723937988
862387.50071144104004
861097.08892440795898
859821.06748962402344
858560.16884803771973
857313.34136772155762
856066.91796112060547
854804.17526435852051
853511.18447113037109
852170.1838436126709
850757.22618103027344
849252.13924217224121
847642.71019554138184
845927.57316970825195
844102.12035751342773
842169.00896072387695
840123.18426322937012
837956.24666213989258
835668.1418628692627
833253.80560684204102
830714.00034332275391
828076.35267066955566
825363.63296890258789
822585.45083236694336
819751.97768211364746
816887.86563110351562
814036.30790901184082
811246.00784683227539
808553.95203018188477
805970.49609756469727
803485.52470207214355
801080.9254035949707
798738.20212364196777
796445.97469902038574
794200.44308090209961
792003.57742118835449
789848.36227607727051
787717.70265007019043
785590.17813301086426
783447.13316535949707
781280.58700942993164
779092.62421035766602
776880.97102165222168
774633.21723175048828
772337.40313339233398
769994.94582939147949
767616.50418853759766
765213.76523780822754
762799.61532211303711
760390.43930816650391
757996.98270034790039
755619.00395393371582
753253.07083511352539
750895.32611656188965
748546.67127227783203
746218.88994979858398
743930.3614673614502
741695.25093650817871
739514.52744102478027
737382.19258308410645
735294.67901992797852
733258.63263320922852
731288.74313926696777
729392.78572273254395
727561.56965255737305
725770.29956245422363
723990.20773506164551
722203.91554260253906
720413.88522148132324
718634.26974868774414
716874.9867992401123
715133.49502182006836
713400.99480438232422
711668.47073173522949
709921.8955078125
708142.58791160583496
706314.23732566833496
704429.83156585693359
702492.60858535766602
700509.74062919616699
698483.73229217529297
696408.7396411895752
694277.69673347473145
692091.84555053710938
689856.86951446533203
687571.30441284179688
685223.14748764038086
682798.79408645629883
680293.5222110748291
677717.36208343505859
675089.21121597290039
672425.81924438476562
669737.92887878417969
667035.83694458007812
664330.98517036437988
661634.35374450683594
658958.75279235839844
656318.99416542053223
653728.9511775970459
651198.24057006835938
648729.26958274841309
646317.67231559753418
643958.17294311523438
641648.91373062133789
639391.41005325317383
637189.30196380615234
635045.01120758056641
632957.31261444091797
630921.65094566345215
628931.65495491027832
626976.7835693359375
625043.34306335449219
623120.51304054260254
621204.73789405822754
619297.04993629455566
617394.63913917541504
615486.01633453369141
613552.34995079040527
611574.94265365600586
609544.28711891174316
607463.871826171875
605345.31454467773438
603199.99765396118164
601035.60041999816895
598857.73254585266113
596672.34362411499023
594482.1291561126709
592278.18656730651855
590041.68359375
587758.86489105224609
585433.38834762573242
583082.41961288452148
580721.84664535522461
578357.17469024658203
575986.02711296081543
573609.0622730255127
571236.27771377563477
568881.05460739135742
566549.83270454406738
564241.88587951660156
561957.21454811096191
559698.97394561767578
557470.1423168182373
555272.39164733886719
553107.1279239654541
550974.44048881530762
548873.23214912414551
546803.80031776428223
544770.11848068237305
542779.49100875854492
540838.65848350524902
538948.30665969848633
537100.48181915283203
535282.9016170501709
533486.89166831970215
466819.30134391784668
465234.3385124206543
463638.74591827392578
462031.19578170776367
460410.96064567565918
458779.35000991821289
457138.4365234375
455488.41838836669922
453827.99638557434082
452157.82947731018066
450482.82015800476074
448809.68743324279785
447143.02777481079102
445483.32345581054688
443827.16245269775391
442168.05620002746582
440498.19865036010742
438812.07338714599609
437109.71877288818359
435396.60177803039551
433680.38816452026367
431966.81282806396484
430256.58027458190918
428545.00625228881836
426825.81891059875488
425096.95802879333496
423362.73737144470215
421629.92770004272461
419903.06391525268555
418184.23977279663086
416476.33747482299805
414784.40281295776367
413114.6182689666748
411474.19999122619629
409872.0016975402832
408316.98710441589355
406814.3828239440918
405362.6002140045166
403952.49854469299316
402569.98923110961914
401201.65084838867188
399840.31847953796387
398487.02300071716309
397148.17725944519043
395830.65011787414551
394537.9101505279541
393268.92742919921875
392020.15318870544434
390789.15634918212891
389577.06771659851074
388387.25599098205566
387221.70739936828613
386079.08493614196777
384955.71033668518066
383847.35984230041504
382749.38809013366699
381655.94701957702637
380560.86872673034668
379460.17741394042969
378353.97378349304199
377245.6871509552002
376138.93265533447266
375034.21678924560547
373927.55174827575684
372812.02042388916016
371680.99989700317383
370530.4579029083252
369358.95705223083496
368166.00424003601074
366951.34063911437988
365715.95961570739746
364462.20561981201172
363191.74059867858887
361903.74022674560547
360595.88379669189453
359267.58162307739258
357921.90331268310547
356563.67852592468262
355195.53230285644531
353816.22837257385254
352422.5319709777832
351011.48684883117676
349580.3375244140625
348125.3674144744873
346642.18206024169922
345127.74151229858398
343582.09631538391113
342008.69084548950195
340413.69120407104492
338804.41654777526855
337187.23055076599121
335565.93371200561523
333941.64972305297852
332314.10821533203125
330683.03741264343262
329048.81348609924316
327412.04736709594727
325773.37063598632812
324134.6180419921875
322500.79790115356445
320880.28958511352539
319282.12751770019531
317712.8558349609375
316175.49533271789551
314670.15956115722656
313194.68165969848633
311745.46395492553711
310318.8592700958252
308911.94827461242676
307521.95437812805176
306145.72884178161621
304781.39410018920898
303430.8422679901123
302099.78718185424805
300794.17442512512207
299516.13798522949219
298262.94717788696289
297029.72956848144531
295813.8282585144043
294617.05598831176758
293443.57981491088867
292295.35613441467285
291169.65286064147949
290060.5102424621582
288962.14279174804688
287870.9422721862793
286784.89702987670898
285701.96627044677734
284619.4194393157959
283534.61806488037109
282446.3636302947998
281354.93489646911621
280260.35726547241211
279160.71465682983398
278052.02049827575684
276929.57182502746582
275789.11057472229004
274626.76034355163574
273438.29498863220215
272219.39285850524902
270967.49855422973633
269683.91946983337402
268374.85257720947266
267050.06636810302734
265719.52809715270996
264389.44940757751465
263060.15938758850098
261727.34935569763184
260385.36428642272949
259029.59877777099609
257656.87953567504883
256264.63916778564453
254850.79977798461914
253414.73275375366211
251958.09457397460938
250484.3808765411377
248997.42617797851562
247500.4126148223877
245996.04401397705078
244487.44912910461426
242978.91706466674805
241475.82235145568848
239983.59339714050293
238506.13434600830078
237044.69679832458496
235598.28129577636719
234165.408935546875
232745.92732810974121
231341.42654418945312
229954.16581535339355
228585.83798217773438
227237.38891792297363
225909.66066741943359
224603.94895553588867
223322.12739944458008
222066.45657539367676
220839.19678688049316
219641.93815803527832
218475.2692928314209
217339.39613723754883
216235.30533409118652
215165.01763916015625
214130.12598609924316
213129.69789886474609
212159.2927131652832
211212.11187553405762
210281.62192153930664
209363.96056175231934
208458.6266918182373
207567.27117156982422
206691.54747581481934
205831.5799732208252
204985.99191093444824
204153.02914619445801
203331.65582847595215
202521.71272659301758
201723.32973670959473
200936.48725318908691
200161.07907676696777
199397.10290145874023
198644.46130180358887
197902.52448272705078
197169.87415885925293
196444.28819274902344
195722.8160457611084
195001.87727546691895
194277.60705947875977
193546.58653259277344
192806.38516235351562
192055.20312309265137
191290.87749481201172
190510.68256759643555
189712.53630065917969
188896.72183990478516
188066.18695449829102
187224.65788650512695
186373.95747375488281
185512.7270565032959
184637.44555854797363
183744.82542610168457
182833.83557319641113
181906.42184638977051
180967.13966178894043
180022.34873199462891
179079.27934837341309
178144.88620185852051
177224.67144203186035
176321.6771297454834
175435.99655914306641
174564.98860359191895
173704.50444793701172
172850.97759246826172
172003.50912284851074
171164.61662483215332
170338.92782592773438
169530.77726173400879
168742.4851016998291
167974.4122371673584
167226.33346176147461
166498.5324764251709
165791.76836013793945
165106.6922550201416
164443.85844421386719
163804.53444862365723
163191.43814086914062
162608.38416290283203
162059.20412445068359
161546.8719482421875
161073.4438591003418
160640.45713424682617
160249.04590034484863
159899.4672794342041
159590.55860328674316
159319.48924827575684
1028731.1254959106445
1000959.0199604034424
988261.01630783081055
978874.04547882080078
971639.38692092895508
965674.80974769592285
960338.06190299987793
955295.99787139892578
950351.69162750244141
945392.24160957336426
940344.66335678100586
935249.48996734619141
930185.49709510803223
925234.90110778808594
920457.7817268371582
915902.16931533813477
911578.42393684387207
907475.70504760742188
903616.95817947387695
899957.27613258361816
896424.49749946594238
892982.27031326293945
889622.67880630493164
886342.12599945068359
883141.41366195678711
880064.34834289550781
877162.7342700958252
874466.78672218322754
872011.6637077331543
869811.26894950866699
867867.63044738769531
866159.4611873626709
864648.4666633605957
863294.39329528808594
862043.41720581054688
860849.59067153930664
859681.38394737243652
858509.47114753723145
857310.62598609924316
856066.61581420898438
854756.76072692871094
853371.0008716583252
851899.73530387878418
850339.02805709838867
848682.34986877441406
846923.78238487243652
845064.8902587890625
843106.50587463378906
841049.68301963806152
838901.42946434020996
836660.41361236572266
834314.04900360107422
831861.19818496704102
829308.61409759521484
826674.77546119689941
823971.64730262756348
821205.0585823059082
818383.30515289306641
815529.31440162658691
812685.68437957763672
809906.8013858795166
807239.1489200592041
804702.95494842529297
802287.46574592590332
799967.74155235290527
797717.94005966186523
795524.08139991760254
793380.21977806091309
791285.66714477539062
789230.59008407592773
787196.1368293762207
785153.88510322570801
783081.59889221191406
780976.18296813964844
778851.7132453918457
776714.22904777526855
774551.91776847839355
772345.47393417358398
770086.6718864440918
767781.47533798217773
765438.68948745727539
763075.46327972412109
760714.31998825073242
758369.72093391418457
756036.22157859802246
753703.38125801086426
751369.32647895812988
749042.57639503479004
746738.65474128723145
744474.45999717712402
742259.45221328735352
740088.82328224182129
737952.89115524291992
735847.10221672058105
733776.43625450134277
731755.04376983642578
729794.63617134094238
727889.4061164855957
726018.54263114929199
724156.00983047485352
722282.49529647827148
720397.69099044799805
718517.10983657836914
716653.9108943939209
714812.21409034729004
712988.66352653503418
711175.88857269287109
709360.65248680114746
707524.86447143554688
705653.45186805725098
703738.56698036193848
701778.98784637451172
699777.88090324401855
697735.96419334411621
695648.6077766418457
693515.23787307739258
691343.67074775695801
689139.76504516601562
686894.89470100402832
684589.35881805419922
682204.45168685913086
679733.91209983825684
677185.92788696289062
674578.7525691986084
671930.38765335083008
669252.03616523742676
666550.62649154663086
663834.56826019287109
661114.75695610046387
658405.55006790161133
655725.51839256286621
653094.04599952697754
650524.64073753356934
648019.05334281921387
645570.08058929443359
643171.76552581787109
640824.22762298583984
638530.9236946105957
636294.84967041015625
634117.51019096374512
631998.65871047973633
629936.92075538635254
627928.82257843017578
625962.35541725158691
624017.72457313537598
622080.14158058166504
620148.84441757202148
618231.09926414489746
616329.26716995239258
614432.3753719329834
612520.03896713256836
610571.62882804870605
608575.58254814147949
606533.55792999267578
604454.79997634887695
602347.83936882019043
600219.15933227539062
598076.60557746887207
595929.21235275268555
593779.93479156494141
591618.4633674621582
589426.84025764465332
587194.56026649475098
584926.18426322937012
582636.07483291625977
580337.58351898193359
578034.85284614562988
575723.13566207885742
573397.21115875244141
571060.81973648071289
568726.33578491210938
566405.99835968017578
564107.63233947753906
561836.695068359375
559595.9052906036377
557382.6039867401123
555192.7092113494873
553026.77833366394043
550888.93161392211914
548782.64515113830566
546710.9642162322998
544677.63385581970215
542686.11974334716797
540738.66303443908691
538834.62959861755371
536968.31437492370605
535130.29331398010254
533313.78787040710449
531518.39550971984863
468469.93525314331055
466865.89655113220215
465254.42429161071777
463634.11088562011719
462002.1158390045166
460356.55216598510742
458699.12265777587891
457033.40474510192871
455360.35493469238281
453678.05212020874023
451986.47771835327148
450290.57023811340332
448598.17694854736328
446915.38775062561035
445243.58093643188477
443578.86542892456055
441913.02725028991699
440236.3028736114502
438541.90086555480957
436829.98169898986816
435107.53362655639648
433384.16399574279785
431667.01427459716797
429957.30672264099121
428249.89813995361328
426536.63457679748535
424812.17281723022461
423077.62715148925781
421338.28272247314453
419598.96797180175781
417863.35334777832031
416136.39370918273926
414424.7887134552002
412735.86770248413086
411078.32781219482422
409463.27929306030273
407901.24464225769043
406396.24698829650879
404942.54174423217773
403526.88361549377441
402134.00824737548828
400752.28848648071289
399377.48568153381348
398012.70522117614746
396664.7331714630127
395339.38270568847656
394038.6843376159668
392760.68428230285645
391501.4819221496582
390258.51561164855957
389032.62637519836426
387827.74613761901855
386648.9359245300293
385499.52174758911133
384379.11814308166504
383283.0773983001709
382203.37419891357422
381130.3902587890625
380055.33573341369629
378972.25104331970215
377878.81797218322754
376776.07896423339844
375667.02925872802734
374554.13847351074219
373436.70802688598633
372310.24838447570801
371168.65409851074219
370007.37209701538086
368825.16657257080078
367623.18387413024902
366403.31611061096191
365167.64614295959473
363918.49711990356445
362656.96269798278809
361380.67051315307617
360084.63205146789551
358765.74407577514648
357426.13889503479004
356071.01132583618164
354703.56680107116699
353322.92518615722656
351926.36645698547363
350511.52889823913574
349075.64377403259277
347614.17155838012695
346121.87669372558594
344595.66334342956543
343036.5014476776123
341449.26491546630859
339841.54280853271484
338221.7183952331543
336596.50373840332031
334968.64006996154785
333337.16961097717285
331700.4596004486084
330059.30884170532227
328417.00130081176758
326776.52012634277344
325138.54306030273438
323502.84388542175293
321871.79760932922363
320252.01800155639648
318652.55206298828125
317081.56537437438965
315544.07137298583984
314041.15902709960938
312570.56583023071289
311128.55867958068848
309712.27452850341797
308320.21050071716309
306950.33188819885254
305598.85677337646484
304261.9771556854248
302939.21486282348633
301634.51790428161621
300353.41215896606445
299098.83341979980469
297869.28652763366699
296660.85542297363281
295471.42431831359863
294303.01899337768555
293159.7924976348877
292043.45158004760742
290950.7313117980957
289875.03149604797363
288809.83333206176758
287750.54493713378906
286693.80659103393555
285636.16736030578613
284574.2569694519043
283506.3231029510498
282433.26805686950684
281357.63303375244141
280281.16968536376953
279202.6236400604248
278117.50642585754395
277019.55584716796875
275902.4391040802002
274760.65758895874023
273589.66784286499023
272386.10075759887695
271148.60022735595703
269879.14707374572754
268583.57625389099121
267270.46045875549316
265948.13583564758301
264621.49484252929688
263290.82994842529297
261953.49073791503906
260606.54020500183105
259247.9415397644043
257875.74189376831055
256487.14974975585938
255079.20303916931152
253650.58403587341309
252202.67065620422363
250738.72021865844727
249262.1444206237793
247775.65475082397461
246281.76043701171875
244783.53787231445312
243284.9874095916748
241790.7691535949707
240305.29108047485352
238831.53783798217773
237370.55145645141602
235922.08245468139648
234485.95595359802246
233062.89917755126953
231654.32979583740234
230261.54606628417969
228885.40631484985352
227526.77459716796875
226187.07444190979004
224868.29010391235352
223572.52926063537598
222301.80062675476074
221057.98210525512695
219842.60276794433594
218656.59670639038086
217500.7288703918457
216376.37508964538574
215285.7036304473877
214230.58967781066895
213210.70466995239258
212222.30617141723633
211258.83439064025879
210313.2513427734375
209380.70537948608398
208459.95616340637207
207552.79033279418945
206661.90908050537109
205788.9079647064209
204933.55495452880859
204094.54764556884766
203270.70976066589355
202461.60976982116699
201667.28911018371582
200887.58514404296875
200121.84795761108398
199369.17168426513672
198628.70805168151855
197899.70758438110352
197181.29692649841309
196472.0253734588623
195769.19519805908203
195068.40557098388672
194364.14045715332031
193651.40963554382324
192927.12341690063477
192190.00249862670898
191439.19055557250977
190673.21148681640625
189890.62492942810059
189091.66986846923828
188278.93119812011719
187455.84673309326172
186623.98863220214844
185781.6150016784668
184924.65358924865723
184049.22233963012695
183153.97245216369629
182240.7094554901123
181313.50889778137207
180377.64404296875
179439.27169609069824
178505.54101943969727
177584.0023021697998
176680.78399467468262
175798.10393714904785
174933.0836353302002
174079.31347274780273
173230.63042640686035
172384.58863067626953
171543.55260467529297
170712.95024681091309
169898.32972717285156
169103.41053771972656
168329.99549102783203
167578.94273567199707
166850.77469253540039
166145.37920761108398
165461.53316307067871
164797.43698120117188
164152.37986373901367
163528.26669692993164
162929.71542167663574
162362.49007034301758
161831.67810821533203
161340.92852020263672
160892.79282188415527
160489.19159317016602
160131.2434139251709
159818.3484992980957
159547.30224418640137
997975.54056358337402
983264.43013191223145
976362.93991851806641
970073.85974502563477
964532.81655693054199
959601.89883995056152
955137.92448616027832
950933.59986877441406
946777.39896774291992
942496.53029823303223
938040.65597915649414
933418.73820304870605
928633.45709800720215
923779.48336029052734
918972.56889724731445
914311.53875350952148
909871.89629173278809
905697.85764503479004
901807.76330947875977
898183.32202911376953
894790.78010368347168
891576.89759826660156
888490.18346977233887
885505.82621192932129
882582.06398582458496
879728.8170223236084
876978.44615364074707
874347.97665405273438
871877.35712623596191
869614.55222511291504
867586.63718795776367
865787.19972991943359
864194.06761169433594
862768.02640914916992
861468.35380554199219
860256.26454925537109
859109.1644458770752
857997.07250785827637
856878.39709281921387
855700.34746742248535
854425.31020927429199
853045.23930931091309
851560.6085376739502
849967.32476615905762
848255.63664627075195
846414.86085510253906
844451.56078910827637
842388.13730621337891
840234.14824485778809
837989.04244232177734
835653.10725593566895
833218.83592796325684
830689.98761177062988
828086.99359893798828
825428.88404273986816
822722.09653282165527
819961.02142524719238
817149.44089698791504
814308.30207443237305
811481.66877746582031
808718.99537658691406
806059.58534812927246
803521.92691802978516
801104.11021423339844
798787.67265319824219
796548.8819522857666
794375.64599800109863
792265.63126754760742
790215.90478706359863
788213.93058013916016
786239.02709007263184
784262.33756828308105
782262.49024200439453
780235.98291206359863
778200.32063674926758
776169.18427658081055
774131.93795013427734
772063.96650123596191
769941.88006210327148
767758.11782836914062
765516.62563323974609
763237.57210540771484
760947.8577995300293
758659.92794418334961
756366.48308753967285
754055.9642219543457
751729.57817268371582
749404.59189987182617
747101.07967185974121
744831.85382461547852
742601.15208053588867
740405.53089332580566
738237.07718658447266
736091.08673286437988
733969.90288543701172
731886.37481117248535
729851.53534889221191
727860.94372367858887
725898.56276893615723
723944.16902923583984
721981.50350952148438
720009.05935859680176
718040.24316787719727
716089.84216690063477
714163.6716480255127
712259.04927825927734
710368.62028121948242
708483.78943252563477
706594.83535385131836
704690.81485366821289
702759.43583297729492
700792.23394584655762
698788.2548885345459
696747.87569046020508
694670.36248016357422
692561.24591064453125
690431.68445587158203
688284.17511177062988
686102.63012504577637
683860.02337265014648
681535.42187118530273
679122.0621223449707
676626.25103950500488
674062.9954948425293
671449.47353935241699
668797.26991271972656
666112.61385726928711
663401.36607551574707
660674.11096954345703
657947.56539726257324
655243.80900192260742
652586.32240104675293
649990.88619613647461
647458.23386001586914
644979.35648536682129
642547.60465431213379
640163.75616264343262
637832.07187461853027
635556.81153678894043
633341.05297088623047
631185.73412704467773
629090.69439506530762
627053.42638397216797
625061.60780334472656
623092.4084644317627
621128.39239120483398
619170.24494743347168
617229.80751991271973
615312.91184425354004
613410.02315902709961
611499.98752021789551
609561.47877502441406
607582.99432563781738
605565.4770336151123
603515.85968780517578
601441.05537605285645
599347.90300750732422
597244.74508285522461
595139.0221118927002
593031.24917793273926
590912.52588081359863
588771.13385772705078
586602.9525203704834
584413.38577079772949
582211.75652885437012
580004.92527770996094
577793.78031539916992
575571.9420223236084
573330.67268180847168
571068.83777236938477
568797.13419723510742
566530.88480949401855
564282.51021957397461
562058.78874969482422
559858.69908905029297
557674.14697456359863
555498.35116958618164
553334.06303024291992
551191.50905609130859
549080.92058372497559
547008.80991172790527
544976.96831703186035
542981.8287353515625
541017.74885368347168
539081.87931632995605
537173.42627143859863
535290.47952651977539
533431.17243957519531
531596.65255737304688
468619.95516014099121
466987.21647644042969
465349.33677291870117
463702.5677375793457
462041.8117618560791
460365.13548469543457
458676.64664840698242
456982.54461669921875
455284.88674354553223
453581.31181907653809
451870.46105194091797
450155.68475914001465
448443.61437034606934
446740.61941909790039
445049.43362998962402
443366.96059608459473
441684.67836761474609
439992.5102367401123
438283.98940849304199
436559.56937599182129
434826.38017463684082
433094.39196586608887
431371.7460880279541
429661.08767700195312
427958.00212097167969
426253.09774017333984
424538.09721565246582
422810.83352470397949
421074.33592796325684
419332.7871150970459
417590.71429824829102
415854.86258125305176
414133.88970565795898
412436.56550216674805
410772.3199577331543
409152.22598648071289
407585.55113410949707
406073.40494728088379
404606.5260181427002
403169.92038726806641
401750.30959320068359
400340.94293594360352
398941.97940254211426
397558.02967834472656
396194.79718589782715
394855.94584846496582
393541.22729873657227
392247.37974166870117
390971.0163516998291
389711.2437915802002
388470.16305160522461
387252.18834114074707
386063.31293296813965
384909.20715522766113
383791.16675758361816
382703.37956047058105
381634.81289291381836
380574.02596282958984
379511.97337913513184
378441.65983963012695
377357.9904899597168
376259.51667213439941
375149.14023971557617
374031.43315124511719
372908.18210029602051
371776.16206932067871
370629.08354377746582
369461.71598243713379
368272.77423095703125
367064.62802696228027
365841.04067611694336
364605.74447822570801
363361.81391716003418
362109.93798828125
360846.15764617919922
359563.12530326843262
358255.50514793395996
356924.04351615905762
355573.4451847076416
354206.91732597351074
352823.96256065368652
351422.67507362365723
350001.9176082611084
348560.08661270141602
347093.01930046081543
345595.24556159973145
344063.59606170654297
342499.53618431091309
340908.72287559509277
339299.12562370300293
337678.91250610351562
336053.99056816101074
334425.94737243652344
332792.66914939880371
331152.14521026611328
329506.27480697631836
327860.74709701538086
326221.06160163879395
324588.98743629455566
322963.23006820678711
321343.42401885986328
319733.23993492126465
318140.13216781616211
316572.62625503540039
315037.13215065002441
313535.82053565979004
312067.01287078857422
310627.84135627746582
309216.85486030578613
307833.87711715698242
306477.68802642822266
305144.62693214416504
303830.52549743652344
302534.09830474853516
301258.00948905944824
300006.65409469604492
298782.47200584411621
297584.16210174560547
296408.33095169067383
295253.13002967834473
294120.16721534729004
293012.40871238708496
291930.23406028747559
290869.80150032043457
289824.78824234008789
288789.0601634979248
287757.42512130737305
286724.77038383483887
285685.92508125305176
284637.26443862915039
283578.735595703125
282513.94818687438965
281447.95160865783691
280384.0188045501709
279321.46373176574707
278255.38825988769531
277178.07783699035645
276081.21892547607422
274957.92596244812012
273803.58720207214355
272615.80638313293457
271394.44907569885254
270142.12169075012207
268864.3464183807373
267568.22751808166504
266259.82394027709961
264941.99300193786621
263614.44853019714355
262275.8187198638916
260925.59636306762695
259564.08844566345215
258190.78915596008301
256803.5393009185791
255399.73674964904785
253978.58939933776855
252542.01757049560547
251093.20503425598145
249634.5899543762207
248167.49947166442871
246693.24654197692871
245214.18557739257812
243733.73115539550781
242255.69208145141602
240783.45758438110352
239319.31200218200684
237864.21831893920898
236418.46590042114258
234982.53666305541992
233557.50788688659668
232144.73493766784668
230745.45087242126465
229360.75698852539062
227991.9874324798584
226640.9488525390625
225309.7337818145752
224000.2839298248291
222714.19173240661621
221452.74213981628418
220217.04048728942871
219008.22667694091797
217827.70881271362305
216677.40179443359375
215559.68018341064453
214476.58255195617676
213428.55898094177246
212413.32094383239746
211425.75084686279297
210459.37556838989258
209508.85124015808105
208571.94009780883789
207649.73649978637695
206745.04542922973633
205860.10300827026367
204995.32027053833008
204149.60438346862793
203321.7424430847168
202511.37380027770996
201718.62260246276855
200943.10365867614746
200183.42248153686523
199437.61927032470703
198704.04302978515625
197981.90925979614258
197271.12788009643555
196571.28615951538086
195880.28811454772949
195193.5451717376709
194504.76352500915527
193808.08208656311035
193100.02128601074219
192379.48337364196777
191646.04190635681152
190898.46212959289551
190135.19566917419434
189356.18300628662109
188563.6867504119873
187760.90327835083008
186949.27154350280762
186126.82711791992188
185288.98464012145996
184431.30217552185059
183552.16609954833984
182653.61429977416992
181739.99730110168457
180816.12729454040527
179886.86510276794434
178958.30284118652344
178038.5214900970459
177135.90696144104004
176255.37861633300781
175395.5467586517334
174549.58234024047852
173709.54018974304199
172871.11769866943359
172035.5147819519043
171207.78964614868164
170393.65298652648926
169597.20135688781738
168820.65957450866699
168065.36978721618652
167332.60819625854492
166623.22286224365234
165936.79761505126953
165271.68703269958496
164626.39828681945801
164001.43750190734863
163400.07335662841797
162827.2911548614502
162287.8874340057373
161785.27628517150879
161321.81023597717285
160899.84530067443848
160522.10498428344727
160190.58461570739746
159904.70507621765137
159660.16037559509277
1016139.0858325958252
992632.24338722229004
981548.35211181640625
972599.61745452880859
964999.61956787109375
958473.03805923461914
952870.51618766784668
947975.82232666015625
943506.64397430419922
939192.54276084899902