/*--------------------------------*- C++ -*----------------------------------*\
  =========                 |
  \\      /  F ield         | OpenFOAM: The Open Source CFD Toolbox
   \\    /   O peration     | Website:  https://openfoam.org
    \\  /    A nd           | Version:  12
     \\/     M anipulation  |
\*---------------------------------------------------------------------------*/
FoamFile
{
    format      ascii;
    class       volScalarField;
    location    "0.0057";
    object      rho_0;
}
// * * * * * * * * * * * * * * * * * * * * * * * * * * * * * * * * * * * * * //

dimensions      [1 -3 0 0 0 0 0];

internalField   nonuniform List<scalar> 
75962
(
1.1460261198962784501
1.1444076629556589886
1.1426105802606592032
1.1421629396351633545
1.1431650603841871927
1.1440743543807083693
1.1448421494265292875
1.1457461844629304171
1.1452404098201949267
1.1440613694717280957
1.1431851951253531041
1.1428867175368475628
1.143244873429893449
1.1435132161828065467
1.1432575459065685841
1.143239914616172026
1.143788282080255625
1.1441299470887935641
1.143752384899341612
1.1432882414730993759
1.1435583411555916289
1.144404381591954234
1.1451168927471340186
1.1454300609520711163
1.1453913699068849485
1.1448491731435146423
1.1439161306490142067
1.1432098213898531647
1.1430868988485569648
1.1432351741734740891
1.1432027875612222889
1.1429384022866271309
1.1426358816984016897
1.1423557156068788743
1.1421193171665007249
1.1420352200737238224
1.1421348534606587943
1.1423563396486289268
1.1426072368677111513
1.142792107567219162
1.1428937504716423224
1.1429028558741927135
1.1428321961444471988
1.1427097733345292774
1.1425626454993307313
1.1424954136677272221
1.1426774358468032577
1.1431867878909405256
1.143776991352861927
1.1440606499312191424
1.1439435056135773827
1.1436183004072637548
1.1432803214008269155
1.1430395404710054219
1.1431414717855268304
1.1437568674447835537
1.1446607691950936303
1.1452559461311224709
1.1451708327614065208
1.144467206212406829
1.1435744841045831777
1.1429372696180126745
1.1428465693845522022
1.1432270316114490072
1.1437581420078521965
1.1440687570493233149
1.1439012492809093047
1.1432663077381781669
1.1425134493929141044
1.1421329948145912958
1.1423652701335271775
1.1430060822154519684
1.1435933669829050352
1.1438368738918174294
1.1437937153441071203
1.1437453689366872123
1.1438786793619304394
1.1440895630400702565
1.1441071482673363935
1.1438041242890271132
1.1432704216348661408
1.1426897725748961232
1.1422006312065957623
1.1418948680404550355
1.1418379552489270612
1.1419933887450519627
1.1421703264586919868
1.1421866898361712206
1.1420623338750552911
1.1419624390295268768
1.1420118187001513377
1.1421870842791816969
1.142397390708104421
1.1425840770505868438
1.1427245400663073038
1.1427533497874260426
1.1425639846339572525
1.1420801899090260445
1.141352591670899308
1.1405572189319064247
1.1399027164701633907
1.1395275783888778598
1.1394246865771378019
1.1395046420442183077
1.139721280894791855
1.1401276738291559187
1.1407618103551921962
1.1415518745939186029
1.1422802370903966107
1.1427110289007298416
1.1427556622666741326
1.1425082055385247237
1.142140600953619245
1.1417663163828632999
1.1413985179605550258
1.1410407453457100946
1.1407822414851451764
1.1407675392668612524
1.1410498672405589016
1.1415292786987529805
1.1420237546698950304
1.1423899925684941614
1.142584943154296262
1.142611672041648152
1.1424554362618792869
1.1420999555910198442
1.1415706617206657913
1.1409882768622690019
1.1405078883002335299
1.1402543618628939726
1.1402668024999236263
1.1405127439744080498
1.1409473329901980154
1.1415574727417030498
1.142346052073683893
1.1432895042167041666
1.1443162463687526209
1.1453370525906882982
1.1462898404145924758
1.1471378923800268357
1.1478466785842449394
1.1483840548937791493
1.1487503216385437366
1.1489919269187605089
1.149183908294695744
1.1493907000031073906
1.1496106094853892898
1.1498132806709064901
1.1499718585062415066
1.1500679965379263514
1.1501249894544982588
1.1501533883748291665
1.1501370007647766514
1.1500409140871499236
1.1498509435967383396
1.1496027684960905546
1.1493736354470016625
1.1492449246961360387
1.1492627346454684645
1.1494147793726068318
1.1496498380000510497
1.1499087697871963609
1.1501434695124659324
1.1503166626514993442
1.1504012882413983121
1.1503882385208634709
1.1502984833025968747
1.150178213281637829
1.1500791882309688852
1.1500297580537124364
1.1500212221753509656
1.1500266417718980616
1.1500286027213759699
1.1500274959193292901
1.1500311231381425969
1.1500402060326535558
1.1500405585510593554
1.150019338303689409
1.1499807161005568545
1.149950561200765442
1.1499597011047308914
1.1500248035534963442
1.1501359751502222561
1.1502645943424907315
1.1503772250584869408
1.1504475405576506386
1.1504617692590932698
1.1504138460057573567
1.1499212682683452869
1.1500535232724287127
1.1501450470839582607
1.1502045054281875291
1.1502460350334964279
1.1502743854768595622
1.1502804060857103607
1.1502505048808837618
1.1501796480366848208
1.1500790471980957275
1.1499753227750755258
1.1499021479164732717
1.1498890234558927226
1.1499490790331603485
1.1500690178962424959
1.1502106771807769636
1.1503269204685615534
1.1503829011406072613
1.1503724903028567095
1.1503194238230409763
1.150261350568574148
1.1502261739407728669
1.1502187651658259959
1.1502251772611646885
1.15023025093156539
1.1502324316051992792
1.1502428739416399317
1.1502731380550796914
1.1503208076960507178
1.1503654561774825371
1.1503801113281777457
1.1503497945962262161
1.1502824203785004809
1.1502024595280193608
1.150133740755428402
1.1500822056589719011
1.1500330113992354164
1.1499640002462905297
1.1498655583373713629
1.1497505021703706696
1.1496490033923429941
1.1495909290455879059
1.1495866235584852877
1.1496184363564589948
1.1496497004272245857
1.1496459702961048244
1.1495935181051617491
1.1495058198625713874
1.149416087073250381
1.1493608222166662447
1.1493624916428577531
1.1494213035659075484
1.1495179720839276971
1.1496258115312194548
1.1497223962902758387
1.1497951029971364978
1.1498426609736080994
1.1498716664303296753
1.1498911188929299421
1.1499065946523061577
1.1499155365170341536
1.1499080019395662156
1.1498731188012154547
1.1498087579913269796
1.1497286714472254587
1.1496626788794686025
1.1496483687711622768
1.1497143331651975551
1.1498634855849561021
1.1500670345041585918
1.1502730093747162154
1.1504257893361633514
1.1504869035904361496
1.1504478935769677506
1.1503302128029775364
1.1501716454654591359
1.1500076047646212718
1.149858915045156138
1.1497305329657980799
1.149618666144244683
1.1495206122111563118
1.1494423553272079541
1.1493980067387310484
1.1494018468092588314
1.1494583453874662737
1.1495567936130464126
1.1496725103736067375
1.1497745636052538742
1.1498365271359003437
1.1498446185656652219
1.1497999949095638605
1.1497174013743456378
1.1496179110947908342
1.1495204474154507857
1.1494392849263086465
1.149384410202142659
1.1493606622509451309
1.1493661877147132166
1.1493919832599810427
1.1494230887551917242
1.1494418662995768976
1.1494337330907073991
1.1493923693709036105
1.1493220750855741574
1.1492356436400186226
1.1491490425672554743
1.1490750810621983558
1.1490194061007212856
1.1489804356841923916
1.1489527801042105359
1.1489314002335928588
1.1489144806953821565
1.1489032995425767503
1.1488999193762663431
1.1489048715350183016
1.1489164038342869478
1.148930993679667889
1.1489448451427799469
1.1489552218684035978
1.1489610137277366242
1.1489612723680227013
1.1489533717126889645
1.1489317405504988479
1.1488887468723902874
1.1488180936336442883
1.1487195646655214976
1.1486035985310714125
1.148491338014041796
1.1484103463734431916
1.1483867621668508718
1.1484356812694747063
1.148553556460704117
1.1487162604891274498
1.1488843361587399716
1.1490160543922725012
1.1490824653743778594
1.1490767926769698271
1.1490153915017466968
1.1489300072131520825
1.1488543760642779823
1.1488114619380782599
1.1488057440986714219
1.1488236518836423272
1.1488415061767440761
1.1488369991971001394
1.1487985807600149535
1.1487294308887419092
1.1486442915950381138
1.1485617182354286303
1.1484959238077656618
1.1484520520463170623
1.1484268738999916515
1.1484137028734395791
1.1484085355536568507
1.1484142387743307978
1.1484399526447888196
1.1484963059394019957
1.1485887985078371276
1.148712399346873525
1.1488488003126862136
1.1489699196990172947
1.1490471912825706013
1.1490613061231653713
1.1490075569765172414
1.1488966726124896223
1.1487517147282009233
1.1486007011061982741
1.1484676217000853171
1.1483665981711739246
1.1483019265805549658
1.1482708176966160973
1.1482668539966662813
1.1482825165824748215
1.1483112884758006622
1.1483483702333758814
1.1483892500249626156
1.1484277628938788229
1.148455775954808189
1.148465560738896496
1.148453519637442799
1.1484221200965580856
1.1483785900484773101
1.148330963521304815
1.1482843305683441137
1.1482386572656519963
1.148188803675914027
1.1481267243940775913
1.1480452191462722222
1.1479406044355133787
1.1478136651279136071
1.1476690874363544292
1.1475138392687795896
1.1473549945457039989
1.1471984197274835982
1.147048486393362321
1.1469088664794868659
1.1467837572329913076
1.1466785368321039673
1.1465984396981014903
1.1465471691090023398
1.1465256629417872603
1.1465311526798163122
1.1465566804993185812
1.1465924647702625538
1.1466288416615100232
1.1466592851118295737
1.1466816491720022153
1.1466984899802517006
1.1467167127510391467
1.1467453663212159309
1.1467919442775609262
1.1468586844253843005
1.1469407717419315418
1.1470272631759008686
1.1471036460699439719
1.147155717123840013
1.1471727471102048934
1.1471502588762227948
1.1470911525592637492
1.1470048688329508302
1.1469054071636675118
1.1468081989281555533
1.1467261378472473066
1.1466672318884416626
1.146635011157097539
1.1466295205667276225
1.146647442906341352
1.1466831047024201862
1.1467299917530677789
1.1467820361455096645
1.1468350224348888844
1.1468876090593149719
1.1469408091272847994
1.1469959265177467334
1.1470524713556111696
1.1471081685546293816
1.1471599967103758289
1.1472046872629495518
1.1472391292748258529
1.147261897037178846
1.1472739868446342193
1.1472790881382044503
1.1472828336271905236
1.1472918885504401754
1.1473123265075155786
1.1473474815319466558
1.147396842243356696
1.1474569347117340445
1.1475226920884180615
1.1475874612123371232
1.1476443425980906721
1.1476869259086814878
1.1477095026360619734
1.1477084190936954755
1.1445787857867815163
1.1451275372426350518
1.1462183240875212231
1.146193039375011713
1.1457564724668167777
1.1458836323311489824
1.1460928693427441249
1.146112762421324538
1.1460338340993174722
1.1456996383855042598
1.1447796129562373135
1.1440073634874212694
1.1441070296371154136
1.1443502902106796881
1.1441359354023508121
1.144237105865452353
1.1446754282559208349
1.1445583737466622498
1.1438606306349907715
1.1434012400797592957
1.1437148831371595215
1.1445975597932154244
1.145428105734166202
1.1458704245672053368
1.1458229308118699219
1.1452709867293198176
1.1445738874623236914
1.1441801528469719429
1.1440909257882103667
1.1440329277266270136
1.1439127893643383782
1.1437580909585687294
1.1434575642948761054
1.1428660914079609157
1.1423010497441432598
1.1421390199155960765
1.1423003370506243925
1.1425017862419883929
1.1427447010925375626
1.1431291441788169472
1.1435016290082111734
1.1435600117272235465
1.1432942981490361589
1.1429794644672783832
1.1428140846511554152
1.1428575931886058026
1.1431421788666231709
1.1436208117583581689
1.144039337742114526
1.1441499068076956824
1.1440132127862903122
1.1438180901420180735
1.143608654224975929
1.1433995298369958871
1.1434224984062892894
1.1438346414486371128
1.1444862033041924843
1.1449637307419067156
1.1448694872469753481
1.1442007431725764732
1.1433097084032137758
1.1427000050830578015
1.1426886397190796352
1.1432311024034760294
1.1439461863028677069
1.1443920446798738766
1.1442704217996932936
1.1435908284209490571
1.1427398566340678521
1.1422631927293620535
1.1424724267743575634
1.1431809505988821396
1.14389060120549102
1.1442062246704687301
1.1441137369023377524
1.143898984063138391
1.1438307883329241754
1.1438975841212031259
1.1438723710197122863
1.1436126579312049234
1.1431557673725705193
1.1426445895194501379
1.1422174760925740689
1.1419690396356230178
1.1419163354350276851
1.141992906727036905
1.1420681337760287821
1.1420358654726079362
1.1419383308085107043
1.1418943456345076459
1.1419738527993126276
1.1421391751162996986
1.1423028199532052618
1.1424200440346159446
1.1424732765098295495
1.1424266559930762455
1.1422226894544285081
1.1418068062721267175
1.1411904702515669463
1.1405089623487059125
1.1399653133737503996
1.1396995394858049355
1.1396846078195430607
1.1397750390140859444
1.1399020478339925155
1.1401354785560922078
1.1405981650667964544
1.1412617165992491319
1.1419323386791315755
1.1423583198102447156
1.1424286346392751312
1.1422251925418009932
1.1419212308438546621
1.1416330390705757836
1.1413703269328998591
1.141111223904339278
1.1409034062145575472
1.140863080013558184
1.1410605339426618254
1.1414512014612581137
1.1418954584078380154
1.1422662623439845397
1.1424986880003678014
1.14257203858979417
1.1424610490331228441
1.1421248600700331099
1.1415779652323458926
1.1409445524926025151
1.1404045583055935076
1.1401044298386622255
1.1400978631033018562
1.1403423528548621846
1.1407733888538007516
1.1413747151860247353
1.1421680097497368678
1.1431503188261427084
1.1442502994449932352
1.1453593728930802076
1.1463843821700263614
1.1472663110555778587
1.1479656192556517702
1.1484640097135541126
1.1487829032280685304
1.1489891393454230162
1.1491625399794520579
1.149354322354705582
1.1495576867222003781
1.1497263964669885983
1.1498349522601194472
1.1498913517744491219
1.1499445298048489583
1.1500249128300046308
1.1500956437196716564
1.1500847797978821507
1.1499455811113477033
1.1497070786516625507
1.1494650059978057666
1.1493190154467791686
1.1493162572154151935
1.1494388501033079297
1.1496284469322930466
1.1498296747176393051
1.1500045798481468573
1.1501317474541816743
1.1501987802570807773
1.1502040253327923125
1.1501653942295602118
1.1501090202663630802
1.1500550493818297859
1.1500099260667986378
1.1499675312587149811
1.1499213506898744441
1.1498824162304592811
1.1498734792710196828
1.1499061792369951185
1.1499684085094703523
1.1500292708275861031
1.150058567841375945
1.1500475529803901864
1.1500143449198898526
1.1499899731688447702
1.1499992998305570424
1.1500483432064436684
1.1501251302565158596
1.15020621633066078
1.1502649572449517024
1.1502794628726766835
1.1502330793134640796
1.1501187225459406083
1.1496268334017880619
1.1497630477955627093
1.1498639688709562101
1.1499310426247590922
1.1499829658949820566
1.1500354229572966602
1.1500865386912781929
1.1501190975646442549
1.1501123037970084617
1.1500552099966694364
1.1499572490932663538
1.1498466152890116643
1.1497602779127169548
1.1497326403265410999
1.1497819117630529995
1.1498991339396287259
1.1500489191786644749
1.1501829498159796827
1.150260869918993567
1.1502678940917050454
1.1502198752056116415
1.1501513495641415563
1.1500956975585339137
1.1500712227915514951
1.1500809665487248257
1.1501219127819890531
1.1501928816119686427
1.1502929590497832368
1.1504127359362676941
1.1505277858367723987
1.1506018157397244206
1.1506036803391528345
1.1505258181219311098
1.1503915943102680508
1.1502438882511014651
1.1501225657445148798
1.1500444656615738115
1.1499973347884044905
1.1499522189184570031
1.1498861685158492385
1.1497984824138611781
1.1497111575634959557
1.149654904652086973
1.1496488944118097297
1.1496877207433615631
1.1497439353866480971
1.1497836162257846215
1.1497834208779966758
1.14973951763911586
1.1496664741554576405
1.1495886272909752179
1.14952876978621088
1.1495000810629631971
1.1495038458026036743
1.1495340115230332501
1.1495820413814157313
1.149640810941427338
1.1497046774945356429
1.1497692148158085157
1.1498305519248195328
1.1498832408419916717
1.1499191146123799445
1.1499291716868069724
1.1499080176915934537
1.1498593839514954507
1.1497993481627959422
1.1497546790657655613
1.1497536247701489742
1.1498140049109430993
1.1499332634536305608
1.1500869464447616153
1.1502367041806103032
1.1503445767581030879
1.1503868084789867776
1.1503600602326822244
1.1502778075259021406
1.1501606783188180749
1.150027237853726847
1.1498903411630374549
1.1497584442995703036
1.1496394974297692304
1.1495452803844956602
1.1494904801098764224
1.1494870765872871043
1.1495384978572933399
1.1496355248588736586
1.1497556002384821117
1.1498695927053688148
1.1499494592195780296
1.1499752615547065293
1.1499402223844605864
1.1498518866111711034
1.1497275752457090103
1.1495883576190886188
1.1494551367753038651
1.1493461118028918122
1.1492748708703077742
1.14924860794838124
1.1492667141993868629
1.1493198434159881405
1.1493905051119961414
1.1494563411821305809
1.1494963999034220059
1.149497448510107489
1.1494577615986298902
1.1493860619822173774
1.149296354784843377
1.1492019981337897594
1.1491114625491882784
1.149027929233758627
1.148952030636824162
1.1488846482301351415
1.1488283951056299514
1.1487875668310529864
1.1487657095853038847
1.1487632837563537258
1.1487765765761916992
1.1487983304885580615
1.1488198000750391436
1.1488331857359992405
1.148833714762599989
1.14881935422114001
1.148789005954528708
1.1487405152906575712
1.1486706814945006894
1.1485787710254518057
1.1484698395675958515
1.1483566518435406323
1.1482593322638230404
1.1482010503404420643
1.1482010150023218564
1.1482666834568096004
1.148388006962956176
1.1485376764554433571
1.1486787143823762314
1.1487763530545391788
1.1488100166180224004
1.1487803277895791698
1.1487077069016631281
1.1486235555046933055
1.1485573627332419377
1.1485252147665321321
1.1485248334132684978
1.1485383155231239094
1.148541407640425227
1.1485151861127540496
1.1484541455019772194
1.1483674936791881116
1.148274025101462481
1.1481933453826762559
1.1481376342990039507
1.1481079313917321727
1.1480963685297165267
1.1480930635944834872
1.1480933854685100304
1.1481018758892866938
1.1481311484618310637
1.1481949948457732535
1.1482998834409618993
1.1484394279417295959
1.1485928416465345236
1.148728663604690059
1.1488151891947460115
1.1488325832204246968
1.1487797159955484005
1.1486730144486225758
1.1485402614221575934
1.1484121319219293689
1.1483129326694472283
1.1482540876322249179
1.1482338897875183914
1.1482424050870541077
1.1482675246119142809
1.14829945322806104
1.1483321149898353397
1.1483632103465239993
1.1483924546277082257
1.1484190991388862901
1.148440181975408203
1.1484507331671682806
1.1484463398577982041
1.148425654000724272
1.1483915414139178601
1.1483488228887688276
1.1483007971003738046
1.1482477503797698937
1.1481869907328967617
1.1481142051092292355
1.1480259076309480282
1.1479217354274544594
1.1478045138141870218
1.1476789453058466872
1.1475493679296950855
1.1474185075004881273
1.1472870892979727397
1.1471550056743453627
1.1470230382928441326
1.1468950476962165297
1.1467784045509652469
1.1466824915868991663
1.1466152778888070163
1.146580446912142337
1.1465759467336138488
1.1465943648673864175
1.1466252297138213034
1.1466576883546530929
1.1466838782494264137
1.1467015038670655969
1.1467139914457817884
1.1467287900649356658
1.1467549723596803801
1.1468006097522813747
1.1468690931014207113
1.1469569267109325228
1.1470533106361433529
1.1471422694084913996
1.1472072533753883139
1.1472353222575226717
1.1472200074075526999
1.1471628638380788612
1.1470731627944874553
1.1469659065164683476
1.14685851991077703
1.1467677058741707619
1.1467052495548739621
1.146675986615047993
1.1466786398986055229
1.1467076640999416259
1.1467548292626323914
1.1468114412210870245
1.1468703205180759142
1.1469269670330421995
1.1469800173601354398
1.1470305681249990393
1.1470810996726450437
1.147133062807166759
1.1471855707327289764
1.1472348702650654317
1.1472758807057199526
1.1473042371172494924
1.1473179264552608725
1.1473181969674426384
1.1473095166895752595
1.1472987662869582604
1.1472938671737922256
1.1473020101770448065
1.1473282833538500647
1.1473741709648486164
1.1474374597480365701
1.1475133062923137395
1.1475944855811164302
1.1476725510157106402
1.1477396456748023557
1.1477893147906592652
1.1478166257172275344
1.1458396944732474054
1.1462324815029620861
1.1478479823256599879
1.1488914125395601751
1.1489925722761964444
1.1487623576381342794
1.1478577645332372903
1.1468766382939863391
1.1469031001075753462
1.14689529961755321
1.1459200785170933212
1.1452058197238117465
1.1454199301822227675
1.1456660757582697308
1.1454264256495205743
1.1452146546357757639
1.1449694107940808774
1.1444188248441169442
1.1440031300001114456
1.1438786640473734835
1.1441391193138596982
1.1448514329602441641
1.1457831237701885385
1.1464313014468490159
1.1464305802719612082
1.1458385259844354742
1.145152215179979116
1.1447020971399344269
1.1444192905001997485
1.1442591447503811519
1.1443022593566556377
1.1444129424196312073
1.1441794725265455046
1.143439444759007273
1.1427012840071344435
1.1424789045476444471
1.1426905404768750163
1.1429485531227143724
1.1432797376362648922
1.1438464391665554842
1.1443374643772987742
1.1443101359249450155
1.1438169284693082695
1.1433691098344251902
1.1432689888674645307
1.1434443504652360701
1.1437320197342968342
1.1440156086882542485
1.1441578511089991466
1.1441314587970832228
1.1440396645894208572
1.143942198016414169
1.143777731390189123
1.1435647029021853704
1.1434857663955604323
1.1437177854582425418
1.1441933979297704838
1.1445179727963439298
1.1443831383353908482
1.1437967241675270902
1.143078658910692047
1.1426861508873220608
1.1428699057906996917
1.1434985373482760007
1.1441919229348902487
1.1445654438708297018
1.1444140251714085554
1.1437849488197360248
1.1430039464294163842
1.1425380998047169889
1.1427006469233198516
1.1433631455152182266
1.144078674444830801
1.1444070506940524634
1.1442603201531811319
1.1439046539184580809
1.143649039672910428
1.1435919466198041228
1.1435923856336589477
1.1434852459834869975
1.1432162878670169004
1.1428423558759739365
1.1424779070813211312
1.1422091433408942951
1.1420613630730336308
1.142000161237329392
1.1419597723632879394
1.1418989263568573023
1.1418377758478941431
1.1418198481906407515
1.1418563563155357254
1.1419345781919740812
1.1420429769211741799
1.1421419704105650883
1.1421773443941320991
1.142107140596125392
1.1419005922701503941
1.141548412298734938
1.1410601812830984958
1.1405269838693343765
1.1401137639269542934
1.1399365289824783254
1.1399503394117536104
1.1400118383650219567
1.1400533192163182505
1.1401528517345691505
1.1404559801394422713
1.1409680126480528095
1.1415228299311359628
1.1418977291219076786
1.1419867416167397423
1.1418532463864321524
1.1416506697608916898
1.1414816587291731764
1.1413428540004801892
1.1411910227311843347
1.1410414131075024002
1.1409829565285232178
1.1411035418030737176
1.141402908031397212
1.1417951336050600197
1.1421575703801158941
1.142400216696837667
1.1424792628484983226
1.1423747903844059248
1.1420579753669550804
1.1415721984087581209
1.1410310533076515327
1.1405687470425345253
1.1403143470429162321
1.1403167665402982323
1.140532778120337376
1.1409074845292195288
1.1414426933955126309
1.1421834273273554494
1.1431502900768231168
1.1442827347429753715
1.1454589775789274508
1.146559122060975433
1.1474987981290325489
1.1482313665871670683
1.1487473431267021251
1.1490722404830466807
1.1492675943053833887
1.1494039640677904401
1.1495183269186350916
1.149611839685834358
1.1496655807319260401
1.149668555395709113
1.1496688027713346525
1.1497253068032440293
1.1498561840577699034
1.1500019818292406271
1.1500627092054760414
1.1499740465825143421
1.1497659663087209658
1.1495459576997340001
1.1494191512301610292
1.1494252687995656359
1.1495350216016471112
1.1496883080056783388
1.1498354991823251936
1.1499499780001491978
1.1500203121583834065
1.1500501726875074215
1.1500444158319562682
1.1500179950286226749
1.1499887584277208585
1.1499589616846646045
1.1499206910898647216
1.1498691385652370922
1.1498083405339980523
1.1497585111540680192
1.1497521864558093441
1.1498116865376890594
1.1499244605883494064
1.1500471587810301433
1.1501280537068285792
1.1501384362023352459
1.1500842268330557783
1.1499992284213049754
1.14992664164399927
1.1499006990043929566
1.1499271037395975004
1.1499858285157296134
1.1500419442023392946
1.150062142584293623
1.1500225739082161613
1.1499116331672609714
1.1494087102858792093
1.1495188864935579343
1.1495932876656378419
1.1496414552550646704
1.1496899241447879891
1.1497582444760934273
1.1498429742597797709
1.1499206376982384903
1.1499610806889242198
1.1499444891092280852
1.1498727285331695747
1.1497699707208848263
1.1496764404339421262
1.1496334873939026977
1.1496653757170181009
1.1497690448965676158
1.1499135941829805585
1.1500513614188088152
1.1501392732582957912
1.150158101274853184
1.1501184248778604235
1.1500520530820210752
1.1499959686044014529
1.1499783025612120291
1.150013402789948902
1.1501041768095856543
1.1502448250069658986
1.1504211773824017939
1.1506057742948674338
1.1507577127400332451
1.1508331388515000704
1.1508042723760263382
1.1506748022633246364
1.1504802517310559473
1.150274485604155128
1.1501056123097062045
1.1499975891273188644
1.1499435039012735338
1.1499144823854954289
1.1498802608335221276
1.1498287503069488658
1.1497717630441079972
1.1497347932735000331
1.1497403550447808929
1.1497941252832128978
1.1498797879232383057
1.1499654184157910297
1.1500178933071711906
1.1500160234914429402
1.1499563190869417362
1.149851688824220286
1.149725803619086717
1.1496062331949017388
1.1495169145332242433
1.1494720321525007112
1.1494752480966616837
1.149521828999352735
1.1496012331315919042
1.1496990855571367351
1.149799342354345999
1.1498863811675705815
1.1499474156683504589
1.1499749249986224164
1.149969521019185148
1.149940930056887467
1.1499063343128952397
1.1498860994533575131
1.1498971669196313972
1.1499439357917267124
1.1500196135766329597
1.1501070248920546302
1.1501852848337306146
1.1502367873444399038
1.1502521080325991409
1.1502349489391134885
1.1501900949191923296
1.1501208730399576918
1.1500290770240642058
1.1499175491295985374
1.1497959214841912967
1.1496842438188346058
1.149606862422178688
1.1495830096985408808
1.1496200022703138011
1.1497094406027610347
1.1498288784913786031
1.1499478998575864974
1.1500362975240334684
1.1500727506169650116
1.1500486108905700888
1.1499676223015224963
1.1498429151498734679
1.1496922966725573456
1.1495352488959973414
1.1493905954619103582
1.1492747718500129217
1.1492007115934552708
1.149176769157515432
1.1492046229601344809
1.1492768961879253897
1.1493764519544829028
1.1494791810449096481
1.1495596855287304461
1.1495986312806232288
1.149587809519731163
1.1495305959213917291
1.1494379178929838847
1.1493231750572820982
1.1491981805855835397
1.1490717531032688115
1.148950693924716937
1.1488408824569125155
1.1487479364429979967
1.1486774262832744053
1.1486335468585737729
1.1486169165471986631
1.1486232613474676167
1.1486437296793996499
1.1486670400282854576
1.1486823436457209713
1.1486819727348756004
1.1486618864211519675
1.1486206992495586743
1.1485586165219050514
1.1484769346373775445
1.1483788387181079749
1.1482717545546661242
1.1481683714488462034
1.1480859455276921643
1.1480426506700542877
1.1480510620108499431
1.1481121124073327966
1.1482125814690795629
1.1483275070624596736
1.1484266588804450393
1.1484839093994059223
1.1484862533780597627
1.1484388483151202198
1.1483623477743603036
1.1482843441201324719
1.148228331105399791
1.148204200717193979
1.1482053372084215503
1.1482128353611802396
1.1482049535267035978
1.1481671620767699427
1.1480986739419469789
1.1480119307322476097
1.1479258018465006153
1.1478571772048138389
1.1478142147365737458
1.1477940119672884745
1.147785979736037687
1.1477796424731510072
1.1477722283396118996
1.1477713813549792476
1.1477925134483608627
1.1478513623928661147
1.1479548265297709886
1.1480947180955367593
1.1482483882548011334
1.1483844565468683818
1.1484727493591559977
1.1484955302863986137
1.1484548062950290515
1.1483706573316470045
1.1482727698118815329
1.1481904337541555261
1.1481445127508225212
1.1481419633025564675
1.148175554342121707
1.1482292427223010911
1.1482858247693794596
1.1483335406911607812
1.148367759970571278
1.1483897969858618548
1.1484041005747274156
1.1484150535656214576
1.1484246857527149466
1.1484315087914434006
1.1484315271483811483
1.1484203940891810625
1.1483956768412741933
1.1483579062369615453
1.1483086029580269471
1.1482483900142326227
1.1481773167368030109
1.148095259889976516
1.1480028324223088276
1.1479021677257759126
1.1477966000204082864
1.1476896863022665318
1.1475838845052548365
1.1474790914130279518
1.1473729373050278735
1.1472628680852861027
1.1471484657155932574
1.1470327101629218536
1.1469224357778291523
1.1468271901359103904
1.1467557024119536813
1.1467124655493379226
1.1466960129772534316
1.1466993606696749275
1.1467124722373598367
1.1467259382445902371
1.1467340617772761036
1.1467362564736429675
1.1467373916219245622
1.1467458060043815848
1.1467700691367426202
1.1468167297883178346
1.1468880760461916957
1.1469803649318903727
1.1470829285824830635
1.1471797478038794349
1.1472531528417178048
1.1472884678710739692
1.1472775791949816337
1.1472209735327456581
1.147127583757075131
1.1470132145175886418
1.1468969769340076059
1.1467975543223065671
1.1467299438249531907
1.1467016302806727346
1.1467113247321041314
1.1467511399252707793
1.146810586078527372
1.1468799057580725265
1.1469518490347572204
1.1470223472146796606
1.1470902471917512333
1.1471559877216861434
1.1472198920880962714
1.1472809408587496538
1.1473365937089856637
1.1473834757527994199
1.1474174730515955822
1.147434973388290258
1.1474348974486963115
1.1474202214986259918
1.1473974168620273417
1.1473738987088011321
1.1473569766589166719
1.1473526655194421497
1.1473656145961421693
1.1473978714064398954
1.1474481932901514636
1.1475130690458892335
1.1475875793439658246
1.147665764460163107
1.1477406236670273376
1.147805506123039887
1.147855090495996766
1.1478852490089190841
1.149777672841066023
1.1491990952780821722
1.149687962444564171
1.1497770211324256362
1.1497365638466570115
1.1498186277393522836
1.1489441395482336006
1.1479264334889389687