#                 v                   n
  5.23598775598e-10   7.85198112912e+13
  6.96909970321e-10   1.88721140677e+13
  9.04778684234e-10   2.25429733813e+13
  1.15034650999e-09   2.75794556289e+13
  1.43675504024e-09   3.45435685136e+13
  1.76714586764e-09   4.42479674233e+13
  2.14466058485e-09   5.78678883464e+13
  2.57244078451e-09   7.70952362198e+13
  3.05362805929e-09    1.0434183093e+14
  3.59136400183e-09   1.42989391796e+14
  4.18879020479e-09   1.97660931538e+14
  4.84904826082e-09   2.74442654934e+14
  5.57527976257e-09   3.80907852429e+14
   6.3706263027e-09   5.25682878384e+14
  7.23822947387e-09    7.1717572909e+14
  8.18123086872e-09   9.60944775757e+14
  9.20277207992e-09   1.25602105624e+15
  1.03059947001e-08    1.5891961761e+15
  1.14940403219e-08   1.93058623685e+15
  1.27700505381e-08   2.23233368599e+15
  1.41371669412e-08   2.43463478931e+15
  1.55985311238e-08   2.48078838038e+15
  1.71572846788e-08   2.33759511778e+15
  1.88165691987e-08   2.01144734354e+15
  2.05795262761e-08   1.55086113596e+15
  2.24492975038e-08   1.03602446213e+15
  2.44290244743e-08   5.63117420988e+14
  2.65218487804e-08   2.20403058081e+14
  2.87309120146e-08   4.63877282253e+13
  3.10593557697e-08   8.36820731946e-63
  3.35103216383e-08   1.15110281713e-85
