/*--------------------------------*- C++ -*----------------------------------*\
  =========                 |
  \\      /  F ield         | OpenFOAM: The Open Source CFD Toolbox
   \\    /   O peration     | Website:  https://openfoam.org
    \\  /    A nd           | Version:  12
     \\/     M anipulation  |
\*---------------------------------------------------------------------------*/
FoamFile
{
    format      ascii;
    class       volScalarField;
    location    "0.0073";
    object      alphat;
}
// * * * * * * * * * * * * * * * * * * * * * * * * * * * * * * * * * * * * * //

dimensions      [1 -1 -1 0 0 0 0];

internalField   nonuniform List<scalar> 
106891
(
9.158408260522212069e-06
9.1488833173219827653e-06
9.1383488096267185679e-06
9.1300734102806964989e-06
9.1208626159024253131e-06
9.1135276288790871351e-06
9.1050554912865163927e-06
9.0983185706970810239e-06
9.090157556551168997e-06
9.0834626835061942898e-06
9.0746526954482817535e-06
1.1735286410000835751e-05
1.1677341433297669233e-05
1.1628989211422105209e-05
1.159235271006596941e-05
1.1567384923124132717e-05
1.1552304179486669913e-05
1.1544726756995551544e-05
1.1541254160258604758e-05
1.1544380834750208288e-05
1.1565069190006765115e-05
1.1621931458024654626e-05
1.1677535624760932952e-05
1.1719395971782687108e-05
1.1747154592293489693e-05
1.1762463640010248106e-05
1.1768481199820371894e-05
1.176955347774037842e-05
1.1770278097637622947e-05
1.1774257723529027268e-05
1.1784435536419600151e-05
1.1796167947090862611e-05
1.1808217460787432423e-05
1.1821445976934678762e-05
1.1837759684516259225e-05
1.1859038204951068469e-05
1.1885951864353490651e-05
1.1917780419506290935e-05
1.195257959705415518e-05
1.1987442548883383753e-05
1.2019197152309688684e-05
1.2044510150796391621e-05
1.206129511890850161e-05
1.2068899119703313964e-05
1.2068514060015289282e-05
1.2062866080768079247e-05
1.205514346882024947e-05
1.2047828913422088627e-05
1.2042857144239949932e-05
9.737285202625652663e-06
9.7267270520032592367e-06
9.7171920639198172318e-06
9.705567219717621213e-06
9.6949786645524476276e-06
9.6823151183036668436e-06
9.671063685144171696e-06
9.6582129324039559686e-06
9.6472417128121947438e-06
9.6349864678101829993e-06
9.6251033472963039175e-06
9.6139737161469963553e-06
9.6053422131791202474e-06
9.5954620338103035793e-06
9.5876583647336726952e-06
9.5783778941986810225e-06
9.5710063546430660384e-06
9.5619465007300555781e-06
9.5546594852988803062e-06
9.5449457320204746509e-06
1.2313540669228825069e-05
1.2267490966281808197e-05
1.2234228090900799786e-05
1.2212069727420910492e-05
1.2199302010990525956e-05
1.2192678330377156791e-05
1.2191293179380778994e-05
1.2200745647040590685e-05
1.2237423542591144282e-05
1.2280850033060957497e-05
1.2311134841774725376e-05
1.2330144783977201836e-05
1.2342023582618244211e-05
1.2351578679639696104e-05
1.2362229209415647919e-05
1.2375495074618278205e-05
1.2391167351272007572e-05
1.2406960636394285264e-05
1.2421012822492987881e-05
1.2432435949363220045e-05
1.2442121406079781817e-05
1.2452230045330841339e-05
1.2465913510141499006e-05
1.2485594751827045151e-05
1.2512284773018691656e-05
1.2545125487116258857e-05
1.2581755819099608854e-05
1.261893443073140211e-05
1.2653268554089875815e-05
1.2681638378262057528e-05
1.2701592261700968316e-05
1.271237552050304415e-05
1.2714857645744234068e-05
1.2711326893465190279e-05
1.2704358553645774286e-05
1.269651873411152448e-05
1.0245849408912134935e-05
1.0234340770290761719e-05
1.0223998558092992281e-05
1.0211308094274262382e-05
1.01999441248493944e-05
1.0186290337814144549e-05
1.0174436204110693638e-05
1.0160796728500965961e-05
1.0149423749430851185e-05
1.0136527214321469433e-05
1.0126291078359924593e-05
1.0114506370812564976e-05
1.0105420935246940678e-05
1.0094736687817861857e-05
1.0086324344921829028e-05
1.0076061157575604197e-05
1.0067908548619608705e-05
1.0057755658430266008e-05
1.0049724336698054967e-05
1.0038921933208019832e-05
1.3032643324021315996e-05
1.2974568878845145139e-05
1.29329465433673432e-05
1.2906690172857896942e-05
1.2891548361231225313e-05
1.2883808008895584489e-05
1.2880019189151249985e-05
1.2878654835885654896e-05
1.288045826641485533e-05
1.2891145118904888362e-05
1.2915154048229060359e-05
1.2940030249140096414e-05
1.2965030972456370842e-05
1.2991154958654118338e-05
1.3018678264470768527e-05
1.3047537369094425056e-05
1.307658340398464395e-05
1.3103619688613540319e-05
1.3126532399317302694e-05
1.3143375275730076766e-05
1.31548666006015069e-05
1.3163120242651601025e-05
1.3171830940025987646e-05
1.3184098920345831702e-05
1.3201827408400466023e-05
1.3225593151548053491e-05
1.3253252026145804075e-05
1.3281988162090565712e-05
1.330820440163977594e-05
1.3329231710585498231e-05
1.3343740449067137857e-05
1.3352146925318894666e-05
1.3356899414543695797e-05
1.3361092337030319876e-05
1.3368200835989326787e-05
1.3379972155859871965e-05
1.0767776746963244792e-05
1.0756609073849879659e-05
1.0742875514341219595e-05
1.0730847722714007193e-05
1.0716374787615900235e-05
1.0704046439211814914e-05
1.0689702618263660478e-05
1.0678001692592562098e-05
1.0664498061247956805e-05
1.065390535125457851e-05
1.0641397961610229639e-05
1.0631725438337922469e-05
1.0620092845586258989e-05
1.0610907554662479292e-05
1.059949450973443368e-05
1.0590469427345352091e-05
1.0579112233341696347e-05
1.0570245677526705018e-05
1.0558177887429332964e-05
1.3713376092137178632e-05
1.3661307992595908166e-05
1.3622749241144381247e-05
1.3597319264382857015e-05
1.3582946020029960056e-05
1.3575353787573724896e-05
1.3571187223155550507e-05
1.3568209397052985359e-05
1.3567271365404109988e-05
1.3570421888128851825e-05
1.3573738613114191416e-05
1.3580333884318087034e-05
1.3594879792766863421e-05
1.3619915308625991099e-05
1.3655204379065246989e-05
1.3697251388735426589e-05
1.3741476605155504456e-05
1.3782392881381856292e-05
1.3815156398291823079e-05
1.3837370855453529086e-05
1.38489060659378594e-05
1.3851879945405401703e-05
1.3849487196169379331e-05
1.3846139304423291734e-05
1.3845637997858345629e-05
1.3853392280909076575e-05
1.3884547590110555431e-05
1.3931173459925877409e-05
1.3977851243328015085e-05
1.4020025937785847504e-05
1.4054734637877443603e-05
1.408122615388776789e-05
1.4100472542283906449e-05
1.4114969562971325587e-05
1.1341741641018187429e-05
1.1327995078371034249e-05
1.1316093490497112473e-05
1.1301479512494624392e-05
1.1288972498553394378e-05
1.127382335795441754e-05
1.1261239873982730136e-05
1.1246330044493503777e-05
1.123434653996526996e-05
1.1220175594296885829e-05
1.1209146506101716693e-05
1.1195807214935328232e-05
1.1185466619559738882e-05
1.1172772656281013248e-05
1.1162736280537189325e-05
1.1150122813285820087e-05
1.1140220383294250364e-05
1.1127667256264437765e-05
1.111796189298121434e-05
1.1104530780934948614e-05
1.4293867107229751612e-05
1.4267322238551203469e-05
1.4248345489152235293e-05
1.4236082288098563371e-05
1.422899536421509403e-05
1.4225405018084459759e-05
1.4227378345107409755e-05
1.4245248156833230743e-05
1.4277071748170729306e-05
1.4300866220638144903e-05
1.4319543532162503076e-05
1.4338574218615892582e-05
1.4361745771757610177e-05
1.4391652825064400837e-05
1.4426972500117084394e-05
1.4465623011004896461e-05
1.4504287897507852812e-05
1.4539351106306752518e-05
1.4568425204769020032e-05
1.4589915846682323101e-05
1.4605034511645701123e-05
1.4615360952285719976e-05
1.4625097176842115796e-05
1.4637558316864073801e-05
1.4654769095725386397e-05
1.4677808850650217237e-05
1.4704747824455589221e-05
1.4733557674988690149e-05
1.4760662923970762703e-05
1.4783622840801326261e-05
1.4800893780036081826e-05
1.4812625919265283902e-05
1.482108632409393787e-05
1.1916218165970321214e-05
1.190361623782363046e-05
1.1888212315631550991e-05
1.1875482420335001766e-05
1.1859870251910116916e-05
1.1847221982453003551e-05
1.1831817696783502702e-05
1.1819618314782303993e-05
1.1804745697575578253e-05
1.1793151745277900274e-05
1.1778793155828280951e-05
1.1767684750627811457e-05
1.1753868789428400035e-05
1.1743062956371667197e-05
1.1729374021187320045e-05
1.1718761883142924361e-05
1.1705140539008745352e-05
1.1694672168884341222e-05
1.1679844218345905026e-05
1.5000545841449720654e-05
1.4985582270638283787e-05
1.4974763025373623895e-05
1.4968446393611961571e-05
1.4971578598530638633e-05
1.4996560718352122327e-05
1.5026936249006109394e-05
1.5049644769040424605e-05
1.506652353481710781e-05
1.5081806308083616313e-05
1.5099942215882842514e-05
1.512356711379464476e-05
1.5154430566609024562e-05
1.5191173220424590697e-05
1.5232242445754867456e-05
1.5274568899878198031e-05
1.5315209792827219441e-05
1.5350853526981775597e-05
1.5378776132387085866e-05
1.5398763863811841003e-05
1.5411094466136920938e-05
1.5418748066480302353e-05
1.542521345251769745e-05
1.5433655860726208469e-05
1.5446177499234719002e-05
1.5463460232946799028e-05
1.5484734361416409629e-05
1.5508403487452712937e-05
1.5532601145339774957e-05
1.5555613844366263413e-05
1.5576524591430921041e-05
1.5595711520689195024e-05
1.2534137653979090558e-05
1.2520928828893539096e-05
1.2504884749819522124e-05
1.2492049439387154492e-05
1.2476112563787349112e-05
1.2463540488242358668e-05
1.2447684876562462952e-05
1.2435235271147438482e-05
1.2419518623555317932e-05
1.2407171543667818759e-05
1.2391663451683684297e-05
1.2379716528664062031e-05
1.2364748230307350357e-05
1.2353294438513594511e-05
1.233868170521687277e-05
1.2327568330928704318e-05
1.2313085630689812273e-05
1.2301996280384660713e-05
1.2285800395037277941e-05
1.5834856951355337111e-05
1.5822694941829876616e-05
1.5813438271442049231e-05
1.5806541436772445077e-05
1.5801058794343142818e-05
1.5796116758909892387e-05
1.5791843315642759775e-05
1.5788511985401860668e-05
1.5787204946878234424e-05
1.5790993581023618237e-05
1.5807621457517949929e-05
1.5852021468833787433e-05
1.591007926194580756e-05
1.5971599734604019819e-05
1.6034527534514975383e-05
1.6094967348855981627e-05
1.6148131905838799399e-05
1.6190852672561832415e-05
1.6220400731113897937e-05
1.6238412480042275192e-05
1.6246976057889822841e-05
1.625009163943220652e-05
1.6252050476977276261e-05
1.6256520681994998667e-05
1.6265499104323026693e-05
1.6279910202254009225e-05
1.630001182415664044e-05
1.6324658623405537453e-05
1.6353342285668925378e-05
1.6384384891862624841e-05
1.3171495773438478285e-05
1.3154845841294200359e-05
1.3141873031906177463e-05
1.312562472017091436e-05
1.3113056425787883449e-05
1.3096687584496207325e-05
1.3083885397092441435e-05
1.3067237357288053777e-05
1.3054023087757731401e-05
1.3037314720483820691e-05
1.302450229264412603e-05
1.3008452838194393497e-05
1.2996435493869833052e-05
1.2981052952936267565e-05
1.2969607432701601784e-05
1.2954482667107829975e-05
1.2942951634921721871e-05
1.2925646511769804946e-05
1.660306206874498025e-05
1.6586158128877498451e-05
1.6574314425906502271e-05
1.656745895635890561e-05
1.656360932804441509e-05
1.656139734542579791e-05
1.6560290702883620554e-05
1.656398184411312372e-05
1.6585288883658007232e-05
1.6636583471899415114e-05
1.6693003686132661578e-05
1.6753146386738069015e-05
1.6816949008854915209e-05
1.6882452661958930075e-05
1.6945464552419188092e-05
1.7001477708775672757e-05
1.7044859286403463784e-05
1.7073111678988248872e-05
1.7086430589795639545e-05
1.7088681178611695517e-05
1.7084954696111012869e-05
1.708144586764889764e-05
1.7083693715439275288e-05
1.7094865164915470517e-05
1.7115962100351384266e-05
1.7146151388325691473e-05
1.7183448413230491909e-05
1.7224012788469617068e-05
1.3875910972555272434e-05
1.3859077213468245143e-05
1.3845711615049573182e-05
1.3829372726018512385e-05
1.3816409043980064825e-05
1.379984954471942292e-05
1.3786479697832096784e-05
1.3769301877817680251e-05
1.3755366112792844377e-05
1.3738100681757686272e-05
1.3724560611580918288e-05
1.3707973445806239843e-05
1.3695463857112158244e-05
1.367975734988372478e-05
1.36680057027311783e-05
1.3652463401409503852e-05
1.3640636094330882579e-05
1.362357633554125714e-05
1.7469695889622166471e-05
1.7459029647919126161e-05
1.7453535485937937081e-05
1.7451981988340129718e-05
1.7454311067901450924e-05
1.7464563195834994114e-05
1.7490238088484342702e-05
1.7517815791066161337e-05
1.7548162584931000787e-05
1.7586108205673602181e-05
1.7633884299023338892e-05
1.7690246197997852481e-05
1.7751253093737055647e-05
1.7810689512835876323e-05
1.7863181149062321761e-05
1.7904342264694501625e-05
1.7932793541569484638e-05
1.7950382105395992034e-05
1.7960630095812952622e-05
1.7968067099746516549e-05
1.7976747067112618041e-05
1.7989972266814086439e-05
1.8008921594410446591e-05
1.8033511943239016631e-05
1.8062492247577349307e-05
1.8094177592707446516e-05
1.8126888095320711818e-05
1.4524450167599240857e-05
1.4505426668174745258e-05
1.4489038164868107606e-05
1.4470096360622862383e-05
1.4453176924068293407e-05
1.4433813945444787016e-05
1.4416694871136127615e-05
1.439668680510566063e-05
1.437972176397326712e-05
1.4360050771226964375e-05
1.4343499743511014548e-05
1.432487798136268375e-05
1.4309169752690633089e-05
1.429111802537161359e-05
1.4275474027084904746e-05
1.4257113078445865915e-05
1.4240797094475110025e-05
1.818379797485257247e-05
1.8173732981088389001e-05
1.8167908138607435941e-05
1.816786500565423316e-05
1.8177044215119987907e-05
1.8200694633138154869e-05
1.8220705175152630806e-05
1.8233470087386941183e-05
1.824338071328775014e-05
1.8256326900180704927e-05
1.8277932477200053849e-05
1.8310029251396039935e-05
1.8352963178532448642e-05
1.840278044342465966e-05
1.8454416274927224341e-05
1.8503151782524302317e-05
1.8546231284831318759e-05
1.8585367366040002362e-05
1.8622660070420399194e-05
1.8662905393108787877e-05
1.8707148361879302777e-05
1.875518918107142526e-05
1.8804436560437300628e-05
1.8850574610066919413e-05
1.8889829403194394067e-05
1.8919057101651108268e-05
1.8937710651680716078e-05
1.488756396015352653e-05
1.4869557981831855648e-05
1.4843525275536955941e-05
1.4825260796979806047e-05
1.4798903795570157561e-05
1.4780606437001467002e-05
1.4754189586007303371e-05
1.4736050373805052838e-05
1.4709681554266163759e-05
1.4691803302353926791e-05
1.4665578675734293359e-05
1.4648041040743900744e-05
1.4621898449512349389e-05
1.4604471257210969564e-05
1.4573284801675789258e-05
1.4566257675609667715e-05
1.4195386172471432165e-05
1.4189585397784227068e-05
1.4190232167789392783e-05
1.4203818263392313615e-05
1.4225065727701237668e-05
1.4244735386501547266e-05
1.4258924953572289513e-05
1.42666921329484109e-05
1.4269471960299446748e-05
1.4270120800887458473e-05
1.4270652899548389394e-05
1.427243237583933527e-05
1.4276127185757011377e-05
1.4283663394780754438e-05
1.4303891217457901961e-05
1.4352517514201149169e-05
1.4403530866501764723e-05
1.4450855258960527852e-05
1.4497813466621544158e-05
1.4545195607127252234e-05
1.4593817909536574613e-05
1.4642401745413493176e-05
1.4688576757109986096e-05
1.4729616988117908441e-05
1.4762778189061358963e-05
1.4786454285360553854e-05
1.4799645902531075685e-05
1.4804291596985912766e-05
1.1583470900078569966e-05
1.1560969701014380958e-05
1.1544951012229205596e-05
1.1522605454162355144e-05
1.1506985363989312944e-05
1.1484993227622471214e-05
1.1469838808847277766e-05
1.1448048854240442897e-05
1.1433336047293889384e-05
1.1411715323374809687e-05
1.1397333916559621031e-05
1.1375856099748932868e-05
1.1361653846663893061e-05
1.1336545980976317426e-05
1.1333686012796045041e-05
1.3424211137962404976e-05
1.3455606341582558341e-05
1.3489271687575270114e-05
1.3519588146998131874e-05
1.354239084235819134e-05
1.3556915325133100391e-05
1.356489774559498485e-05
1.3570752240975909135e-05
1.3578684555004659625e-05
1.3594548730610995761e-05
1.3622080185902513605e-05
1.3659817732107494001e-05
1.3704029365641008388e-05
1.3749209642497363813e-05
1.3789444997319683068e-05
1.382003783557592984e-05
1.3839558174062513277e-05
1.3850006102750028896e-05
1.3855265576671972196e-05
1.3860547654546789381e-05
1.3870053918605279055e-05
1.3886824138220162358e-05
1.3911993760426778587e-05
1.394392753262793342e-05
1.3980159122225846243e-05
1.4015587268938247477e-05
1.4046559599002284439e-05
1.1010540816883875189e-05
1.0997170137594888093e-05
1.0978984227725520036e-05
1.096590649018918221e-05
1.0947886593608242289e-05
1.0935092424824161542e-05
1.0917163275543697036e-05
1.0904522719458654249e-05
1.0886620311735637707e-05
1.0874105967549054316e-05
1.0856362739105893922e-05
1.084413304875534554e-05
1.0824620222846756355e-05
1.0816489223187405284e-05
1.2950866055757260332e-05
1.2956101557131774571e-05
1.2975388640854358701e-05
1.2998666793959882175e-05
1.301744945565487634e-05
1.3031077051434024263e-05
1.3042504919560167254e-05
1.3056140004319799917e-05
1.3075823468751821601e-05
1.310323238206019536e-05
1.3136666911468586122e-05
1.3172639496465534398e-05
1.3205436963006225858e-05
1.3230721603979371604e-05
1.3246695092438454889e-05
1.3254194131583196662e-05
1.3257355877653928324e-05
1.3260736497188875307e-05
1.3269536784850473798e-05
1.3287153880099939737e-05
1.331494238359334774e-05
1.3352071553023070707e-05
1.3394691034032444891e-05
1.343842561812320467e-05
1.3477512661858929741e-05
1.3508162121179818137e-05
1.0594435487094497781e-05
1.05770521809007074e-05
1.0564517067520696141e-05
1.054719783329412846e-05
1.0534763651826496513e-05
1.0517424049528946431e-05
1.0505049857496927252e-05
1.0487676643185666716e-05
1.04754401643818197e-05
1.0458238574983894458e-05
1.0446371655566902037e-05
1.0427988714754825233e-05
1.0419533437506839948e-05
1.2477085043968269193e-05
1.2475341953557294154e-05
1.2475299214227400098e-05
1.2477753066992048367e-05
1.248564860122699377e-05
1.2508057832114793367e-05
1.254910728439291699e-05
1.2591766870047480192e-05
1.2633897186647339875e-05
1.2672761072770364032e-05
1.2705920681376939541e-05
1.2730722761032933294e-05
1.2746618379556039788e-05
1.2755115872180830571e-05
1.2758803361795221154e-05
1.2761999397449568021e-05
1.2768601538443236559e-05
1.278216400590917718e-05
1.280423937295931335e-05
1.2834529348715224297e-05
1.2871362589843103399e-05
1.2910801289217884859e-05
1.2949042858826384253e-05
1.298137127899624047e-05
1.3005292708485548971e-05
1.0175297926459300339e-05
1.0163193374928609263e-05
1.0146388554595103904e-05
1.0134219881772730274e-05
1.0117265273218933684e-05
1.0105079248881752968e-05
1.008806056686995061e-05
1.007606332804713477e-05
1.0059276049756348141e-05
1.0047737048531281179e-05
1.002993458193629526e-05
1.0021829925838575688e-05
1.2019828593509153573e-05
1.2031407557589233288e-05
1.2067045199218050841e-05
1.2108200341727108152e-05
1.213637463439127211e-05
1.2152081256129689915e-05
1.2160169622862287351e-05
1.2166678828543249429e-05
1.2176036802628881583e-05
1.2189906318475392379e-05
1.2206982003595051039e-05
1.2224562009825327267e-05
1.2239947868681564118e-05
1.2252175796878089472e-05
1.2262263014087584247e-05
1.2272962796305596141e-05
1.2286966868098715696e-05
1.2307068200514819986e-05
1.2334142341234694573e-05
1.2368471347775914968e-05
1.2407664639964753551e-05
1.244919507392897193e-05
1.2488769518338701728e-05
1.2522972916135765624e-05
1.1590640939159037209e-05
1.1637130725354646239e-05
1.1677893997545944673e-05
1.1707912333559358445e-05
1.1727261321789072304e-05
1.1739142052763592205e-05
1.1747391640350534126e-05
1.1755493807261547279e-05
1.1765037470167880011e-05
1.1776289306378812802e-05
1.1788134554285881704e-05
1.1799382776490376429e-05
1.180972293778724541e-05
1.1820158098314190111e-05
1.1832671562432944994e-05
1.1849268959425350242e-05
1.1871543369699382245e-05
1.1899533747040889537e-05
1.193290185532351765e-05
1.1969040499212245005e-05
1.2005702600172157117e-05
1.2038912288815285884e-05
1.2066420019907141037e-05
1.1200528709535500599e-05
1.1218554989077467654e-05
1.1235078541789661068e-05
1.1252437453582199897e-05
1.1271488789041870834e-05
1.1292419121554959774e-05
1.1314441960573721035e-05
1.1335480966669710755e-05
1.1353700164130781452e-05
1.1368121979672558402e-05
1.1379643309515332034e-05
1.1389967531219552912e-05
1.1401639878327019358e-05
1.1416612582652484935e-05
1.1436095530776828485e-05
1.1459927026021301773e-05
1.1487053757245046167e-05
1.1515233009362880009e-05
1.1541972976765605132e-05
1.1565125546095024974e-05
1.1583619705832370967e-05
1.0820454586008443438e-05
1.0850454768248467749e-05
1.0887598468574310049e-05
1.0927586029181174658e-05
1.0965320853695833343e-05
1.0996128515541519013e-05
1.1017476220785226329e-05
1.1029328141893645935e-05
1.1034104010008989442e-05
1.1035162399248327512e-05
1.1036397745352950674e-05
1.1040843198012057963e-05
1.1050641682771303041e-05
1.1066099090896080922e-05
1.1086123438149542121e-05
1.1108446523980701218e-05
1.1130887052589863217e-05
1.0560239501271976515e-05
1.0594823110796099114e-05
1.0621982801762695447e-05
1.064177220717131664e-05
1.065545227146356341e-05
1.066567882518607531e-05
1.0674429449880799302e-05
1.0683717340978366776e-05
1.0694584942189731854e-05
1.0707184515126557311e-05
1.0721008868281754409e-05
1.0734526389827750455e-05
1.0746945447183973624e-05
1.0161972616773595242e-05
1.0176343896287366381e-05
1.0188551529272550628e-05
1.0199827470206133159e-05
1.0212944238936283795e-05
1.0228871971139723681e-05
1.0247952948188296236e-05
1.0268995968954043751e-05
1.0290076937372032585e-05
1.0309345264313061257e-05
1.0324881860514479212e-05
1.0336085714311703547e-05
5.2867906803487988565e-06
5.2786523488179182045e-06
5.2790358199419694607e-06
5.2879357685359329485e-06
5.3305299864542292232e-06
5.4914509866513739865e-06
5.8382671087480844424e-06
6.1058151996801545645e-06
6.268751142332301217e-06
6.3464752783487417083e-06
6.3699978686563907054e-06
6.3681917800847190789e-06
6.3582805770862185551e-06
6.3293247540191458232e-06
6.2390528319917415437e-06
6.0590894207117866559e-06
5.8820736934221080146e-06
5.7222857984181799349e-06
5.5930801755163153378e-06
5.5026129311384636839e-06
7.7129601874962497012e-06
7.6796079871956929731e-06
7.6701967530112691719e-06
7.672115049083821163e-06
7.6905014522604466133e-06
7.7638150599099876029e-06
8.0154143104931789809e-06
8.3925958393187467143e-06
8.6579514158175269699e-06
8.8086397071826092635e-06
8.8701047440849364948e-06
8.8802524991855341814e-06
8.8718779759593672683e-06
8.8535440273264191384e-06
8.8053053315510001884e-06
8.6714980955880571544e-06
8.4586492956428501361e-06
8.2409086284934946425e-06
8.0329839197849841893e-06
7.8590754454402924196e-06
7.735049245630193647e-06
7.6683398158330450775e-06
1.3832314225002081094e-05
1.3807718093935117856e-05
1.379696473956992812e-05
1.3799697846222607256e-05
1.3829862628685169073e-05
1.3923782708028900712e-05
1.4179329488922291986e-05
1.4475200987705761618e-05
1.4698875370044355102e-05
1.482280056586693655e-05
1.48645430907344597e-05
1.4862261906573993227e-05
1.484546316512980409e-05
1.4808621641455001558e-05
1.4723049918618117557e-05
1.4571057415873482743e-05
1.4394622501952095093e-05
1.419717013601784982e-05
1.3988375960458427589e-05
1.3796036838607955924e-05
1.3642433756403857768e-05
1.3548074660727188711e-05
1.3508485417493730702e-05
1.3498549977969943295e-05
1.3512478430607861876e-05
1.3594046648212950449e-05
3.145223876525243199e-05
3.1551849772015093864e-05
3.1664074012496706855e-05
3.1850594240267522542e-05
3.2130171226082702486e-05
3.2494722452014828643e-05
3.2875293332276077786e-05
3.3194094753621847e-05
3.3389174273738352441e-05
3.3454164204102350357e-05
3.3446417221545375891e-05
3.3407007434153384261e-05
3.3296469989232693406e-05
3.3053400181676625058e-05
3.2828656534989146141e-05
3.2649339973667590876e-05
3.2512512336129402771e-05
3.2402614808158246859e-05
3.2313933055683741993e-05
3.2246123106013084179e-05
3.2206558232793543867e-05
3.218227964800479679e-05
3.2186305512667484977e-05
3.2273261668086911612e-05
3.2597881600198198317e-05
3.308243414876037812e-05
3.3498746408443892458e-05
3.3777937188115611099e-05
6.8221186591193216844e-05
6.8388656122046095052e-05
6.8544225214582266852e-05
6.8711285594186957758e-05
6.8889295626451552005e-05
6.9063493490337284552e-05
6.9193489555073806529e-05
6.9249373002167375246e-05
6.9233953967120094282e-05
6.9175152182048485071e-05
6.9071091270602095569e-05
6.8857544949759737348e-05
6.8579056913887822947e-05
6.8339684872832339433e-05
6.8139418730218663414e-05
6.7971559940232842401e-05
6.7833162108664219348e-05
6.7709917214937083863e-05
6.7603871870752796098e-05
6.7522801766746644173e-05
6.7470249528977900371e-05
6.7441661145846112284e-05
6.7479205662013226142e-05
6.7648212946240583493e-05
6.7838834468583815072e-05
6.7977390365066351881e-05
6.8046590112718095605e-05
6.8041911974483528219e-05
6.7998468639988992961e-05
6.7903629733372832585e-05
0.00010357061519601976334
0.00010339109708485409906
0.0001031886356447336687
0.00010296885779285327599
0.00010273816526516044807
0.00010249956961956880751
0.00010225138662268675382
0.00010198800973104062606
0.00010170418236479245716
0.0001014006557618136095
0.00010108890096271460897
0.00010078882066964626497
0.00010051948065453047716
0.00010028991013070248021
0.00010009515801871119009
9.9920465001996223693e-05
9.975116122956411075e-05
9.9578982900587581745e-05
9.9403794838447782629e-05
9.9229728095718747714e-05
9.9060685456431039658e-05
9.8897342323427429324e-05
9.873294475244535906e-05
9.8556882720420599213e-05
9.8356666901820244495e-05
9.8125412959728844755e-05
9.786493976057794651e-05
9.7583692866455362192e-05
9.7294871817737950057e-05
9.7009240864298333803e-05
9.6735468649675410494e-05
9.6481059757017585102e-05
0.00012278088528025458037
0.00012248621517777958539
0.00012216105105104622811
0.00012181062827197338772
0.00012145354774746582396
0.00012111033868734101472
0.00012079389239491330305
0.00012050251212161263326
0.00012022103980685299048
0.00011993306315051948687
0.00011963330525066339413
0.00011933366315030354118
0.00011905153448898529321
0.00011879758499975246453
0.0001185707157266613533
0.00011835958093587367558
0.0001181501999846053041
0.00011793288361681939793
0.00011770411663241685577
0.00011746507550451118658
0.00011722010398019453705
0.00011697424685048392356
0.00011672933189458695451
0.00011648334113417899952
0.0001162338170582678283
0.00011598278586348896363
0.00011573636506504223322
0.0001155013040287767136
0.00011527928271149732499
0.00011506766415854588319
0.0001148618045327156592
0.00011465903216583798747
0.0001144575672433061379
0.00016260656303153858205
0.00016171854124272079327
0.00016090348773608215442
0.00016009425591737271792
0.00015925615493136185594
0.00015840776219650033502
0.00013272832257120862937
0.00013246461738171551835
0.0001321602952165082574
0.00013182483025927414994
0.00013148387272320953751
0.00013116423860486030946
0.0001308810047089963317
0.00013063018469211551149
0.00013039008913988099983
0.00013013883088475790783
0.00012987036832333477836
0.00012959697601736016432
0.0001293399159039305686
0.00012911202916584697668
0.00012891152685090960539
0.00012872501009480381601
0.00012853633830602802517
0.00012833519956118375057
0.00012811877940190492245
0.0001278900640912914344
0.00012765564905054790955
0.00012742244281167000933
0.00012719316645261707064
0.00012696544491779646773
0.00012673574539121129092
0.00012650546708568348128
0.00012628059159609144116
0.00012606704179215304207
0.00012586593783555659787
0.00012567234008466863647
0.00012548037018750141905
0.00012528580221780042563
0.00012508873331606984707
0.0001248899563068498874
0.00015532279359192443548
0.00015444157720727243752
0.00015364795231094939185
0.00015289195685314597604
0.00015210544434929862954
0.00015127418967177022179
0.00015043538002603739127
0.00012863898489985100366
0.00012828748721078426305
0.00012789402507932772619
0.00012748456870900661941
0.00012709266390262467078
0.00012674227680075234991
0.00012643646281720299896
0.00012615942388406303212
0.00012588431450255858825
0.00012559336732873290312
0.00012529044235098056722
0.00012499579173407327263
0.00012472928110924335027
0.0001244946431595872515
0.00012427876486830632366
0.00012406119219820772436
0.00012382482835488473863
0.0001235636734216831185
0.0001232819655564894052
0.00012298982988383360695
0.0001226984317441934258
0.00012241626382744047311
0.0001221450394115481254
0.0001218812601147035334
0.00012162254761986387942
0.00012137229636152543813
0.00012113659388607855296
0.00012091855920216593341
0.00012071532793916104134
0.0001205188277346510309
0.00012032275965537856364
0.00012012527536465732463
0.0001199282559647993449
0.00011973522867421659789
0.00011954802376066254684
9.6346918524091739149e-08
9.6422963300738744206e-08
9.6445982248191773897e-08
9.656724768808905739e-08
9.6635189388793829126e-08
9.6825519198781611136e-08
9.6909061418706061698e-08
9.707730128658661928e-08
9.7174811831254957755e-08
9.7325192520701726565e-08
9.7417986037785155154e-08
1.1312496135369034216e-06
1.0609402318626528836e-06
9.9610970409088571104e-07
9.3800993778883384579e-07
8.870176276696030822e-07
8.4304368459991180641e-07
8.0579270343601135026e-07
7.7494347370453799888e-07
7.4989382797451147116e-07
7.2986956306496638137e-07
7.1408159898180205559e-07
7.0184465883786042671e-07
6.9253692180747601296e-07
6.8572632844605343372e-07
6.8093866048048152166e-07
6.7770271006254064843e-07
6.7546645248470729184e-07
6.7373857447134573607e-07
6.7222448108564209428e-07
6.7101581868554358102e-07
6.7016488114232963055e-07
6.6963079119091392609e-07
6.693180025663168771e-07
6.6911889547024560115e-07
6.6949804146839333184e-07
6.7086778315507767983e-07
6.71864956610812095e-07
6.7245602617465974031e-07
6.7279396535592500595e-07
6.7293067955297429527e-07
6.7285891956023140372e-07
6.7261571629699301293e-07
6.7226698029045043062e-07
6.7193137375921920176e-07
6.7181199207029542791e-07
6.7240014269108062719e-07
1.0152174630533426043e-07
1.0142950348810102796e-07
1.013546047838438025e-07
1.0129081214527719813e-07
1.0123058157423671269e-07
1.011768468619302754e-07
1.0113945731712122762e-07
1.0110548692280662922e-07
1.0107686451537638488e-07
1.0104080824215541997e-07
1.0100989318401717808e-07
1.0105520249860826596e-07
1.010874865861225134e-07
1.0124018079507974776e-07
1.0132765901220866933e-07
1.0153902356759161394e-07
1.0163425072289287285e-07
1.0180773514414238825e-07
1.0190736335650778368e-07
1.0207423385793827428e-07
1.0215915238149009082e-07
1.1899538592265443158e-06
1.1271948728813485963e-06
1.0699854191975436144e-06
1.0175934128603227197e-06