/*--------------------------------*- C++ -*----------------------------------*\
  =========                 |
  \\      /  F ield         | OpenFOAM: The Open Source CFD Toolbox
   \\    /   O peration     | Website:  https://openfoam.org
    \\  /    A nd           | Version:  12
     \\/     M anipulation  |
\*---------------------------------------------------------------------------*/
FoamFile
{
    format      ascii;
    class       volScalarField;
    location    "0.0073";
    object      k;
}
// * * * * * * * * * * * * * * * * * * * * * * * * * * * * * * * * * * * * * //

dimensions      [0 2 -2 0 0 0 0];

internalField   nonuniform List<scalar> 
106891
(
0.018963016369634093372
0.018953064135525405504
0.01893722658830351846
0.018929024673684562152
0.018915383061415068366
0.018908294285955088571
0.018895701135292403139
0.01888985096101853528
0.01887810462734050912
0.018872684930246106522
0.018858908633515782116
0.019699299771017877991
0.019550921155703136767
0.019435278725975859565
0.01935630949388347094
0.019310899669729542083
0.019290972134032198515
0.019287960577564280951
0.019291379001376923741
0.019311148204700225722
0.019385603586612402266
0.01957963861067760214
0.019769900004006382005
0.01991423507011382682
0.02001173466268309567
0.020068043708795998276
0.020094190426456992604
0.020105046827565708351
0.020116736149977870046
0.020142530872901021066
0.020193432636364257171
0.020253583460329571686
0.020317578419768077269
0.02038644875370309445
0.020465216368044377576
0.020560207083501921138
0.020674769434080971647
0.02080817512692756735
0.020954672783735882324
0.021104575002569951614
0.021246885502693203113
0.021369945097237469378
0.021466278066397413704
0.021532791411258384029
0.02157191221242408391
0.021590908676572380387
0.021599108439610114479
0.021604634249308234811
0.021615158115003130918
0.020085670032854986006
0.020066986610959552245
0.020054297211730624795
0.020034969645905030544
0.020021833745781154879
0.020001673540749290159
0.019988304235462137776
0.019968551955688008948
0.019956083855269705213
0.019937180147875994962
0.019926563350715843087
0.019909031865754364676
0.019900183134137775648
0.019884757044764715672
0.019876912514446835878
0.019862372369688893747
0.0198553923728018826
0.019841342893449080004
0.019834684778881402079
0.019818030337047591594
0.020658547984836597017
0.020553795428107906468
0.020489105587106731798
0.020455262711291642003
0.020444102289836552783
0.020444075826742229285
0.020453271157064276814
0.020492891527637349669
0.020620629260554489137
0.020770454475776616715
0.020875654949441675018
0.020942818059532790353
0.020986282235035624844
0.021022893423678110786
0.021064734312437820296
0.021117549789572379049
0.021181300412398417626
0.021249096900353377226
0.021315213962520170726
0.021376324257981374477
0.021433981640611651787
0.021493691331726173105
0.021564819322862440604
0.021655339461474017865
0.021769717986024429701
0.021906513067519128163
0.022059139105704346495
0.022217205715671060895
0.022369343302352164005
0.022504793238080907786
0.022614612227384617293
0.022694943690311504547
0.022746709115724354083
0.022775451599728543245
0.022788296032863416402
0.022793786712744231598
0.021123562973076867588
0.021102859246147673278
0.021088959160768694368
0.021067459930998899686
0.02105329076256379911
0.02103099357357922361
0.021016748068822331541
0.020994970765040150973
0.020981729444259036854
0.020960848431453044105
0.020949392955843769426
0.020929896931284629191
0.020920130724979373732
0.020902608712483686237
0.020893721719760893762
0.020876829250416915895
0.020868473986203599918
0.020851737139849012975
0.020843655966077366537
0.020823737814748374819
0.021990357471192850669
0.021844991989249974706
0.021751519836104901001
0.021703022676214885067
0.021683036145967411051
0.021678782844701580124
0.021680327548938369692
0.021685269519590107123
0.021698398368947116599
0.02173992337372210315
0.021825194297569686791
0.021912024265593538913
0.021998212934465667667
0.022088405542638443052
0.022185131230489863602
0.02228980514752777059
0.022399737310708926763
0.022508008048488317016
0.022607360201161285501
0.022690068005973135917
0.022756836367415728822
0.022812989458855046504
0.02286981160294807025
0.022937535102838694373
0.023023404794785519434
0.023130825377496385536
0.023253819133176780592
0.023383772987813421923
0.02350878105510733132
0.023619632328692210382
0.023711244579207240574
0.023783847665185882392
0.02384403081079569664
0.023900425078775214965
0.023963678845978036297
0.024039661119653037841
0.02219103285941666226
0.022175834875372401472
0.022151968936211217237
0.022136726432164827161
0.022112396090224018669
0.022097205144914078973
0.022073251893640549043
0.022059198133905697642
0.022036299376005034911
0.02202394244181338917
0.022002286764120870116
0.021991266143346017981
0.021971376662639655747
0.021961126071649756525
0.021941484419277266366
0.02193157258857117084
0.02191185788535926493
0.021902241687809666237
0.021878741690210579823
0.023176479985107221321
0.023048888457405197067
0.022959824326243227083
0.022905970997177279441
0.022880406237521497964
0.022871060105547600522
0.022869950964746529193
0.022871990056155845628
0.022880401540196305954
0.022901059831266071254
0.022919444152373680268
0.022945603487897370254
0.022996487800371827326
0.023083294924853444557
0.023208126354377092704
0.023361184471283859276
0.023527486751953697458
0.023687583920831183776
0.023823493730815190755
0.023925398756383903925
0.023991389517520500529
0.024027769113980836091
0.024045139098703153385
0.024058935461990536148
0.024083032569197811157
0.024137165007743151962
0.024275241669874637884
0.024471556684762259259
0.024672572802537991177
0.02486189006339723645
0.02502773643533200143
0.025165362161342682418
0.025275852984492620801
0.025366292786659944136
0.023358589620039858781
0.023333104453337707995
0.023316788567619026185
0.023290688253770383542
0.023274338112472821305
0.023247684380402998394
0.02323166873691681969
0.023205555583364113198
0.023190605169273768166
0.023165448849709894402
0.023152061197440110957
0.023128067731674535612
0.02311569045387638216
0.023093125991590739143
0.023081285233141322216
0.02305873150209331382
0.023047233284011866411
0.023024526526250387037
0.023013353870371577176
0.022986040612667298089
0.023917169834932455047
0.02387800301141618578
0.023857018660950125161
0.02384928391172080539
0.023849541397634805434
0.023854287076679549923
0.023873546803047929199
0.023944447622329757819
0.024062127161789730045
0.024151411663192515894
0.024220112439001659915
0.024286216073600472298
0.024364574264838581574
0.024467607183821401401
0.02459435304398558883
0.024739285030167760399
0.024890324532769708687
0.025033089304941504027
0.025157455785324547154
0.025256902011629864951
0.025335374031167947478
0.025398290621668768996
0.025460293611229825594
0.025532984151446579124
0.025623584294314393633
0.025736162846015764316
0.025864355433918958388
0.026001391994807186714
0.026134800324991158682
0.02625562213051875135
0.02635773016436437563
0.026440509446986101838
0.026510565182537384338
0.024531296396075683713
0.024513685798238052382
0.024485152205144876392
0.02446799299673856759
0.024439072060346019033
0.024422287697794742983
0.024393837576473596102
0.024378117105150347993
0.024350723835939485501
0.024336148477477587138
0.024309479652770523556
0.024295647009633505875
0.024270210953262864872
0.02425687829624118691
0.024231496861177773128
0.02421862530967687846
0.024193061732230101285
0.024180437037283571133
0.024149239388366237902
0.025069093866510575724
0.02506380698519488151
0.025064623628395944072
0.025072278272735126076
0.025104235357003984452
0.025204357702299569344
0.025320486652183771953
0.025409231339379001469
0.025475477073504115832
0.025531635303718224622
0.025592567701326576768
0.025669759517176479052
0.025773608143098175605
0.025903603211513311078
0.026056085493561684241
0.026219327619306689869
0.026380465009362460971
0.026525876339827000189
0.026645464492695052072
0.026739168065577523237
0.0268087929252348936
0.026864924972595564945
0.026919429324385287655
0.026982940749103439398
0.027062514172828809611
0.027160220636182581117
0.027272902996285021404
0.027394606569299047305
0.027518686785240421833
0.027639050717920402023
0.027752212930715836059
0.027858856579404716464
0.025789017737687710413
0.025770164036789857537
0.025739322207958117983
0.025721326573398033133
0.025690280291280558067
0.025673021441436488788
0.025642326662710827195
0.025625839798021118887
0.025595966336106213551
0.025579850792688735295
0.025550335255404829637
0.025534941255040254776
0.025506449140083885946
0.025491790453606544969
0.025463636474442892521
0.025449567793788676479
0.025421364703673603874
0.025407409232865049015
0.025372288099561147307
0.026578184924041250992
0.026576279107602674562
0.026576226543067106578
0.026575964854969370138
0.026573945651214188335
0.026569913459249170501
0.02656624727814495962
0.026563990270105537761
0.026565800258028085534
0.026581446348829765314
0.026638148736196666511
0.026789432078876771609
0.026991744881373916365
0.027212103983273377289
0.027442904822936580594
0.027668888953325029151
0.027871961787830183688
0.028040832384404936611
0.028166814541206470351
0.028256540110970024965
0.0283174537301958823
0.028362857638881314171
0.028406773436125527799
0.028461104876928620955
0.028532017367021902249
0.028622048861968570066
0.028731625727737040987
0.02885664079245763014
0.028995521908535239891
0.029142624980058606105
0.027095797689757977755
0.027062795302994935298
0.027043980718253660123
0.027011163756555205129
0.026993545473687666214
0.026960800299443855171
0.026943548110705872745
0.026911201110956475824
0.026893363990949263609
0.026860967231144401712
0.026843910061768758851
0.026812487416971831494
0.026796534000100111217
0.026765814994077204853
0.026750769418752599199
0.026720371462869010187
0.026705441647148765033
0.026667270520364522168
0.027798231017423905703
0.027775541530133094487
0.027759816245428618059
0.027751777131882447713
0.027747872045448054856
0.027747191355890050979
0.027750507381317093131
0.027770632437078578147
0.027849263382304003528
0.028027496600897990053
0.028222277445315191446
0.028430293682458942367
0.028653517637935371071
0.028886760786997641576
0.029116233200421053062
0.029326476156110281579
0.029498079234541903226
0.02962205561709349913
0.029698442684416966053
0.029739756214350657887
0.02976263073561200706
0.029787897859798160433
0.029834534211921538704
0.029913396995331954092
0.030027686176334295737
0.030174083405112260559
0.030345272242772482196
0.030527517326911765561
0.028569402183858970401
0.028536480625662552502
0.028516791696853935334
0.028484357155723529637
0.028466034309037237943
0.028433666462025240784
0.028415530857050161351
0.028382687129497843198
0.028363724899488802766
0.028330886039143479693
0.028312527243342065775
0.028280256973991248909
0.028263288920658945907
0.028231923038460920994
0.028216223566046135657
0.028184810892495051199
0.028169751655518132649
0.028134219360147177946
0.029278114063287941776
0.029271696927713440617
0.029270589497099184367
0.029273326543766318986
0.029284658607327734847
0.029322754456689990865
0.029415020159553245671
0.029514998542483295019
0.029622552846853181241
0.029752193560716698462
0.029912271744642796034
0.030101773466795361117
0.030311611359267000287
0.030524166312715053651
0.030722773936270493522
0.030891766057508984744
0.031023878334838061316
0.031121903092264598112
0.031194840593196118683
0.031257110332222247384
0.031323315012562850945
0.031406309347856119218
0.031511320313000794335
0.031638184243687632324
0.031781767050463385904
0.031935023569228462859
0.032091136351741607335
0.029772192165805656805
0.029731470232907595413
0.029701454674156479302
0.029661327518501083567
0.029630121113003917571
0.029589609637813263365
0.029558825555189408713
0.029516311328340281983
0.029485922105368874563
0.029443535420431651145
0.02941271239151715608
0.029372022617894899543
0.029342166954968419701
0.029302138168426236642
0.029271968803590953101
0.029231720377867094485
0.029201134485765865151
0.030092080944322200514
0.030091832944335771688
0.030093193971460478753
0.030101768923353838803
0.030132341229497077578
0.030207993813278689876
0.030274108542742365902
0.030320959156235758464
0.030361864235024179498
0.030412809617135039969
0.03048910580460642214
0.030595886548269068256
0.030736890133497830196
0.030904397389783566652
0.031087342628245171611
0.031273452991892651542
0.031453055839056553999
0.031627793151547532735
0.031798961735090384984
0.031978501530939708319
0.03216865827153705254
0.032370296095552503202
0.032577347521533885077
0.032776934484948783144
0.03295614619701543041
0.033102561715972450562
0.033212252063506378374
0.029748378865180249292
0.029715858944056955382
0.029651584323833624773
0.029618466309118855057
0.029552944766411709532
0.029519327313993110745
0.029452787208136339131
0.029418664211928922947
0.029350888365657155921
0.029316222844752538174
0.029247497418168486721
0.029212831400442347551
0.02914357907637771597
0.029108999417460170583
0.029020236470103728116
0.029028505038656910592
0.024201949615057633675
0.024212661040650760441
0.02423490224914217131
0.024291202396915352602
0.024366272568476104315
0.024432092347438472829
0.02447850746949285089
0.024503999093268075821
0.024513596618323904575
0.024515971044464353323
0.02451661913366794468
0.02451979770034894146
0.024529368704123123701
0.024555306875456719973
0.024631840964734526972
0.024816536374239181462
0.0250206095384017356
0.025219697469009767776
0.02542098795516690643
0.025623501334764205856
0.025828627738715956297
0.02603278866002250308
0.026229209986458373177
0.026408991728116195524
0.026561940029521370621
0.026681133504825760294
0.026761946110152683848
0.026811252405880853927
0.023794684784783137754
0.023735568223734043736
0.023702804643107776295
0.023643538299905172279
0.023611232515122801412
0.023552163050409202077
0.023520651135476910998
0.023461519198844430628
0.023431117196707165751
0.023372139020002319354
0.02334253961393760804
0.023283691095489538608
0.02325437911765110624
0.023180512325194045642
0.023197815640187274822
0.022522054278876376537
0.022647975955555357808
0.022773265669661285626
0.022880817580939682987
0.022958812981344226684
0.023006375232044084383
0.023030510576428565167
0.02304687640967046508
0.02307021180741087793
0.023120596109189855277
0.023211293031930587544
0.023338640391170811794
0.023492189604149334853
0.02365576006696247513
0.023810821720949060243
0.023940979607014016561
0.024038947454250714914
0.024108300603083946539
0.024159817465958900035
0.024210511017455946942
0.024275274490001139821
0.02436548157023056202
0.024485575321621370903
0.024629518319472756827
0.024788298475718079789
0.024944061175386667006
0.025084540676167738776
0.022374499493568515002
0.022351790976216118212
0.022308860113173182432
0.022285998166247499713
0.022242490615185458308
0.022219890166879027044
0.022176246121640985631
0.022154018487578440444
0.022110275344159012467
0.022088127594636741691
0.022044416661809340674
0.022022623929333337567
0.021970965049383103795
0.021965352899111584284
0.021792234099109835527
0.021820076764702208555
0.021890327755084384997
0.021970996067297868248
0.022034177467608204171
0.022078104814146373019
0.022113544294413495922
0.022156711534499596433
0.022221959728959527619
0.022315892458585378372
0.022433354448156514471
0.022563154087545660154
0.022686747808220244366
0.022790109549733910538
0.022866893482576686192
0.022918716834676854111
0.022958209290919035644
0.022999821663356446316
0.023060994430790508758
0.023153530850962542043
0.023282226861558581038
0.023443847354016555951
0.023624425742981434301
0.023808439132151405088
0.023976090150182014643
0.024114683949275291658
0.02155890449559956859
0.021518174716720385453
0.021496657147491833595
0.021455334670215760878
0.021433766662556003046
0.021392217188159905888
0.021370865676060592231
0.021329026180072679919
0.021307686095641251156
0.021265656007160960161
0.021244654351584575658
0.0211966123627506213
0.021188587529569428286
0.021029244775051823824
0.021028569741443507712
0.021029830371523658417
0.021036163823798987443
0.021058244390719595834
0.021128070599303314103
0.021262349575451550826
0.021405625884981110268
0.02155176420205552959
0.021691475722655801511
0.02181588049706601265
0.021915364910561535572
0.021987762161302715214
0.022037907924713429769
0.022074144770399244803
0.022110659557625974431
0.022160629566987319339
0.022236474210269741719
0.022343648889153879672
0.022480823751946675537
0.022641393710427851205
0.022810877921335931395
0.022975969058313283622
0.023120732454104578335
0.023236805603925467928
0.020695860518712121817
0.020675150312596434626
0.020635245748747782502
0.020614274063331942261
0.020573911130516531892
0.020552937009896979359
0.020512084962641650293
0.020491151266670771386
0.020450123534057049191
0.020429673183422671773
0.020383098040327587291
0.020375530597625278462
0.020273576644214998804
0.020312869169689429932
0.020431259498280264497
0.020567683954002151381
0.020660337378876007797
0.020712759365216149715
0.020743059419343620048
0.020772330604850650776
0.020815164907320580362
0.020876404677414507616
0.020950996342746726342
0.021029387892340260791
0.021102103715731960337
0.021165445635094030929
0.021222564797575060869
0.021283200457200245059
0.021357197777151816498
0.021454561845860937314
0.021578088602928875706
0.021728108795063118958
0.021895801280922843474
0.022072555362667129614
0.022243895506365032877
0.022398003640283870724
0.019584027669778167335
0.019739429692899098517
0.019875483919152125284
0.019976380077035338356
0.020043977971618647665
0.020090288837158645774
0.020128443198179690743
0.020169503634081781956
0.020217839918117951059
0.020273753973470743511
0.020333076446491422234
0.020391321611696145572
0.020446860162435222252
0.02050304089327676868
0.020567008917165310183
0.020646543939935105283
0.020748160199658898656
0.020872390496960640388
0.02101782101971222394
0.021174958730352140546
0.021335863617101730877
0.021486564251048383134
0.021618572839649796702
0.019030918167792249679
0.019092480926501141647
0.019150577754459701535
0.019214407111857220722
0.019287268702309061374
0.019369298974986317446
0.019457212479787339837
0.019543678050260086115
0.019622278694495516593
0.019689163169528248187
0.01974665746888326634
0.019800009377599344512
0.01985801109188442895
0.019928321160894556935
0.02001655545190775265
0.020123229532583667561
0.020244915767172490945
0.020373376517520181556
0.020499288602588559838
0.020614415967081810982
0.020713841026204944662
0.018473699719628991489
0.018587765907510822583
0.018727928592625280035
0.018879722280770758897
0.019025864378050517944
0.019149816498736715181
0.019241678083164598378
0.019300122283277695856
0.019333194153997038806
0.019353470554111684709
0.019376223068246038739
0.019413578240485406673
0.019473708907341635149
0.019557430019251378917
0.019660101661316674304
0.019772578236816704123
0.019885613940568147573
0.018345322429490440452
0.018482540578840474244
0.018594661809983658446
0.018680475001930495899
0.018743869733209961304
0.018795102782040998962
0.018843043093411292882
0.018896641624458126313
0.018960503269906413271
0.019034803888046604448
0.019116350594166758164
0.019197747616053053438
0.019274207259622644361
0.017680960798196254657
0.01774707693448139903
0.017804946424049557935
0.017858408608494254211
0.017918209927631212341
0.01798988778115951509
0.018076768153916865367
0.018175742920615370335
0.018279540822277812184
0.01837975680847499238
0.018467081314739428738
0.018537190205821021949
0.0090140138354645616553
0.0089886267546359296943
0.008989558515835115865
0.0090195850828566903612
0.0091677574927915769787
0.0097352204730852126557
0.011018162338444095413
0.012073395015380685227
0.01275110156767354265
0.01309448045893521137
0.013216503134061492047
0.013233365834642903808
0.013216658603839408215
0.013121732833298243442
0.012776557732712089804
0.012074829952724654841
0.01140266089544870326
0.010812556596052258842
0.010347969303517457959
0.010030729301464692133
0.019924827753521362483
0.019777484211644644208
0.019741078979435236485
0.0197532593050588276
0.019846360501745624605
0.020226999239852931634
0.021565493699411370648
0.023667985533382208951
0.025225731848191490503
0.026156133626013874233
0.026570687521263132436
0.026681297865413289294
0.026681427634572329327
0.026622399177176011426
0.026384713910521641334
0.025641096356287380181
0.024446008887641715313
0.02324945639670536468
0.022134089431450829077
0.021225733709464903592
0.020596438083577289085
0.020272299126525648166
0.066310131925547854959
0.066218105705378699222
0.066250860263380853543
0.066382355532720260793
0.06673498508496870929
0.067665909837608007038
0.070170832015750819743
0.073137613362409481521
0.075445103324786780274
0.076781431132361077641
0.077299869221578609846
0.077383305864705181909
0.077333416333000282172
0.077089530976231487869
0.076350108674856656532
0.074930459985774619525
0.073271869797714328509
0.071415084010678767101
0.069463735063741621767
0.06769588825674877075
0.06632376128507994073
0.065535516836627269455
0.065276542693492325964
0.06529389424653195273
0.065519735895468000919
0.066372371130711232956
0.35573983190871449889
0.35871254595423041067
0.36202934617841781018
0.36699062687309053077
0.37396641419038684218
0.38279636837974467811
0.39196192897070036842
0.39971857521700937532
0.40463183037834726807
0.40654427903878659345
0.40681427930002184157
0.40639992340727948417
0.4043164037757771001
0.39906384992192833749
0.39430240124488152853
0.3906827117932975546
0.3881134531833585477
0.38620408932077993081
0.38480437154668017952
0.38389722511255186532
0.38365596033645105178
0.3837728599961781617
0.38454926724453108999
0.38726845511896318408
0.39564910230383726342
0.40796081960325136784
0.41861648576429094648
0.42581853928562091172
1.7379374856621783163
1.7490160704950334924
1.7597018959613832667
1.7708840545410862166
1.7823030587283847925
1.7931599167049985244
1.8015840617062732765
1.8064036224517292517
1.8081136376602771065
1.8082047906384794977
1.8062830007919035147
1.7985400704583804909
1.7869358120766760667
1.7768831003791278889
1.7685855173762514703
1.7619690055832779585
1.7570860751697021662
1.7532495545384889635
1.7504771252380142421
1.7489953319751256888
1.7488078192406120159
1.749567411388541549
1.7534667296631201161
1.7640400838990570875
1.7757386615556538523
1.7847455231528579489
1.7901707006768070585
1.7918300237300959221
1.7916693011456918949
1.7891373727265977855
4.1552364520746030152
4.1461067139877556542
4.1368908666877173275
4.1275191321684996382
4.1174206633575405334
4.1057625916936348887
4.0918294715836731612
4.0754192627153562611
4.0570406808078045557
4.0377239558433606348
4.0187198212378598683
4.0011405893648781529
3.985698161459339417
3.9725690333630843121
3.9613825949575565133
3.9514526621777967819
3.9421638125684874687
3.9331645448917442742
3.924416294063145294
3.9160066071393253573
3.9079324579839322951
3.9000255544431685628
3.8917759388870103443
3.8826145725533440789
3.8718475431920555963
3.8590172648630782781
3.8440932343815692462
3.8274801542382022035
3.8100771341741186404
3.7927750211713378015
3.7763689484445177591
3.761514511132793892
6.0587801894109265533
6.0363625427790390532
6.0137466583574425982
5.9907400992507753301
5.9675248135594625154
5.9444848037182245193
5.9220218200085783522
5.9003190277035555411
5.8792711615229737987
5.8586497611906640515
5.838303429400866662
5.8184894624796053009
5.7995259952810496173
5.7815813494490120306
5.7645976525987236982
5.7482784035358340802
5.7322830332656309338
5.7163642916813239836
5.7004043880520658405
5.6843691382907035603
5.668281576865068061
5.6522085356811047063
5.6361618358606220269
5.6200937875584910941
5.6039348518068710092
5.5877701448569396803
5.5718167081048477485
5.5563774023147312064
5.5415945958047068132
5.5275282795061642105
5.514104484131959083
5.5012819515150335192
5.4888968590174673778
10.258877123323435043
10.156046553991675552
10.058320337335716843
9.9635437003510816112
9.8703988818518055837
9.7791434631394125176
7.3338537637646963319
7.3127160192898710278
7.2908168494219900424
7.2682873416326021498
7.2457395901405599048
7.2239215649871706404
7.2033630186485426705
7.1840520010006638785
7.1654623353679847142
7.146998651353568377
7.1284481161834705176
7.1100273380727943007
7.0922938260858767734
7.0755953375821016849
7.05987626079262931
7.0447400408350739909
7.0297201760888450295
7.0145296473760438971
6.9990973706325592119
6.9835087588075710485
6.9679348420090132521
6.952554535742766717
6.937440538341590468
6.9225336817714246962
6.9076981083299369146
6.892935399520238704
6.8784262477733140173
6.8643945002502331221
6.8509590625356828753
6.8380206079432648281
6.8254162693609332635
6.8129374907089355062
6.8005768452241879274
6.7881989874675623398
9.6718527762360224642
9.5769461707778713588
9.4866215621908978051
9.3971733839378330799
9.3062350101811279757
9.2148472463742798766
9.125551554889383965
7.1360656065219103539
7.1052514767517287453
7.0734808065577174929
7.0427088493372433931
7.0144508880744504964
6.9891463691708528572
6.9660468259184380457
6.943870916870101162
6.921484730717079259
6.8987186981578014766
6.8764062859896899482
6.8556549248125442375
6.8369038003006066262
6.8195392027301249271
6.8022876823698288362
6.7839609533543230313
6.7639381946473795537
6.742368043722859916
6.7199340404793366233
6.6974910538465852738
6.6757201814904005843
6.6549790607052230484
6.6352549854183413558
6.6163764750803641945
6.5983406739880825498
6.5813618232055208779
6.5656318398996216246
6.5510879814024605139
6.5374109729778488997
6.5241598412406096585
6.5111096334247413608
6.4982861737279717929
6.4858642341880736737
6.4740138707470320512
6.4626473930627374997
2.0986024296095150969e-06
2.1051395858694851365e-06
2.1093292142665580491e-06
2.1177632411090536225e-06
2.1237871412828388523e-06
2.1351348773752121878e-06
2.1417196644710197112e-06
2.1519943816649222918e-06
2.1591236531093620551e-06
2.168589514560063428e-06
2.1755250291346225659e-06
0.00018341782828951825419
0.0001616723415897333802
0.00014282276071794688249
0.00012690113279257962285
0.0001136751421144985123
0.00010282553135547701205
9.4034875097758906411e-05
8.7031184828379788308e-05
8.1526048913801332069e-05
7.7240536990027367534e-05
7.393311042532380408e-05
7.1414341362599243488e-05
6.9528149765311157682e-05
6.8169481037273278084e-05
6.7232896144914605055e-05
6.6619735569658900909e-05
6.6219358350640743845e-05
6.5933654360822180904e-05
6.5700524365074687875e-05
6.5530804385417911243e-05
6.5429141731428161542e-05
6.5385956279369789089e-05
6.5386572464534855687e-05
6.541706126042702964e-05
6.5573319931062210215e-05
6.5937498040496053653e-05
6.6235492095490758509e-05
6.6450159700735900799e-05
6.6606191714855815414e-05
6.671514022614485125e-05
6.6782256734737593809e-05
6.6822444056984574659e-05
6.6851736935462089989e-05
6.6890877534200176993e-05
6.6973930094198975862e-05
6.7193603063856995397e-05
2.1825802899502342134e-06
2.1816230293569625532e-06
2.1813431660974391433e-06
2.1814882492326124352e-06
2.1817707365091885136e-06
2.1823595971997281811e-06
2.183727228390336959e-06
2.1853540664466255408e-06
2.1873293036404114348e-06
2.1890816764796573443e-06
2.1911044125727454574e-06
2.1964333705896674692e-06
2.2011630071622300504e-06
2.2110703464186635009e-06
2.2180515101018866923e-06
2.2303875195871361364e-06
2.2375652576677711739e-06
2.248131562578941146e-06
2.2554174037951349854e-06
2.2656683557397958761e-06
2.2723031635082781849e-06
0.00019284012516849688163
0.00017339437533702762619
0.00015656289070897967284
0.00014187853183851071681
0.00012891312283113868327
0.00011734234685924689351
0.00010704593857171583319
9.8028875689501208317e-05
9.0312617895812883273e-05
8.3886004221107692068e-05
7.8672217554999712653e-05
7.4566267142114762002e-05
7.1409511681240679269e-05
6.9036934551589755312e-05
6.7278203628090695954e-05
6.5985847574487604007e-05
6.5052720552580438405e-05
6.4364595543327498476e-05
6.3858958769098616128e-05
6.3521265886933879681e-05
6.3340268303953409018e-05
6.3265615984327576351e-05
6.3256354061958929187e-05
6.3280272833054167355e-05
6.3412452937805678719e-05
6.3926906736396372621e-05
6.5098769485762454363e-05
6.6257643953709392999e-05
6.7300353139724137575e-05
6.82097504364378277e-05
6.8953076151667005533e-05
6.9507336978278191388e-05
6.9867898250244707013e-05
7.0059329686985327723e-05
7.0136259736281209996e-05
7.0158920077131563665e-05
2.2916415160988191437e-06
2.2918450500740607115e-06
2.2919292015486333743e-06
2.2913379442644390097e-06
2.2894707657248776624e-06
2.2881939400346584732e-06
2.2880198060854194685e-06
2.288234660069045374e-06
2.2890605063225843654e-06
2.2905598791501903525e-06
2.2921526842108808592e-06
2.2965821711650646742e-06
2.3009047679514076268e-06
2.31052280392262849e-06
2.3182700142588475153e-06
2.3312428563970812564e-06
2.3389257450833110543e-06
2.3497835458912911169e-06
2.357943061398565149e-06
2.369576948483032357e-06
2.3772057283761761242e-06
0.00019177505745490309856
0.00017139525428685477813
0.00015365520144073794261
0.00013819029839021434178
0.00012467493767967616648
0.00011288341373077312121
0.0001026782268790118834
9.3966958582903701929e-05
8.6668051966672275612e-05
8.0679480193665773229e-05
7.590819616536526157e-05
7.2219703668288955209e-05
6.9476709588044014082e-05
6.7515301726113772845e-05
6.6210713636742532214e-05
6.5409732888458549513e-05
6.4976297872674791179e-05
6.4781275587585360502e-05
6.4733205545387424175e-05
6.474337193532071755e-05
6.4844202340440983546e-05
6.5247490104539560495e-05
6.6093936754636065166e-05
6.6867499437877551656e-05
6.753969887349533499e-05
6.814446066821958439e-05
6.8720062439195611463e-05
6.9291219325411034196e-05
6.9858135586363216685e-05
7.0421891534515804038e-05
7.0960558318027794713e-05
7.1438100607368196573e-05
7.1808581122198716115e-05
7.2055030658166245952e-05
2.4101593785699930843e-06
2.4099755141552112873e-06
2.4085177940182576513e-06
2.4059290518542709993e-06
2.4045070029773568077e-06
2.4041473109910296873e-06
2.4042731219327418958e-06
2.4050717678172582897e-06
2.4065925198090024759e-06