/*--------------------------------*- C++ -*----------------------------------*\
  =========                 |
  \\      /  F ield         | OpenFOAM: The Open Source CFD Toolbox
   \\    /   O peration     | Website:  https://openfoam.org
    \\  /    A nd           | Version:  12
     \\/     M anipulation  |
\*---------------------------------------------------------------------------*/
FoamFile
{
    format      ascii;
    class       volScalarField;
    location    "0.0073";
    object      p_0;
}
// * * * * * * * * * * * * * * * * * * * * * * * * * * * * * * * * * * * * * //

dimensions      [1 -1 -2 0 0 0 0];

internalField   nonuniform List<scalar> 
106891
(
99802.369885961743421
99790.868859627633356
99785.485940819969983
99786.42804262941354
99793.021498766815057
99803.992038772004889
99817.848356568487361
99833.129718121606857
99848.411355179836391
99862.636027538814233
99874.969349984661676
99833.565253070206381
99812.825142282541492
99788.411573207136826
99765.266332397790393
99749.034476439483115
99744.041594779890147
99750.804290464322548
99765.84996097185649
99784.25676878883678
99801.782622903963784
99815.420947566817631
99823.752670482266694
99826.777031511446694
99824.922542851025355
99820.079219161576475
99813.634161449503154
99807.706426886361442
99802.657774627921754
99796.2440971929027
99786.114402083083405
99772.14091466597165
99757.510579025067273
99747.676554670979385
99746.69252314856567
99754.207398332568118
99766.321604309821851
99777.182261810114142
99783.717713961799745
99784.471430729390704
99778.602981218442437
99764.850171758196666
99742.184624858287862
99711.769668639666634
99678.34522952073894
99649.059167593106395
99630.139591694693081
99623.888707814840018
99628.030616059942986
99888.900900873311912
99899.15863395021006
99903.097084266802995
99899.969967862853082
99890.055180931623909
99874.624355326130171
99855.761574377786019
99835.996422715106746
99817.872859300579876
99803.560545463260496
99794.566803349298425
99791.567569472652394
99794.352773079706822
99801.973564175423235
99813.038679595614667
99826.149450050725136
99840.261197167026694
99854.617470143930404
99868.795540723192971
99882.285333402527613
99801.349372249605949
99776.711494277784368
99753.68003756107646
99739.319903672323562
99738.116651603486389
99750.10827218722261
99770.475255723416922
99791.789254018440261
99808.25427491197479
99817.511941221135203
99820.065489612257807
99817.93217618210474
99813.553794778999873
99808.491185065780883
99804.025446848201682
99800.346530816765153
99796.554554311005631
99790.215495450698654
99779.075638256719685
99763.432016964172362
99747.231315142140375
99735.646256353080389
99732.57189122310956
99738.664936138622579
99750.694657389598433
99764.021845946146641
99773.940946733520832
99777.778169471101137
99773.679622224270133
99760.22774941114767
99737.159187565077445
99706.823008823179407
99674.650600021865102
99647.602584057269269
99631.186962095991476
99626.774734772086958
99895.576788577032858
99903.856929422254325
99905.386509088421008
99899.857850355750998
99888.063757799376617
99871.753562556215911
99853.29797979547584
99835.25200808334921
99819.899994665116537
99808.890631690854207
99803.076398250326747
99802.558142461202806
99806.784054219548125
99814.722166057617869
99825.085702497977763
99836.653633907000767
99848.696653139544651
99861.002971156645799
99873.858495644977666
99887.349190515291411
99791.393387704840279
99769.40420466804062
99750.373706091253553
99740.749737378238933
99744.70604763677693
99761.284628659050213
99784.027785258716904
99804.079171335935825
99815.166598845724366
99816.303329540780396
99811.025680367223686
99804.267964906845009
99799.541593338697567
99797.511959941475652
99797.225450381010887
99796.536154770859866
99793.268448316448485
99785.856367070649867
99773.494259015686112
99757.738421080124681
99742.087721263684216
99730.805706478684442
99727.123518463631626
99731.81395044621604
99742.666828657165752
99755.660160026323865
99766.603332927377778
99771.941305234940955
99769.266006049074349
99757.310493738332298
99736.267375078328769
99708.855378357184236
99680.499885117911617
99657.660137961851433
99645.19566979042429
99644.170990005819476
99903.556469704461051
99903.200318116447306
99896.687713530365727
99885.062446720912703
99870.164262073973077
99854.274880399985705
99839.662132186029339
99828.186986852771952
99821.016498371696798
99818.487721943864017
99820.20481824046874
99825.292288997850846
99832.714022023283178
99841.513034522053204
99850.945338640434784
99860.684388911555288
99870.792598178450135
99881.818975833724835
99894.231197185785277
99767.747706206209841
99755.472257644476485
99752.281593200939824
99761.074653034942457
99779.929999236162985
99801.391485046246089
99816.223868206798215
99818.825119756758795
99810.678565741807688
99798.082608197335503
99788.13078446900181
99785.127752419139142
99788.750248285679845
99794.426670118031325
99796.80700683426403
99792.726506226128549
99782.471762426401256
99768.809408869332401
99754.939060941527714
99743.603373773425119
99736.861918913273257
99735.670906804050901
99739.816817753235227
99747.895004336634884
99757.441074448317522
99765.52476495783776
99769.490259946498554
99767.288856252780533
99757.856056623117183
99741.803473763662623
99721.612293432393926
99701.535423342342256
99686.572632431503735
99680.432643890948384
99893.620564660144737
99897.253001126518939
99896.050364755283226
99890.55226506809413
99881.765510331111727
99871.089155857654987
99860.166295773655293
99850.620911257035914
99843.742410945225856
99840.281187461034278
99840.359525977313751
99843.517646790627623
99848.916910296378774
99855.635803325858433
99862.969517393634305
99870.563563835879904
99878.461064722752781
99886.931119674613001
99896.510607905423967
99907.646560817724094
99771.78764080919791
99766.222241770010442
99768.342369038276956
99779.501995975282625
99797.075034647641587
99813.896535393156228
99822.19873700622702
99817.883700630845851
99802.984282599980361
99785.21781324625772
99774.201302150482661
99774.947970166424057
99784.580144478022703
99795.214691816348932
99798.950482914442546
99793.13866080493608
99781.04474261571886
99768.403913334666868
99759.742848487192532
99756.39725068018015
99757.278860303456895
99760.814699367561843
99765.41880432140897
99769.986452119410387
99773.675883742849692
99775.811696461954853
99775.746861413790612
99772.946872802742291
99767.195864002060262
99759.029505439684726
99749.435042664728826
99740.438768286141567
99734.878558494267054
99885.089108458632836
99884.311561608381453
99881.66022040322423
99877.893068952311296
99873.672935977127054
99869.593545500814798
99866.242924059304642
99864.188969938419177
99863.864071238349425
99865.464596199890366
99868.916363532756804
99873.930480359951616
99880.104029626265401
99887.043059173229267
99894.461558330847765
99902.311978680139873
99910.66164165387454
99919.723307679960271
99929.725465740179061
99779.968143506543129
99783.753617210619268
99792.519282020526589
99804.275683590472909
99815.01162704564922
99819.363049426814541
99813.092260655292193
99797.15224763363949
99779.153406194658601
99768.7313413227821
99770.783022208808688
99782.286987817278714
99794.582658856335911
99799.494671725027729
99794.87972668375005
99785.304656166917994
99778.100035995536018
99777.921884742405382
99784.513473926737788
99793.853596063461737
99801.791033441957552
99806.268654027284356
99807.165617459118948
99805.217830189023516
99801.328057964652544
99796.751970770565094
99793.077046059537679
99791.323971074612928
99791.410933565945015
99792.809642282998539
99795.234939692745684
99799.404981548796059
99868.88665904487425
99869.679685786351911
99871.228125437759445
99873.665730552180321
99876.713560095508001
99879.844387377306703
99882.561732960210065
99884.69108685181709
99886.48830833689135
99888.530548284878023
99891.489347853610525
99895.889452701245318
99901.9852071365749
99909.73691234953003
99918.802685397691675
99928.717412362369942
99938.939464209775906
99948.990491033560829
99958.607018550465
99793.672704208249343
99795.017091430170694
99798.341323986300267
99803.73002200598421
99807.963130139236455
99806.389831319334917
99797.451757278744481
99784.928189408165053
99775.533525920182001
99774.393287177823368
99781.588419982959749
99792.152900602362934
99800.079874085393385
99802.846111223028856
99803.269633708740002
99806.397275740921032
99815.20984547790431
99828.573462450396619
99842.268812485548551
99851.877010804179008
99855.490795311692636
99853.732477454526816
99848.519499816859025
99842.070212491438724
99836.582796141941799
99833.96181771751435
99835.433518919351627
99840.989016526204068
99849.697966263396665
99860.309989542729454
99856.052265061225626
99861.623919520061463
99869.508304548624437
99878.565058483771281
99887.355179594102083
99894.611107192162308
99899.648899608160718
99902.644314257413498
99904.576483974597068
99906.881992090071435
99910.951041924607125
99917.663913188487641
99927.227537973143626
99939.129325964167947
99952.381200360454386
99965.719011170876911
99977.825924569013296
99987.783096317682066
99788.110223361494718
99783.563306470474345
99785.460897254131851
99793.079492830307572
99801.512621551417396
99805.139316417873488
99801.390080348472111
99792.77320213369967
99785.485986371742911
99785.344966177028255
99794.051432900043437
99809.05721669360355
99826.413272215344477
99843.604882512037875
99859.802482696730294
99874.585128925449681
99886.726717221245053
99895.235561045599752
99899.737231965074898
99900.809917154780123
99899.892553052064613
99898.08811973547563
99896.017529605538584
99894.365178395426483
99894.268853200992453
99897.064467736316146
99903.728324527124641
99914.426399677264271
99849.14268567453837
99857.306945189106045
99867.906031339240144
99879.532282718908391
99890.495781814228394
99899.369235433812719
99905.451131718466058
99909.000032242693123
99911.175252332905075
99913.691958956595045
99918.293421082911664
99926.194681740293163
99937.713081806185073
99952.172884718645946
99968.171419004516792
99983.890881962084677
99997.482850958025665
100007.66738620307297
99770.067850997700589
99770.762980212282855
99782.865402278417605
99801.514157635712763
99817.440908134289202
99822.933768185728695
99817.305095454867114
99807.684745433245553
99804.492441487323958
99815.05280653029331
99840.006763826764654
99873.79743216787756
99907.728573168831645
99934.050065749877831
99948.438336662045913
99951.073514891511877
99945.891990574644296
99939.119598549776128
99936.235748289880576
99938.843302279768977
99945.026565668944386
99951.515519035572652
99955.994507785042515
99958.512389290524879
99960.968620507672313
99965.800921422036481
99974.60962270127493
99860.947670431502047
99870.605687180053792
99880.29930824789335
99889.018932571430923
99896.073148952185875
99901.326381146209314
99905.239766971557401
99908.754163715013419
99913.081028071275796
99919.424410491876188
99928.652401072700741
99941.00691812846344
99955.907196530097281
99972.091379743869766
99987.85920155623171
100001.38535592785047
100011.32510069968703
99772.869507984592929
99766.249638821478584
99770.319222678343067
99786.908946653187741
99811.688242969627026
99835.69117215591541
99850.289899256589706
99852.874019734052126
99848.949554930484737
99848.919326877163257
99862.341079534468008
99892.789535668853205
99935.456010402471293
99978.745431539267884
100009.91636965259386
100021.10167345921218
100012.74764859683637
99993.242516512487782
99974.318220244545955
99964.560050075640902
99966.123275214733439
99975.275505678990157
99985.876672610465903
99993.613903543067863
99997.858920967220911
100000.98777423692809
100006.08943187825207
99876.933527970482828
99881.319450556809898
99884.84151488164207
99887.952020166776492
99891.137238470822922
99894.893766594454064
99899.69577497355931
99905.951227570243645
99913.93700286449166
99923.722496890637558
99935.169230388055439
99947.882603124075104
99961.237261765738367
99974.365810117233195
99986.172090953536099
99995.661602552048862
99772.64912055892637
99772.167589032440446
99782.9228952555859
99804.847919929699856
99832.960380804070155
99859.545927459228551
99878.710958236115403
99889.255771093085059
99894.710334338364191
99901.984712791832862
99918.278285067892284
99947.107295624431572
99985.418177139086765
100024.13915624408401
100052.09653234295547
100061.03899677013396
100050.46660589406383
100027.82666584620893
100004.12295563338557
99988.443142951393384
99983.60632017419266
99986.139689112213091
99990.946746720408555
99995.241746523839538
99999.25627947623434
100005.07578551811457
100014.28144360744045
100026.25476672656077
99882.854732243140461
99882.113510971466894
99882.055055161967175
99883.463270188585739
99886.640032868483104
99891.490791199481464
99897.698348842095584
99904.915469021303579
99912.894150059990352
99921.541015989045263
99930.837430050669354
99940.743670807991293
99951.058619701085263
99961.282905365311308
99970.75526081067801
99783.8365074852627
99800.482461276682443
99825.862188290964696
99854.598508903305628
99881.094153151731007
99902.593333473167149
99919.20314494620834
99933.083630776964128
99947.224955656653037
99965.016107819974422
99988.518226254920592
100016.52548826653219
100043.97399892444082
100063.55101072471007
100069.4678941971797
100060.82898343898705
100042.43108417607436
100021.97309061954729
100005.56996778526809
99995.272733826626791
99989.78927818244847
99986.974995448224945
99986.073511792041245
99988.669170966590173
99996.18719957099529
100007.99875625068671
100021.41603006466175
99881.670899614910013
99880.0789312068664
99880.420406244345941
99882.769458392009255
99886.678146473830566
99891.470285001196316
99896.581147876364412
99901.803352386079496
99907.332060637636459
99913.570122867473401
99920.8959002202173
99929.430545252282172
99938.899370642873691
99948.697215978696477
99821.75808031213819
99848.536179915856337
99875.899620772746857
99900.966678203461925
99923.412189006470726
99944.475874524199753
99964.843064610395231
99983.834777390235104
100000.72011381524499
100015.95454367664934
100030.33590066207398
100043.47761117147456
100052.81829089045641
100055.05880211433396
100049.34571886074264
100037.93089425584185
100024.36034451985324
100011.42919750112924
100000.13717465754598
99990.303767220553709
99982.133282987619168
99977.492370126652531
99978.488515629054746
99985.57652666188369
99996.371164434953243
100007.42134915354836
99880.460324711923022
99880.423451021459186
99881.885407759516966
99884.238356226400356
99886.818986384329037
99889.23505733035563
99891.54157346287684
99894.226399309904082
99897.991114798467606
99903.447698429052252
99910.853722224972444
99919.966683930397267
99930.090352278217324
99870.487262529451982
99895.740645787242102
99918.662957403765176
99940.911294801640906
99963.664425851777196
99986.060793537297286
100005.28674401249737
100018.40725634526461
100024.93441381645971
100026.9588046176068
100027.07161845381779
100026.45616879689624
100024.65484849203494
100021.19293794171244
100016.30801105016144
100010.94668399487273
100005.02039143524598
99997.706033413182013
99988.889255124464398
99980.009494572863332
99974.108521199625102
99973.52207414752047
99977.646424984079204
99983.300264259509277
99987.774192601442337
99881.996943683116115
99882.853735343393055
99883.753142920613755
99884.232609066122677
99884.232269694563001
99884.141918119901675
99884.706753845544881
99886.776089307662915
99891.00316961563658
99897.631855564352009
99906.363271031426848
99916.412151017400902
99912.515730610990431
99933.489567227108637
99953.666895128015312
99974.779128884722013
99995.180465754980105
100010.44098378885246
100016.99728217509983
100014.92961256272974
100007.49463458263199
99998.670757616637275
99991.116854781139409
99985.868216000788379
99983.002217722052592
99982.695748534635641
99984.806471333664376
99987.415116077288985
99987.968340816150885
99985.134076984686544
99979.914487743692007
99974.961549012194155
99972.233614136974211
99971.094954689659062
99969.178330165523221
99964.86764436023077
99943.735650350587093
99961.579241137194913
99978.881990548004978
99993.282957733448711
100000.81371740577742
99999.151084626617376
99989.494987053069053
99975.785888153564883
99962.351595421801903
99951.556712329052971
99944.430230329497135
99941.736308846739121
99944.454011471927515
99951.904726012478932
99962.210437371672015
99971.945627799344948
99977.675229892076459
99978.341775143722771
99975.240083784607123
99969.879391392372781
99962.384207892799168
99951.982748167269165
99939.427713343669893
99975.196207828717888
99981.238684929805459
99979.665697330507101
99969.890689502324676
99954.132958441769006
99937.008311277473695
99922.436760851574945
99911.815012807477615
99905.165540480753407
99903.122894925982109
99907.002935393873486
99917.642814873805037
99933.894237583706854
99951.760419453537907
99965.868983546068193
99972.419723756393068
99970.693497407643008
99962.004948780420818
99947.959101248532534
99930.190807477047201
99911.835225356771844
99914.88554701389512
99897.09261222621717
99883.700853537942749
99874.898543839764898
99869.703512966487324
99868.31104052370938
99872.807670259659062
99885.429928548415774
99905.795135952474084
99929.474350723816315
99949.563544285338139
99960.084981822350528
99958.549068701220676
99946.136602787897573
99926.110083432853571
99902.826605527065112
99881.681241504935315
99839.195663913415046
99838.40844884289254
99843.093599499858101
99856.639063419090235
99879.290356408906518
99906.234856591254356
99929.42917937655875
99941.411583275708836
99938.517363422186463
99922.043356284135371
99897.140850622396101
99870.81140294240322
99849.91610328911338
99813.707199535972904
99817.957464077873738
99831.408860972631373
99854.58592752351251
99882.382310362503631
99905.936663732427405
99916.902355385216651
99911.28364677427453
99891.049172569561051
99863.081621159741189
99836.189528169852565
99817.735765029487084
99515.346153168138699
99515.174374675363651
99518.188839156733593
99520.362536945889588
99518.158789952765801
99512.149393124316703
99508.400879871827783
99513.789822344624554
99530.914367188364849
99555.160396646446316
99579.11088047910016
99596.492927535131457
99605.057470022133202
99605.461614775995258
99599.858911144037847
99590.608415090799099
99580.965093222475844
99573.67940614685358
99569.526534171091043
99567.536771754661459
99509.449295919199358
99503.28479267549119
99504.839176933470299
99509.721394603067893
99511.644004796384252
99506.878278032963863
99497.98279655778606
99492.805396849071258
99499.191001512750518
99518.645592790955561
99545.825127180942218
99572.213265161844902
99591.157780894587631
99600.263145201315638
99600.556686077543418
99594.545522368411184
99585.351328399119666
99576.11725731419574
99568.805761081661331
99563.587443688476924
99559.925192784605315
99558.174818253071862
99543.044951560441405
99518.7412132191821
99499.890130557192606
99492.312688096411875
99495.551757743422058
99502.499179903461481
99504.183183421831927
99497.132961055613123
99485.45865587911976
99479.04672716766072
99486.346485313057201
99508.056300433076103
99537.93963105052535
99566.531262431468349
99586.896716979477787
99596.395647387544159
99596.397065871991799
99590.109631604194874
99581.130935910841799
99572.387263311582501
99565.075441777487868
99558.866121128652594
99553.503380759138963
99550.365294823030126
99551.333447431330569
99556.864027676769183
99574.387482982463553
99547.098553804971743
99515.208728377299849
99491.204932299995562
99482.568231818499044
99487.529935500875581
99496.356993930297904
99497.997174959120457
99488.719256723023136
99474.609416821083869
99467.110183016528026
99475.224147579283454
99499.171086909729638
99531.44474508127314
99562.009972073370591
99583.528399800634361
99593.335923723381711
99593.068564828354283
99586.51029532784014
99577.740542439598357
99569.481680230412167
99562.15059736018884
99555.01907299287268
99548.178108508946025
99543.748798136308324
99544.404014994433965
99550.322449518833309
99559.267821453191573
99599.319985644455301
99584.585521361819701
99550.771833190170582
99512.193214342143619
99483.76782104918675
99474.164246011772775
99480.720446344697848
99491.582456423464464
99493.250516982021509
99481.953913794859545
99465.555348264591885
99457.028975378751056
99465.830463924241485
99491.818971885950305
99526.273569939468871
99558.603147585774423
99581.03931395613472
99591.018434616999002
99590.389963486246415
99583.561129816400353
99575.047499158681603
99567.316594606323633
99560.106866996429744
99552.130723649970605
99543.862297957428382
99538.300990809817449
99538.610861917200964
99544.959549890452763
99554.388985925819725
99562.673468107081135
99598.28933229210088
99610.900277672582888
99593.433584570389939
99553.851970090312534
99509.310915768553969
99477.092272299953038
99466.879733565510833
99475.202942474992597
99487.71345817175461
99489.574790613231016
99476.617490116157569
99458.160005446581636
99448.825490871036891
99458.310313847119687
99486.007388292258838
99522.495576755245565
99556.298242476099404
99579.434421308338642
99589.509459751527174
99588.554626108816592
99581.362462811288424
99572.997932995072915
99565.79405203803617
99558.630944086035015
99549.860197346817586
99540.360765368299326
99533.882299088305444
99533.963093896469218
99540.7253892183071
99550.600174578721635
99559.16280809341697
99563.698534234063118
99606.68914344276709
99620.264512340698275
99600.610756285022944
99556.325452378863702
99506.943436846515397
99471.827975474778214
99461.288333675736794
99471.231876168269082
99485.34855247476662
99487.325385757154436
99472.833322397767915
99452.49264869534818
99442.397722752313712
99452.46600963549281
99481.617265092165326
99519.845016345541808
99554.875864577028551
99578.591930186899845
99588.670502383771236
99587.335880641723634
99579.81795959865849
99571.558097340617678
99564.760033701692009
99557.702077872818336
99548.305528757351567
99537.805856114064227
99530.541830863730866
99530.506882834000862
99537.652589391364018
99547.92387531681743
99556.682274682883872
99561.328465724451235
99561.881666591507383
99440.690477062482387
99481.172824557317654
99551.018818350261427
99606.943333501345478
99628.453155689465348
99630.056607329766848
99612.722921604756266
99626.968991303525399
99605.731555397767806
99557.982840280368691
99505.012171717098681
99467.855080873399857
99457.166232539500925
99468.56730028266611
99483.950883951532887
99485.940696421166649
99470.428637176912162
99448.642547928291606
99437.897650361366686
99448.431843066849979
99478.741437910095556
99518.244668439030647
99554.166949380727601
99578.271957215867587
99588.273717347357888
99586.624538832053076
99578.839235066567198
99570.61773186083883
99564.091172359359916
99557.144133267152938
99547.26505885606457
99536.041540397884091
99528.253359180453117
99528.124868066937779
99535.610056737321429
99546.219503562606405
99555.130786942652776
99559.829009775305167
99560.538481366675114
99559.567625659998157
99445.65458605614549
99437.95745442835323
99479.308065474469913
99550.972159283352084
99607.754456631620997
99628.807668407360325
99629.395467354013817
99615.996029308385914
99630.528946364749572
99608.352233147641527
99558.756713882728945
99503.813996007709648
99465.665194255416282
99455.115797197227948
99467.265310749789933
99483.401927346814773
99485.376714492900646
99469.198152250042767
99446.571632588165812
99435.45592337117705
99446.320327541950974
99477.336608911922667
99517.532017180899857
99553.937540108454414
99578.243090408461285
99588.171690709903487
99586.333631128101842
99578.359353457548423
99570.168431557540316
99563.77925379309454
99556.893642639508471
99546.796092116113869
99535.192537488226662
99527.150339955638628
99526.958682841519476
99534.63566126387741
99545.436781101670931
99554.405394187095226
99559.099742307298584
99559.86798367749725
99559.04788164155616
99559.784800920169801
99806.562658869021107
99796.825565369406831
99788.420236252306495
99782.363892130582826
99779.207666463000351
99779.059704068509745
99781.69854376569856
99786.586381001936388
99792.937791460906737
99799.980385257425951
99806.920637866307516
99842.031903106922982
99836.013483435512171
99824.230616585264215
99811.156908463832224
99801.342351991057512
99797.197815143241314
99798.637959901825525
99804.580471817258513
99814.06794763628568
99825.882008742715698
99838.142561334505444
99848.433043856945005
99854.676731937637669
99856.022727889227099
99852.573878089373466
99844.334285891323816
99830.878895547211869
99812.75884986386518
99793.433300604563556
99779.10465281001234
99774.455202921861201
99779.846733360755024
99789.644077552104136
99794.881129454806796
99789.281370467520901
99773.742485274473438
99756.000921246522921
99745.389576399044017
99746.684729350541602
99757.382163192145526
99769.305725881989929
99773.722538838381297
99767.071354516141582
99752.03952072148968
99735.244172885577427
99722.226529594205203
99817.810604636571952
99818.650419543278986
99821.727792875070008
99826.396652998009813
99831.432906057932996
99835.348302368191071
99836.758497531729518
99834.753090909580351
99829.149879292381229
99820.566192962927744
99810.27822772381478
99799.925402585955453
99791.117278206293122
99785.078598517589853
99782.449423340905923
99783.257530858580139
99787.090163307613693
99793.285716486265301
99801.056154105637688
99809.678684866739786
99818.380887510429602
99827.169006115727825
99825.028723229785101
99819.116883232753025
99813.245205289393198
99809.88729345156753
99809.255755650869105
99810.034586824142025
99811.169645595684415
99812.962320117556374
99816.068443506374024
99820.304024887445848
99824.36495514701528
99826.407520605280297
99824.957275681110332
99819.24044224973477
99809.039003386133118
99794.825896945141722
99778.699621264793677
99765.227126367113669
99760.498954155133106
99768.682138305186527
99787.510214448047918
99808.695090448280098
99821.222932973425486
99817.97706426140212
99800.269828696837067
99777.378487659618258
99760.351418893231312
99755.618325879637268
99761.722262552240863
99770.696096755869803
99773.613490175252082
99766.367603247112129
99751.625026645007893
99735.37320484558586
99723.625284739842755
99827.602885596090346
99826.557648039917694
99827.987494974862784
99831.502726183054619
99835.887920969282277
99839.517926968386746
99840.887178913035314
99839.053154784414801
99833.862304719092208
99825.917823075840715
99816.378740165222553
99806.723172282363521
99798.480266095692059
99792.938703580846777
99790.89631772285793
99792.475631527995574
99797.191007798479404
99804.250825757713756
99812.828048875599052
99822.283457818892202
99831.99820534234459
99823.6988517617865
99824.291724920592969
99824.672527308328426
99825.422930002809153
99825.590941578964703
99823.75716451201879
99819.400788171915337
99813.601102926841122
99808.186291672594962
99804.083450668244041
99800.846739411936142
99797.499092779646162
99793.016132142074639
99786.256757833340089
99776.35519307127106
99763.649936548608821
99750.878944466836401
99743.430147590421257
99747.385527567050303
99765.965360582675203
99796.116511910222471
99827.544766900042305
99847.836699652252719
99849.010431991540827
99832.142225180752575
99806.319290481857024
99783.101020788904862
99770.445317439807695
99768.380272063979646
99771.277009431927581
99772.459476427844493
99767.659103917278117
99757.11112677998608
99745.509849439768004
99835.393901118150097
99834.860584260895848
99836.649339457959286
99839.863423830262036
99843.018538398246164
99844.565875884334673
99843.42397085117409
99839.295263016596437
99832.696492763963761
99824.735139171942137
99816.75605505942076
99810.030817552440567
99805.550282677795622
99803.952939858922036
99805.511144181829877
99810.071414650068618
99817.126098452019505
99825.95510952603945
99835.882066220321576
99846.239764889411163
99831.009691453567939
99836.715441248190473
99839.949512916078675
99841.037778794372571
99839.755326651167707
99835.307366147593712
99827.65744804564747
99817.75362963299267
99806.839964052953292
99795.887146622670116
99785.413379459962016
99775.892392800757079
99767.586271770080202
99760.120437852019677
99752.368963039989467
99743.641129425173858
99735.578394744283287
99733.137246333717485
99742.489502162396093
99767.170463623813703
99803.924515445600264
99842.321766294204281
99869.655377479459275
99877.253557619318599
99864.43762423399312
99838.501793042596546
99810.101819924908341
99787.758876218678779
99774.933742693858221
99770.548301312606782
99770.798698549580877
99771.672200480548781
99771.501493070012657
99770.422546176065225
99844.107006355116027
99842.168540059676161
99842.482665134739364
99844.431021204189165
99846.943752547012991
99848.75654492888134
99848.794240716990316
99846.531020755297504
99842.135837499183253
99836.372029074889724
99830.321867417631438
99825.082824192475528
99821.544382171836332
99820.277929519084864
99821.565409322676715
99825.446128953815787
99831.743683430046076
99840.010720496473368
99849.680303809858742
99860.109956059342949
99850.432015026555746
99853.507417701141094
99852.716343262887676
99849.245086101451307
99843.798717859899625
99836.482864379664534
99826.880632932821754
99814.69439372755005
99800.026408304242068
99783.751707596835331
99767.874057288936456
99754.942891956103267
99746.359590483945794
99741.4062376205693
99738.29325544135645
99736.590665085008368
99738.958333172748098
99750.389789264721912
99774.829550382579328
99810.959023988456465
99850.84418380279385
99882.833909628039692
99897.312228582522948
99891.16438574892527
99868.070842637651367
99836.467672243918059
99805.26336430045194
99782.006902152628754
99770.989497094080434
99772.515896899247309
99783.448268228763482
99798.220346609945409
99849.924514809434186
99849.522185494570294
99850.80101257795468
99852.898539732748759
99854.901380748313386
99856.002237670501927
99855.656109864969039
99853.723374310342479
99850.49825494736433
99846.593470431806054
99842.793653542888933
99839.900197286406183
99838.609658096960629
99839.427317875160952