/*--------------------------------*- C++ -*----------------------------------*\
  =========                 |
  \\      /  F ield         | OpenFOAM: The Open Source CFD Toolbox
   \\    /   O peration     | Website:  https://openfoam.org
    \\  /    A nd           | Version:  12
     \\/     M anipulation  |
\*---------------------------------------------------------------------------*/
FoamFile
{
    format      ascii;
    class       volScalarField;
    location    "0.0073";
    object      pMean;
}
// * * * * * * * * * * * * * * * * * * * * * * * * * * * * * * * * * * * * * //

dimensions      [1 -1 -2 0 0 0 0];

internalField   nonuniform List<scalar> 
106891
(
98848.435144577655592
98849.050104565074435
98849.699291027369327
98850.38238350363099
98851.099182061487227
98851.849556445784401
98852.633818325746688
98853.452462854824262
98854.30538715950388
98855.19222723202256
98856.104185029049404
98828.37292600737419
98828.361224029169534
98828.356624613123131
98828.359496241202578
98828.368312808015617
98828.37970239421702
98828.389639575892943
98828.394921502738725
98828.394059358295635
98828.387339171749773
98828.376356868931907
98828.363510577764828
98828.351068831354496
98828.340608870537835
98828.333144596035709
98828.328892984151025
98828.32739259020309
98828.327784937340766
98828.329556877200957
98828.333233512297738
98828.340052660889341
98828.350700540075195
98828.364318650725181
98828.378456553909928
98828.39020784823515
98828.397418143198593
98828.399740707638557
98828.398379340505926
98828.395221190541633
98828.392260484964936
98828.39185524538334
98828.397020547577995
98828.410877981092199
98828.435498501014081
98828.470733199166716
98828.513700349052669
98828.559753516383353
98828.604263362067286
98847.406425065753865
98847.817820524098352
98848.249948613694869
98848.705288257508073
98849.186386789791868
98849.695648729699315
98850.235130941975513
98850.806366495133261
98851.410239955512225
98852.047066859668121
98852.716760722789331
98853.419088849957916
98854.153765321738319
98854.920723875693511
98855.719987655480509
98856.551863124463125
98857.416766488851863
98858.314316190822865
98859.244105617239256
98860.197466501413146
98828.299992711414234
98828.300774328687112
98828.309171396278543
98828.323303262572153
98828.339151304535335
98828.352095576556167
98828.358536359097343
98828.357217150565702
98828.349507464125054
98828.338387811221764
98828.32714630648843
98828.318015338853002
98828.311812476968043
98828.308542963626678
98828.308017879215186
98828.309612752535031
98828.31259847189358
98828.317002076058998
98828.323603774450021
98828.333694628585363
98828.347783511446323
98828.364867235082784
98828.382775684673106
98828.398660037535592
98828.410224586434197
98828.416461039378191
98828.418215851866989
98828.417394099727971
98828.416362955613295
98828.41801177803427
98828.425672959594522
98828.442470894442522
98828.4701214874367
98828.507893537549535
98828.55263500851288
98828.599910378732602
98850.548879077818128
98851.014782890677452
98851.501923218907905
98852.012672700948315
98852.549397414972191
98853.114205607460462
98853.708733440609649
98854.334067388917902
98854.990737722691847
98855.678801620771992
98856.39798625028925
98857.14796049540746
98857.928467045596335
98858.739558402070543
98859.581456460073241
98860.454599868433434
98861.35950171064178
98862.295656401722226
98863.262621478075744
98864.251819621276809
98828.254836835229071
98828.260489428270375
98828.27245998516446
98828.288730961634428
98828.305243732480449
98828.317425874236505
98828.322061709259287
98828.318860615196172
98828.310360530362232
98828.300446317851311
98828.292543057716102
98828.288317014346831
98828.287556067924015
98828.28923011374718
98828.292395563839818
98828.296485159575241
98828.301583473948995
98828.308388687291881
98828.317971657423186
98828.331215921527473
98828.34828223810473
98828.36823706269206
98828.388932817790192
98828.407758830828243
98828.422508374249446
98828.432302160479594
98828.437579192381236
98828.440189842076506
98828.44274127947574
98828.448155615173164
98828.459490606750478
98828.479375000097207
98828.509123480616836
98828.54791143303737
98828.592660642403644
98828.639181362232193
98854.24456499752705
98854.785243496211478
98855.349669964867644
98855.939787580951815
98856.557245844785939
98857.203258446461405
98857.878548285079887
98858.583374926325632
98859.317673301688046
98860.081189752614591
98860.873659312055679
98861.69488644048397
98862.544933559911442
98863.424078751733759
98864.332828596554464
98865.271809201862197
98866.240451259393012
98867.238326914419304
98868.257115112253814
98828.214826973126037
98828.22887231229106
98828.245295215892838
98828.260283426308888
98828.269748944512685
98828.271427317318739
98828.266239456643234
98828.25791335523536
98828.251126202463638
98828.249216024181806
98828.25284134123649
98828.260181208970607
98828.26858176557289
98828.276204457972199
98828.28297509427648
98828.290314300160389
98828.300017594199744
98828.313332896184875
98828.330506654223427
98828.350680703093531
98828.372177620811271
98828.39308476606675
98828.411810577512369
98828.427252429959481
98828.439017592434539
98828.447881381085608
98828.455468896921957
98828.463693306519417
98828.474742305930704
98828.490880702694994
98828.513925201856182
98828.544654743367573
98828.582266609635553
98828.62419654551195
98856.922974543544115
98857.493628098454792
98858.086117419486982
98858.702018830459565
98859.342717488179915
98860.009317891730461
98860.702596191709745
98861.423000916591263
98862.170733123464743
98862.945833716148627
98863.748229354139767
98864.577837541757617
98865.434617225881084
98866.318697872658959
98867.230345985502936
98868.169932959441212
98869.1379742060235
98870.133762640907662
98871.156903452851111
98872.199520869908156
98828.17499807398417
98828.188999797333963
98828.203678821737412
98828.216012765144114
98828.223000738304108
98828.223388955928385
98828.21878362922871
98828.213154545883299
98828.211244804755552
98828.21626041563286
98828.227956428338075
98828.242969862883911
98828.257225051784189
98828.26840255818388
98828.277131435956107
98828.286249396027415
98828.298729067770182
98828.315755148621975
98828.336474251555046
98828.358651981441653
98828.379886552604148
98828.398844918876421
98828.415330892181373
98828.429662240901962
98828.442445948487148
98828.454690785394632
98828.467617379836156
98828.482404045251315
98828.500025399480364
98828.52139796166739
98828.547217193743563
98828.577656705921981
98828.611877923060092
98860.748849085066468
98861.390822956207558
98862.055262756504817
98862.742901546065696
98863.454343215664267
98864.190087122377008
98864.950569715932943
98865.736130784585839
98866.546986114379251
98867.383235215951572
98868.244972521541058
98869.132315478753299
98870.04545594555384
98870.984614597837208
98871.94992716552224
98872.941680984615232
98873.958999779977603
98875.001604098215466
98876.062391733081313
98828.133311090161442
98828.145435000405996
98828.155883012383129
98828.162877275768551
98828.16570566300652
98828.165651533694472
98828.165982713981066
98828.170887520202086
98828.183157295759884
98828.202055504894815
98828.223687883495586
98828.24367653382069
98828.259750685305335
98828.272968377132202
98828.286698940297356
98828.30373885598965
98828.324360137601616
98828.346522118547
98828.36758181201003
98828.385785605249112
98828.400930804054951
98828.413930000489927
98828.426050635403953
98828.438588070232072
98828.452799186503398
98828.469739109656075
98828.489850502941408
98828.512926301118569
98828.538394690753194
98828.565566075354582
98828.593837589127361
98828.62269075801305
98863.991684304826776
98864.679443550339784
98865.388265113651869
98866.118267160854884
98866.869629004591843
98867.642690330845653
98868.437936506743426
98869.255951379120233
98870.097354030207498
98870.962689853884513
98871.852319426499889
98872.76633590842539
98873.704692030834849
98874.667242492854712
98875.653734878142131
98876.664280968252569
98877.697921430139104
98878.754514624699368
98879.827804596949136
98828.081028196029365
98828.091816474901862
98828.102821973079699
98828.113133452541661
98828.122430210583843
98828.1319414996251
98828.144201376009732
98828.161602174091968
98828.184477853981662
98828.210677741881227
98828.236730081727728
98828.259851618800894
98828.27967851437279
98828.298122160282219
98828.317176160780946
98828.337182482428034
98828.356795618485194
98828.374068793200422
98828.387689122304437
98828.398048704621033
98828.407047735730885
98828.416891571250744
98828.429263916012133
98828.445178820358706
98828.464839447129634
98828.487854523249553
98828.513333511567907
98828.539973721548449
98828.566367921521305
98828.591439586147317
98867.933848491607932
98868.681938992027426
98869.449127727682935
98870.23531954511418
98871.040765362049569
98871.866088137583574
98872.712174769461853
98873.579977300352766
98874.470286683601444
98875.383613011537818
98876.320092177935294
98877.279474570794264
98878.261277747966233
98879.264771626360016
98880.289663525050855
98881.334735426382395
98882.400039940519491
98883.480374966020463
98828.01512900677335
98828.032833508477779
98828.052729125673068
98828.072588885901496
98828.091221989467158
98828.109530059417011
98828.129971698712325
98828.154880272209994
98828.184700490746764
98828.217362377225072
98828.249523303660681
98828.278339033917291
98828.302604722208343
98828.322629249261809
98828.339065535314148
98828.352364061152912
98828.36310952490021
98828.372182939740014
98828.380729300770327
98828.389932742415112
98828.40057294111466
98828.413129054795718
98828.42809306201525
98828.445942265869235
98828.466626247754903
98828.489451736924821
98828.513227294402895
98828.536380770601681
98871.127887723458116
98871.908879723021528
98872.707035715488018
98873.522394375002477
98874.355393663630821
98875.206834412456374
98876.077750483047566
98876.969184800676885
98877.88192358930246
98878.816328649336356
98879.77226556581445
98880.749219917619484
98881.746501402012655
98882.763161100752768
98883.798775485061924
98884.852070331122377
98885.9231510162208
98887.007396418761346
98827.969596228416776
98827.999558883981081
98828.030217971012462
98828.058367844743771
98828.083421140152495
98828.107729481111164
98828.135104257962666
98828.168094844484585
98828.206009188506869
98828.244725052951253
98828.278645094542298
98828.303346823056927
98828.317316875371034
98828.322388186323224
98828.322694264774327
98828.322977224728675
98828.326879209838808
98828.335897189244861
98828.349224933524965
98828.364833644736791
98828.380972566010314
98828.397138624961372
98828.413888994895387
98828.432040233994485
98828.452004584498354
98828.473202597131603
98828.493926280978485
98875.053840269960347
98875.877525200441596
98876.717402243069955
98877.573972398502519
98878.447991393535631
98879.34035557518655
98880.251892986969324
98881.183193472301355
98882.134466666218941
98883.105490214657038
98884.095645634282846
98885.104199389621499
98886.130250383794191
98887.173503731828532
98888.232867014827207
98889.308577846255503
98890.396604464651318
98827.86881007743068
98827.899618266426842
98827.93595094018383
98827.973257147066761
98828.007441004461725
98828.037018709510448
98828.063721206897753
98828.091482547446503
98828.12376930116443
98828.160800015291898
98828.198850412853062
98828.231894321914297
98828.254258328379365
98828.26328045334958
98828.261040625380701
98828.253574928210583
98828.248160378920147
98828.250321095241816
98828.261804508409114
98828.28069487195171
98828.303117052142625
98828.325467180475243
98828.346048531573615
98828.365294071525568
98828.384509495837847
98828.404392832599115
98828.424423187912907
98878.927603398042265
98879.788389803812606
98880.665677760189283
98881.560100686969236
98882.472130826732609
98883.402046785311541
98884.349907167241327
98885.315597609194811
98886.298861818402656
98887.299318456658511
98888.31659520737594
98889.350075925758574
98890.399575355288107
98891.464074798845104
98892.543677787398337
98893.63473775939201
98827.819647931421059
98827.852980028401362
98827.890283135900972
98827.927597479952965
98827.96178810960555
98827.991989435206051
98828.019656330769067
98828.04730777007353
98828.07703152493923
98828.109047664285754
98828.140918975434033
98828.168223290995229
98828.186379480073811
98828.193030399663257
98828.189632230336429
98828.181439733278239
98828.175389165844535
98828.177124615176581
98828.188959249455365
98828.209510761647834
98828.235120903278585
98828.262341270034085
98828.289511105729616
98828.316422033953131
98828.343218880909262
98828.369549543742323
98828.394288148294436
98828.41605972823163
98882.297769093187526
98883.190049953424023
98884.099269992759218
98885.025466060134931
98885.968478468988906
98886.928078820914379
98887.904041426314507
98888.896153865920496
98889.904190560686402
98890.927967767594964
98891.967100767418742
98893.021552461359533
98894.090444576460868
98895.17372337411507
98896.268092211234034
98827.810441743306001
98827.84654230363958
98827.881253921921598
98827.912438421597471
98827.940175864903722
98827.965920095448382
98827.991157901618863
98828.016767100503785
98828.042584354232531
98828.06721638754243
98828.088220491656102
98828.103024692027248
98828.110332269658102
98828.111253959417809
98828.109365345648257
98828.109502811246784
98828.115911883855006
98828.130447914736578
98828.152317986387061
98828.179456643891172
98828.209741572951316
98828.241788772545988
98828.274946997466031
98828.308385406257003
98828.3405515133054
98828.369631117675453
98828.394535107479896
98885.166435718259891
98886.085800707252929
98887.021481684831087
98887.973210327152628
98888.940688334856532
98889.923669759897166
98890.922026235813973
98891.935664154792903
98892.964538494939916
98894.008341557491804
98895.066929508378962
98896.139405936963158
98897.225538629150833
98898.322227596247103
98827.812361383344978
98827.842072118684882
98827.86879644797591
98827.893134586061933
98827.915943264422822
98827.937581594000221
98827.957893591039465
98827.976693363831146
98827.993868808756815
98828.00919161294587
98828.022203498243471
98828.032596215154626
98828.040849565571989
98828.04850822420849
98828.057973076181952
98828.071533071590238
98828.090350075697643
98828.114339369785739
98828.142698242663755
98828.174694195447955
98828.209796075272607
98828.247135512414388
98828.285054550171481
98828.321314437474939
98828.354128597959061
98828.383041059627431
98887.854869448405225
98888.79780942852085
98889.755953693864285
98890.729132417414803
98891.717281295772409
98892.720420807963819
98893.738536129574641
98894.771576873405138
98895.81919814759749
98896.881166599312564
98897.956551987517742
98899.044951015646802
98900.143459289916791
98827.802043196352315
98827.823127624564222
98827.842134585283929
98827.859718511768733
98827.875909954003873
98827.89024177932879
98827.902584073090111
98827.913870106742252
98827.925690534582827
98827.939252959637088
98827.954900822078343
98827.972402304367279
98827.991477117349859
98828.012259805036592
98828.035261860946775
98828.060787317561335
98828.088596609290107
98828.118738537741592
98828.151567433902528
98828.187308334076079
98828.225251814714284
98828.263826079186401
98828.301204266390414
98828.336433544420288
98828.369726187316701
98890.379761470874655
98891.34264461195562
98892.319895607317449
98893.311604886577697
98894.317957741572172
98895.33906813908834
98896.374938523644232
98897.425225407263497
98898.489561177062569
98899.56695451757696
98900.656876859342447
98901.756628902076045
98827.789137642466812
98827.801703731529415
98827.81325897150964
98827.823839407719788
98827.833041788442642
98827.841070718292031
98827.849520819014288
98827.860864309666795
98827.876962683818419
98827.898245256015798
98827.923981760905008
98827.95300155748555
98827.984118026768556
98828.01652172714239
98828.049437997135101
98828.082160885838675
98828.11465179391962
98828.147689341218211
98828.182285270653665
98828.218591370459762
98828.255718294371036
98828.292761185497511
98828.329663304975838
98828.367278365025413
98827.766494024413987
98827.771362740313634
98827.77567838934192
98827.77975059307937
98827.784720326089882
98827.792739241092931
98827.806245332656545
98827.82655585485918
98827.853558323069592
98827.886136275483295
98827.92289372808591
98827.962239576037973
98828.002635681186803
98828.042564636634779
98828.080747580926982
98828.116366076981649
98828.149852903123247
98828.182589144751546
98828.215834940492641
98828.250123782388982
98828.285828981664963
98828.323868882318493
98828.365618437572266
98827.744969435283565
98827.744997725647409
98827.748238812186173
98827.756917834209162
98827.773175285590696
98827.797861016224488
98827.830143876140937
98827.868288543904782
98827.910603529991931
98827.955569352998282
98828.001638576097321
98828.04691590013681
98828.089259319429402
98828.127052833966445
98828.160187830028008
98828.190437174780527
98828.220355495112017
98828.252066008091788
98828.287297896182281
98828.327569974324433
98828.373901129714795
98827.755952303879894
98827.784081751437043
98827.819670990182203
98827.860744925579638
98827.905599311940023
98827.95309656317113
98828.001924791722558
98828.049951460983721
98828.094453384095686
98828.133142847029376
98828.165583021545899
98828.193734602085897
98828.221119097361225
98828.251305102108745
98828.287154000980081
98828.330506232436164
98828.381779535062378
98827.915249930229038
98827.962942727826885
98828.012190958630526
98828.060868529399158
98828.105692107055802
98828.143771963121253
98828.174489375378471
98828.200213344651274
98828.225420950286207
98828.2549627051485
98828.292391119481181
98828.339404824233497
98828.395492574083619
98827.969751483149594
98828.017209921672475
98828.064410677572596
98828.10787088581128
98828.144543770133168
98828.173941654487862
98828.198684887465788
98828.223715424348484
98828.254397391327075
98828.294556228298461
98828.34544525979436
98828.405541864936822
98829.457776546987589
98829.414470517571317
98829.373759415160748
98829.334424134125584
98829.297981965268264
98829.267256239108974
98829.243560790258925
98829.224685323439189
98829.205506803424214
98829.180712979461532
98829.147455310026999
98829.106260066648247
98829.060036421811674
98829.011855089614983
98828.964563685003668
98828.920365127283731
98828.879926939465804
98828.842098913650261
98828.805197105728439
98828.768052290732157
98829.457041261688573
98829.411861220418359
98829.371708932216279
98829.333011551949312
98829.295117836765712
98829.260584271702101
98829.232635769163608
98829.212349292240106
98829.196800937977969
98829.180156120608444
98829.156910016099573
98829.124323308264138
98829.08320973982336
98829.036601214960683
98828.988143211623537
98828.940836395326187
98828.896705684295739
98828.856207497039577
98828.81824898031482
98828.781449964080821
98828.745081631583162
98828.708648581407033
98829.535488478795742
98829.467557408454013
98829.414806251050322
98829.372415929785348
98829.33461733731383
98829.297351530563901
98829.260424680280266
98829.227259831997799
98829.20175187048153
98829.184712775037042
98829.172396914567798
98829.158335323329084
98829.136630385939498
98829.104652657188126
98829.063537721769535
98829.01670312070928
98828.967974647253868
98828.920635315371328
98828.876665347430389
98828.836373107682448
98828.798567469508271
98828.762080272499588
98828.726458772740443
98828.691207866577315
98828.65513447651756
98828.616898926688009
98829.585448031386477
98829.49801161076175
98829.429380746369134
98829.37813925948285
98829.338385574199492
98829.302933667524485
98829.266997143189656
98829.230825480946805
98829.199016664148076
98829.175892709798063
98829.161810814068303
98829.15247104637092
98829.140732233485323
98829.12016322845011
98829.08830600255169
98829.046799825780909
98828.999610639773891
98828.950710728779086
98828.903266108492971
98828.859173860822921
98828.81850297152414
98828.780246013775468
98828.743712445691926
98828.708757281245198
98828.674744028088753
98828.640174642510829
98828.603428571965196
98828.563450200352236
98829.661724386663991
98829.555308473762125
98829.466438719900907
98829.398600726795848
98829.349550667437143
98829.312135489439243
98829.277970903989626
98829.242051757086301
98829.20556697039865
98829.174312111470499
98829.153261944768019
98829.142330646282062
98829.136118485184852
98829.126615608794964
98829.107100962530239
98829.075350303246523
98829.033482019018265
98828.985682683574851
98828.93635279290902
98828.889046852767933
98828.845507444639225
98828.805424361868063
98828.767412042143405
98828.730849709929316
98828.695811003548442
98828.662037208865513
98828.628204193199053
98828.592461413005367
98828.553384855913464
98828.511032431546482
98829.762967035931069
98829.643203119616373
98829.533129270857899
98829.441733102983562
98829.373426801845198
98829.325589597545331
98829.289944417003426
98829.257323519923375
98829.222510796578717
98829.186878389387857
98829.156834121473366
98829.137611825353815
98829.128849714252283
98829.124679288550396
98829.116555513333878
98829.097589530458208
98829.065612426406005
98829.023178879448096
98828.974945157286129
98828.925321774528129
98828.877787021774566
98828.834040231842664
98828.793521435756702
98828.754928591486532
98828.718081454833737
98828.683554099159664
98828.650995568401413
98828.618644630769268
98828.584319017943926
98828.546433728930424
98828.504883852423518
98828.4616363637615
98829.756439375181799
98829.633520784424036
98829.520467616603128
98829.427442805317696
98829.359380000052624
98829.313097347170697
98829.279365291353315
98829.248104788101045
98829.213629183621379
98829.177752273593796
98829.147727048359229
98829.129435741720954
98829.122319072688697
98829.119877609293326
98829.113102645947947
98829.09476613078732
98829.062784550507786
98829.019948052373365
98828.971095579865505
98828.920982030802406
98828.873392346489709
98828.829877068230417
98828.789596678077942
98828.751067264165613
98828.714188000376453
98828.67978161170322
98828.647540596517501
98828.61569837279967
98828.58190490771085
98828.544383403626853
98828.503126096489723
98828.460301388680818
98828.418239118313068
98840.901694158135797
98840.732510812144028
98840.534451041618013
98840.303115400733077
98840.050589797334396
98839.790044052831945
98829.752022170039709
98829.626877871123725
98829.511695487191901
98829.417284719180316
98829.349174400005722
98829.303816623782041
98829.271297086132108
98829.240961964227608
98829.206753893668065
98829.170808771406882
98829.140947087013046
98829.123356779746246
98829.117300947051262
98829.115940746880369
98829.109915769644431
98829.091757557878736
98829.059461871365784
98829.016182042250875
98828.966954568881192
98828.916560279336409
98828.868886393727735
98828.825361447496107
98828.784969396030647
98828.746172087732702
98828.709165420732461
98828.675018714260659
98828.643374533188762
98828.612188247279846
98828.578978595644003
98828.541839556521154
98828.500767206962337
98828.458086039478076
98828.416137568798149
98828.376075372056221
98841.058564121747622
98840.900113484472968
98840.732123441644944
98840.534411618195008
98840.302583489770768
98840.049547855523997
98839.788786742210505
98829.755482765482157
98829.629163793681073
98829.512828805207391
98829.417725051462185
98829.349733673530864
98829.305010718540871
98829.273236992114107
98829.243466701445868
98829.209359052314539
98829.173239777403069
98829.143377526444965
98829.126121479377616
98829.120676990482025
98829.119978584873024
98829.114392225863412
98829.096362690484966
98829.064011174152256
98829.02057211153442
98828.971081944531761
98828.92045250373485
98828.872745266300626
98828.829268639965449
98828.788883517321665
98828.750018982158508
98828.713006414545816
98828.678976065377356
98828.64750977170479
98828.616557969333371
98828.583596590280649
98828.546585587202571
98828.505582437253906
98828.463061874688719
98828.42123648544657
98828.381272950020502
98828.343490421655588
98848.990686523276963
98849.597964458822389
98850.239995369745884
98850.917617505547241
98851.631472563225543
98852.381898669962538
98853.169256818975555
98853.9938112640084
98854.855108278105035
98855.752116435440257
98856.675909383309772
98829.442535914189648
98829.427015034394572
98829.413069695525337
98829.402834989421535
98829.39676740282448
98829.393998961750185
98829.393274147980264
98829.393419663072564
98829.393269084510393
98829.391725836496335
98829.388022993138293
98829.381732179259416
98829.37316691588785
98829.363241028011544
98829.352875468699494
98829.343234975603991
98829.336009995109634
98829.333234415578772
98829.336460708102095
98829.345618701554486
98829.358098276657984
98829.369699756687623
98829.377154987800168
98829.379987279433408
98829.380741841043346
98829.383354036937817
98829.390575311699649
98829.40205099650484
98829.414659273024881
98829.424719676317181
98829.430225424774108
98829.432036250393139
98829.433134909006185
98829.436591756384587
98829.443860047220369
98829.454267712135334
98847.488038245908683
98847.891236659983406
98848.31537072188803
98848.760834995555342
98849.228245187245193
98849.718549356563017
98850.233112614325364
98850.773652140618651
98851.34207671196782
98851.940247913313215
98852.569831482134759
98853.23217898918665
98853.928366953477962
98854.659062429680489
98855.424684402780258
98856.225373710592976
98857.061206691345433
98857.932238938636146
98858.837731724677724
98859.776710551494034
98860.740642856486375
98829.348874570074258
98829.338676155617577
98829.328602499575936
98829.320082567981444
98829.313442405662499
98829.30848788714502
98829.305017731006956
98829.303172099127551
98829.303043800362502
98829.304241380246822
98829.305918279758771
98829.307167817896698
98829.307587637231336
98829.30752215749817
98829.307736977745662
98829.309405153282569
98829.314252156342263
98829.323718341023778
98829.338248705040314
98829.356406148435781
98829.374552986060735
98829.3879604821268
98829.3935010360874
98829.391733120952267
98829.386643108096905
98829.383762568148086
98829.387236616923474
98829.397534962481586
98829.411582817672752
98829.425107257920899
98829.435326640988933
98829.442289270169567
98829.448434133955743
98829.456679997630999
98829.468455451307818
98829.483260690627503
98850.548076567560202
98851.004755527348607
98851.482805962514249
98851.982505055348156
98852.504305760885472
98853.048967300783261
98853.617604795959778
98854.211687342714868
98854.832932384262676
98855.483107824242325
98856.163814541534521
98856.87628720360226
98857.621365886152489
98858.399521812141757
98859.211034112158814
98860.055960011159186
98860.934229553924524
98861.845793876855168
98862.789676751839579
98863.764938152904506
98864.763392325039604
98829.261066982042394
98829.25284786055272
98829.244164385891054
98829.235701953715761
98829.228083208072348
98829.222086836758535
98829.218743882142007
98829.21882729313802
98829.222419887169963
98829.228932075289777
98829.237380644946825
98829.247028193552978
98829.257609961598064
98829.269350305490661
98829.282968446583254
98829.299693270339048
98829.320528830779949
98829.345289065342513
98829.371814279598766
98829.395592652595951
98829.411248773380066
98829.415718745891354
98829.410177894271328
98829.399858306351234
98829.391625566015136
98829.390838530191104
98829.399031941880821
98829.413854146536323
98829.431120315668522
98829.447518738306826
98829.461842835255084
98829.474890916229924
98829.488552488037385
98829.504135322931688
98854.155873571449774
98854.685215761172003
98855.236259344863356
98855.809319824315025
98856.404998976024217
98857.024220087565482
98857.668184319103602
98858.338302013187786
98859.036090020366828
98859.763012967508985
98860.520260742807295
98861.308649851533119
98862.128547873246134
98862.98007803047949
98863.863210118433926
98864.777808116996312
98865.723838220888865
98866.70019710707129
98867.705985291278921
98868.73335260010208
98829.178478807516512
98829.170044860933558
98829.160089806988253
98829.149799592021736
98829.140425036341185
98829.133218262315495
98829.129432096131495
98829.130050266161561
98829.135571585880825
98829.145887611899525
98829.160484534790157
98829.178799691566383
98829.200231093171169
98829.224066913127899
98829.24980468978174
98829.27755049620464
98829.307708928216016
98829.339957022632007
98829.372202362443204
98829.400135265328572
98829.418439592933282
98829.423805896556587
98829.417516760251601
98829.404978672726429
98829.393325414741412
98829.388868766793166
98829.394653773430036
98829.409875684825238
98829.431252417329233
98829.455100313003641
98829.478598718997091
98829.500408797277487
98829.520402012989507
98829.539041612122674
98857.333467567499611
98857.911424850550247
98858.510848095975234
98859.13182916380174
98859.774760842701653
98860.440378535247874
98861.129736834511277
98861.844100018337485
98862.584785838771495
98863.353033991195844
98864.149881159028155
98864.976132035837509
98865.832269228325458
98866.718471796106314
98867.634624180165702
98868.580362457258161
98869.55547983085853
98870.558709864126286
98871.589283355337102
98872.639798625255935
98829.095191641215933
98829.084445759435766
98829.074005602858961
98829.065141645362019
98829.05873945618805
98829.055701363176922
98829.056967888958752
98829.063390116032679
98829.07574929772818
98829.094489806360798
98829.119398139606346
98829.14940047696291
98829.182767162841628
98829.217851585199242
98829.253663329276606
98829.290057286983938
98829.326869287135196
98829.362620245025028
98829.393682468857151
98829.415293479018146
98829.424138963164296
98829.420712462349911
98829.409553957360913
98829.397576232877327
98829.391657980639138
98829.396425869723316
98829.41308245548862
98829.439730227037217
98829.472309884265997
98829.50588389285258
98829.536164791628835
98829.560688404380926
98861.150829757811152
98861.795257213670993
98862.460689337123767
98863.147278473872575
98863.855486451939214
98864.586075233353768
98865.340048635232961
98866.11852971490589
98866.922672966131358
98867.753539898854797
98868.611976318716188
98869.498517665007967
98870.413408016320318
98871.356610101967817