/*--------------------------------*- C++ -*----------------------------------*\
  =========                 |
  \\      /  F ield         | OpenFOAM: The Open Source CFD Toolbox
   \\    /   O peration     | Website:  https://openfoam.org
    \\  /    A nd           | Version:  12
     \\/     M anipulation  |
\*---------------------------------------------------------------------------*/
FoamFile
{
    format      ascii;
    class       volScalarField;
    location    "0.0073";
    object      T;
}
// * * * * * * * * * * * * * * * * * * * * * * * * * * * * * * * * * * * * * //

dimensions      [0 0 0 1 0 0 0];

internalField   nonuniform List<scalar> 
106891
(
299.82966627240665503
299.81942095660599534
299.81428046702814072
299.81474133985784647
299.82012303259131158
299.82931718828996281
299.84136828672234287
299.85444090613248136
299.86795637558236649
299.88047153997024452
299.89090149872276925
301.67459780585159024
301.75664536232011415
301.83138975337254806
301.89036206066680279
301.92794782007786125
301.94064638331070682
301.92524266368872077
301.87835916736759145
301.79807431891043734
301.68512677958352697
301.54273766193460915
301.37634968080914177
301.19302620617065713
301.00026677774258133
300.80659423680293685
300.61955022269131632
300.4463705515807419
300.29147939722486171
300.15541181215712641
300.03676781905761572
299.93442910570973936
299.84895863630816848
299.78232095665009638
299.73532838623350472
299.70536959116333264
299.68735570047715555
299.67497445816172785
299.66471688968681519
299.65467202824885362
299.64342237590773266
299.62898576780958138
299.60932548720734303
299.58413664204977067
299.55628609099346704
299.53105985175108117
299.51345480593863613
299.50558348603442482
299.50595835123920097
299.90311619773740404
299.91224265163907603
299.91600364805640311
299.91369761541318439
299.90549872884207616
299.89241237554045938
299.87623030731276685
299.85905864299502355
299.84317801251461333
299.83041083511346869
299.82227257751139859
299.81920618349630558
299.82131009275894939
299.82768275589171481
299.83702817225707804
299.84855091937112093
299.86071402365411132
299.87338689889708121
299.88603581780080276
299.89736599193253141
301.77554507111710791
301.85634583131894715
301.92135337713631316
301.96565790446715027
301.98492812201442348
301.97436791771906428
301.92859803139458563
301.84338054623719927
301.71884589685316769
301.56036749990454382
301.37711186045964951
301.17993421707393509
300.97952433479986212
300.78464763769108004
300.60223239343292789
300.43656176024336446
300.28934014296254418
300.15933768220810407
300.04415137440571471
299.94249533980138267
299.85562021439665159
299.78564365851889306
299.7337363892962685
299.69870693184282118
299.67645602168016694
299.66217076274011788
299.65122535901969059
299.64094338238760429
299.62931301252757521
299.61449320156009435
299.59533142682909101
299.57264169218530014
299.54975654209960112
299.53137414250858228
299.52116988300451794
299.51958519685263127
299.90923154971022768
299.91667096405035409
299.91831948202917602
299.91385684710348869
299.90391637564800931
299.88992426415688897
299.87395136740821044
299.85813239205805303
299.84454597526377029
299.83458701643530731
299.82918066760896636
299.828313791563005
299.8317435109094049
299.83851647615568936
299.84734859006766783
299.85765095055734264
299.86811710460921176
299.87893659366943666
299.89060140246238007
299.90187911768924778
301.78991431100132559
301.86217240501787273
301.91841848715188235
301.95611599284706017
301.97301268759997583
301.96452584654116436
301.92319958599256324
301.84139615347288554
301.71583900200840844
301.55031297054370043
301.35511160054738866
301.14389840545783272
300.93025954139460509
300.72504278982972892
300.53603826875479399
300.36737528882491688
300.22016285055951812
300.09331382286148937
299.98426030423075872
299.89124110042433813
299.81376217521716399
299.7522463765439511
299.70689967330253012
299.67662767567821902
299.65849860416886941
299.64845236241791326
299.64250003483056162
299.63709639467583656
299.62947494903266943
299.61759781355397081
299.60048259249629155
299.57924086841569533
299.55742707067480524
299.5397461126404437
299.5298747419707297
299.52857383080396403
299.91675473677258879
299.91666194736694706
299.91120135173468952
299.90124336834884389
299.88831009255875415
299.87443183097474275
299.86149800290434086
299.85123313778984766
299.84462004815236469
299.8420924207117082
299.84324223234284545
299.84749186629284168
299.85391879584636854
299.86147100846864078
299.87000732670901471
299.87855716232195391
299.88736681615205271
299.8975863867540852
299.90792023232847896
301.81809734542190427
301.88667686485757713
301.93621432973742458
301.96255227857886894
301.96066579208485336
301.92364117903036913
301.84537454587780303
301.72471366107782842
301.56804770914385472
301.38700349194988348
301.1945752428778178
301.00167938583030036
300.81517255535362665
300.63770374167410182
300.47021617118650738
300.31414825282172387
300.17225279372871682
300.04771518713107525
299.94251318529882155
299.85698274093959981
299.79014034319641269
299.73990164589952201
299.70352666631106331
299.67791568753619913
299.65982118621064956
299.64619305196214327
299.63458549184895219
299.62313409553524934
299.61058079618680949
299.59673418345249729
299.58261125412275305
299.57044985162093553
299.56306886557587177
299.56236028705438912
299.90828793516669748
299.91151850435784354
299.9105248765905003
299.90576173783892955
299.8980999368815219
299.88869997560823322
299.87906327193559264
299.87051145958190546
299.86427305748759409
299.86096194323170039
299.86077253123062292
299.8632703347647066
299.86783752791882307
299.87369175295384593
299.87997661971354546
299.88692355700902681
299.89392594782572132
299.90121296135015427
299.91032256811115531
299.91960242496344335
301.814766959809333
301.90190884986077435
301.96738757134573916
302.00206019661192158
301.99743738088619693
301.94567033256265631
301.84286220052501903
301.69212445594547489
301.50447691938569506
301.29696577569268356
301.08802398232785436
300.89080716676903648
300.70971302765849487
300.54280842058955159
300.3864473492674847
300.24021045532299468
300.10783609709454822
299.99436800050739294
299.90292715613821883
299.83295269543469885
299.7810199136739584
299.74290025489921163
299.71445341561883424
299.69245894731955104
299.67466947241513253
299.65975385273486609
299.64698872505886129
299.63598932885042814
299.62661014332292098
299.61900529925065939
299.61324411144346413
299.60981069996500992
299.60961003763196686
299.90103429456524964
299.9002338281531479
299.89778133515818581
299.89436338940447513
299.89051621627868371
299.88684089179656667
299.88374045331698881
299.88180152062750494
299.88133971916022347
299.88255498549051481
299.88538084998583599
299.88960391216176049
299.89494655619722607
299.90081849340816689
299.90752398645946641
299.91447796436330009
299.92154943817888579
299.93034611256427979
299.93876447687762266
301.91249108222200448
301.98350195280750086
302.02311738905740413
302.02279017133548678
301.97619783411795424
301.87984460317920821
301.73476418541991961
301.54928023060972464
301.33942597843940803
301.1239329516994303
300.91724470967426441
300.72573343440461713
300.5489792183164468
300.38475928698653661
300.23390450046770184
300.10119042872850059
299.99226583979509542
299.90923040806018207
299.84906277283562304
299.80501449450366636
299.77027114128054563
299.74038826471883112
299.71345683559746931
299.68920987860252581
299.6682009890053564
299.65161060076945887
299.64092462344899559
299.63683645255719057
299.63861876477591295
299.64464081459516365
299.6530964509001933
299.66289657761387843
299.88691515639823137
299.88736943181157812
299.88847912315253552
299.89041365416386498
299.89290484947707682
299.89558232014866235
299.89788358109564115
299.89972463097967648
299.90123647235259341
299.90289512425124485
299.90532091698679551
299.90893796110538005
299.91410709954652702
299.92056338180316288
299.92854536288410827
299.93724913641051444
299.94583456410271083
299.95557327986369955
299.96379754406274287
301.97800986638691256
301.99354794263007307
301.97017326430460571
301.9069844423765403
301.80370521348868351
301.66157030999568178
301.48646968170470473
301.29014454670470968
301.08732502935714592
300.89099595604881188
300.70870957865139417
300.54204080707717139
300.38982381916548547
300.2521275931462128
300.13214528761210431
300.03378227137488921
299.95820886007209083
299.90228857654147987
299.85977868260135892
299.82422007027031441
299.79169938844592025
299.76119576076376916
299.73353559977545046
299.71033155094698941
299.69339330937947352
299.68415758128793414
299.68313514542506937
299.68933249301096566
299.70056986155259438
299.71418213827752197
299.87547263055432722
299.88008172844394039
299.88678537916905498
299.89457122270135869
299.90226614176157227
299.90862109818641557
299.9130949519789624
299.91573247640303634
299.91732314497772904
299.91918860660427981
299.92243933713132265
299.92804495881080129
299.93597521034064357
299.94625290639180548
299.95779956907711039
299.96898628521103092
299.98049251728173203
299.98910745366271158
301.97525120344749894
301.9358228428819757
301.86162822780096349
301.75600981155503177
301.62110110799176255
301.45978776249415887
301.2779930613179431
301.08565178276211327
300.89498912744568315
300.71670831837565174
300.55663082088688043
300.41561686020668276
300.29221663377779805
300.18535196048071612
300.09466614880375346
300.01947629363786518
299.95760190988227123
299.90641469718605094
299.86345296431647967
299.82708092991543936
299.79678810814340295
299.77235613535680159
299.75366496517483483
299.74095885115599458
299.73489729116408853
299.73608429805005926
299.74442125333672493
299.75870254492718914
299.86954345238063979
299.87649191370690005
299.88563222123798369
299.89572143034456531
299.90536215502885398
299.91316987155255447
299.91858528494952907
299.92172407564839887
299.92351924027997256
299.92557255269690586
299.92924476729160688
299.93584592619123441
299.94546055355556291
299.95784202781271688
299.9717472339235087
299.98492362037245584
299.99757107135445722
300.00638815084585076
301.9305624304162734
301.87335531791887888
301.78874995749077925
301.67637916965435352
301.53399795256370908
301.3620707174172253
301.16795731208407005
300.96601709633688415
300.77305514281857768
300.60213002290151962
300.45893022698300001
300.34197185055251111
300.24528170869740507
300.16217890860548323
300.08768285120299879
300.01985301705769871
299.95947442306720632
299.9091843825824526
299.87128549605000671
299.84525221301146303
299.82808433568698092
299.81612565930896608
299.80688044471003195
299.80001773834595724
299.79673988959558528
299.79851143209265274
299.80585311469161525
299.87988536505673665
299.88834157511462308
299.89684343143647993
299.90456919944267611
299.91079073414874756
299.91545192627842198
299.91886916401762164
299.92180441817549763
299.92545010793162419
299.93064935958790329
299.93842862871645139
299.94882312152674331
299.96150989110498131
299.97557066073414944
299.98874720621256529
300.00107150494301322
300.00959122078097607
301.9441915825035494
301.87964557080141503
301.78485679734461655
301.66836640376203604
301.53478948029106732
301.38475000229072975
301.21826423584991517
301.03931725600938307
300.85779083748627727
300.68692649361054237
300.5385410455753572
300.41866027671306938
300.3253673307363556
300.24998179151504019
300.18175637657009247
300.11303153080365291
300.04236384325020026
299.97455226875888457
299.91723640819697039
299.87571086117310415
299.85034737563643148
299.83711447958484086
299.83041808082009538
299.82645738629253174
299.82450308157643803
299.82602527450353591
299.8325841412254249
299.89394988929205965
299.89796530351549109
299.90123401648372692
299.90404940227023189
299.90690680247246291
299.91017863464560378
299.91424552466969544
299.91961003753601744
299.92628974243854145
299.93461032587248383
299.94429804306162168
299.95501024075383611
299.96657383516674145
299.97742201140067664
299.98789307025595008
299.99590328586805299
301.96146898806489389
301.93971727361793
301.88677050738311891
301.80484235880078359
301.69439074588814265
301.55520063134912334
301.38971146952547997
301.20498751108999613
301.01227227785835794
300.82528050209970161
300.65703625588719206
300.51597786127439349
300.40309831467340018
300.31225158101960915
300.23365699295294462
300.15855491267228672
300.08387369816045975
300.01300507174431687
299.95247207308074167
299.90754726157484811
299.87865592774215884
299.86128551146799737
299.84997732567813955
299.84167021627968097
299.83619561691921263
299.83508065571470524
299.83936432690524043
299.84801111609527879
299.89907440575046849
299.8987256905012373
299.89886955305104266
299.90025220340476153
299.90308561499563211
299.90726740395501793
299.91265460097929463
299.91872214211798564
299.92550014653306789
299.93279270380048729
299.94045667475540995
299.94897574419917419
299.95738368452407485
299.9662159536044328
299.9741669777706079
301.97862469262236118
301.95509097872979964
301.89962666929528723
301.80955747874037343
301.68437308817175335
301.52817089762993419
301.34927136819254656
301.15881198084036896
300.96879374614240987
300.79073453413661809
300.63332966162931825
300.50019676829037962
300.38917070972655665
300.29389750864595499
300.20760589305245958
300.12670063826828937
300.05212282084693243
299.98749142378994748
299.9355350919669263
299.89601671036223252
299.86640105911942555
299.84395373934847839
299.82756711286276641
299.8184406565147242
299.81772043866590138
299.82459624617513327
299.83615039733496133
299.89805895773849898
299.89695700942428402
299.89750491017304057
299.89971523898526584
299.90317964451350008
299.90741279377601813
299.91171126255295576
299.91611369298306045
299.92071671829290835
299.92567365973178539
299.93192007277451694
299.93883296481436673
299.94686105745739724
299.95510344865522256
301.93212739528399879
301.87451706652734629
301.78484799795950266
301.66495603810682269
301.52031120225996119
301.35879412560228729
301.18838619917386268
301.01592771992523012
300.84770919291651126
300.69002570461714186
300.54804979619245842
300.42421108904778748
300.31724733124110571
300.22360594830621494
300.14063105403818099
300.06775103518407377
300.0054303566132603
299.95369521603697649
299.91145292154459412
299.87702430087381344
299.84946816225641442
299.82961931686907064
299.81876778994677579
299.81686368205026838
299.82133488661401088
299.82849300744180709
299.89696669959585051
299.89726495524917027
299.89879443637960321
299.90100270699628027
299.90337997110981405
299.90539502330091182
299.90728685370908124
299.90945001243017032
299.91225967306371558
299.91688940603688707
299.92292282675310844
299.93057515508291999
299.93914623817715892
301.92795255158483769
301.83221274376882093
301.70210591954463553
301.54603375003159726
301.37338501338950891
301.19241343161559143
301.00950021735991413
300.82997210284582934
300.65970665011963092
300.50486653555157091
300.36996705183838685
300.25633698565843588
300.16225941799012844
300.08489796093539326
300.02157950389511143
299.97022444008933917
299.92828360634405271
299.89297242207737781
299.86263298034401714
299.83737237319161295
299.81906418275178794
299.80923705892263342
299.80697596838382424
299.80900184258655372
299.81228185789547069
299.89830025452448581
299.89935789197630811
299.90036959379818882
299.90096638526404149
299.90094033196515966
299.90078810261155695
299.90116523643382607
299.90255919891319536
299.90616466696360476
299.91165824139523011
299.91897735823260973
299.92754247510413279
301.78143140850295367
301.63831735763932329
301.4765516402845833
301.30649728104128826
301.1345354193886692
300.96314014774486623
300.79403996038297464
300.63086473828718681
300.47897839517992225
300.34346708610996757
300.22736040568435101
300.13132329491105565
300.0542937402528878
299.99454922014757585
299.94974588438128649
299.91586508042411197
299.88845177491242566
299.86440328475509887
299.84305520707016512
299.82565678427255307
299.81329290618577943
299.80505756297941389
299.79858906475391223
299.79207056645634566
301.61085319075300504
301.44044282976273053
301.26377401285731139
301.08666692991482705
300.91154970573506944
300.74045292828640186
300.57703722595294948
300.42635275606221512
300.29306527796870796
300.17944693195164518
300.08585916974362817
300.01172843682326175
299.95614610746844164
299.91650711246290939
299.88910616331077108
299.869125449166404
299.85200036911692223
299.83555348147075392
299.82000837690333128
299.80607607897843536
299.79339916817053791
299.78081064121283816
299.76832446236034002
301.48437392013499903
301.29575427421815448
301.09687236038905667
300.89534236966380831
300.69995348555437431
300.51990927295923939
300.36194365616324831
300.22865152093055485
300.11965543896502595
300.03377374558493784
299.96964233183081205
299.92523194598339842
299.89696853221602169
299.87916744366685862
299.86530780891968107
299.85055286507099481
299.83305001928459887
299.81301491438586027
299.79113950686200951
299.768259778672018
299.74659075581172374
300.59353071009320502
300.42471499765639464
300.27760235129341027
300.15330897234241547
300.05081537624454313
299.96917893737133909
299.9084660952851209
299.86856113316065375
299.84701201326225828
299.83791559473428379
299.83330974840089311
299.82618245070796092
299.81279575959041495
299.79294195396397527
299.76858157836522878
299.74290716601257145
299.72023508386513413
300.01211496915510679
299.93707454688967573
299.8802776436762656
299.8430653766473597
299.82415978748309726
299.81794023027737239
299.81593713491082553
299.81013921045683901
299.79586282804353914
299.77288951763279101
299.74461894832927555
299.71637028340893494
299.69366178989724858
299.94805471114261763
299.88719567303098756
299.84666685087034921
299.82505210494929315
299.81630062245892532
299.81124616738543409
299.8012384040009124
299.78146898076209936
299.75241924488199174
299.71903423309868231
299.68819344037632391
299.66581524876824005
301.57589484586605977
301.40690152290693504
301.20119732323314565
300.99740589556483883
300.8328436579348022
300.73532897303221034
300.71829826502397509
300.7773619560299494
300.89216085935458977
301.03271597465970899
301.17122499881668318
301.29005340716537376
301.38469415482035174
301.46033173238072322
301.52650637741925266
301.59139841712698171
301.65854208006754789
301.72344544049889237
301.77274450218834545
301.78766761509331218
301.66601207422269226
301.62772900342940829
301.51610265305737357
301.34004121615231497
301.12847802918435036
300.92292652020347532
300.76642653340690003
300.69060169703374186
300.70555284886773961
300.79679598373309091
300.9332400916684378
301.08056197102882834
301.21314381546983441
301.31932406245044831
301.39985939210976085
301.46305570864888068
301.51982652929137885
301.57904014437173146
301.64306013383929894
301.70531556220146285
301.75165124763452695
301.76460746021007253
301.54086724125846786
301.58706552324321137
301.62936995629775083
301.63548842124924931
301.57763517380402618
301.44490147014880677
301.25065822029432638
301.03231726541565649
300.83944571950314639
300.71713099146006698
300.68922913505286942
300.75056690676734661
300.87345017902526934
301.02105426195936388
301.1621580290149609
301.27853761603603289
301.36610498150042758
301.43103315251636332
301.48479143638707001
301.53896188317025917
301.6002477376783304
301.66731400414658992
301.73055484926254621
301.77434875741704445
301.78001049667926736
301.73056684634508429
301.6120381159866497
301.62297666936387941
301.63494667647262304
301.6345581883460909
301.60302551189613496
301.52511390668900049
301.39771723752153321
301.23510350125690138
301.06851093575852474
300.93659450236134489
300.87100901247310958
300.88430788799655602
300.96570281910379663
301.08819984022551353
301.22093373624915102
301.34018429705258768
301.43422775523760038
301.50296647542569417
301.55370692823038326
301.59619512151283516
301.6378271694749742
301.68002125581284645
301.71759672744423142
301.7406521525140306
301.73788219796676913
301.69950374544498573
301.61966448666868246
301.50065092470447325
301.76782460432798416
301.73558968113582068
301.65840370164335127
301.55247048616053007
301.44337155311490051
301.35583915290567347
301.30334739194131544
301.28513545435140486
301.29073604485097349
301.31111393541436883
301.34368220077919887
301.39007425429082332
301.4511912063015302
301.52302492417084068
301.59716500038069853
301.66530370752036561
301.72149076018666847
301.76250180304629112
301.78631428642211176
301.79104418441556845
301.77462251533779636
301.73541286382885573
301.67368792874873407
301.59394997837404162
301.50654982456507014
301.4260340223790422
301.36618582588010895
301.3347520234360104
301.33228337033989419
301.35426701160116636
301.68815191305276358
301.71137844657027927
301.70725824466012455
301.67993973972716049
301.64161686371051019
301.60576918936499169
301.58124749632531802
301.56734578150678772
301.55478264575503999
301.53375710941492116
301.50309999058811172
301.47288800318091262
301.4576263526821549
301.46716778810281312
301.50138181352775746
301.55049819479313555
301.60052813899511648
301.63851341805008133
301.65585450294094016
301.649273685275773
301.62122749850504988
301.5785829307940844
301.52952628159545156
301.48109064209273811
301.43933229907679561
301.40991038761109166
301.39724235669217478
301.40191663171452774
301.41906704877578704
301.43978544427142197
301.45521993931708948
301.45988905944568614
301.46134278926496108
301.46155167857818924
301.43085434968435266
301.37672107322384818
301.31676192735443465
301.2689316108977664
301.24344693818801488
301.23773448390500107
301.23786620632284894
301.22912935477967267
301.20673833005565712
301.17890366271637959
301.15885764084919174
301.15469040542154744
301.16507539099035284
301.18107734861428071
301.19204227752300085
301.19124820737226855
301.17727959017167905
301.15275815089353273
301.12295465947113371
301.09336399349439262
301.0666041558936854
301.04155377910245761
301.01627998175331413
300.99127362500644267
300.96958973651027236
300.95408919675486459
300.94442336347162836
300.93696881169279322
300.92771825341316116
300.91450682944071104
300.89748073970076803
301.14719166263495254
301.18956188843361588
301.25689904412024589
301.31180618364885504
301.33624087225149424
301.34242556498497834
300.97897969141268959
300.98006503669211043
300.95044511451021663
300.89750607119941606
300.8394844917690989
300.79475234543502893
300.77289166645152818
300.77056217042422759
300.77232655892890989
300.76290811236805212
300.73831014021106967
300.70785896667950965
300.68652670967162521
300.68347463908600048
300.69780787084903295
300.72065956177522139
300.74101043187158666
300.75159823236970169
300.75030504142705468
300.73917567323070443
300.72298385086168082
300.70676068515012958
300.69243030259821126
300.67813536753573089
300.66153496609109652
300.64382301461984071
300.62909607526330547
300.62109474201685089
300.61992604335745227
300.62176813414441767
300.62239756791029777
300.61954686359962352
300.61335386527423452
300.60584949711920899
300.51286584590144457
300.50568336452079166
300.54077370372431233
300.60318266209867488
300.65368158073437144
300.67294619758052932
300.6734514812407042
300.5025514260920545
300.51256440199051667
300.4906595948315271
300.44434557175299005
300.3925321560266184
300.35473275535292714
300.34089257842504139
300.34733050411369959
300.35804732367307679
300.35696926585029587
300.34010134907964584
300.31717327659060857
300.30384578362264847
300.30954511382276451
300.33301502501797131
300.36491134959965166
300.39400325710840889
300.41296840378987554
300.41967860564255943
300.41621096988757245
300.40729990144433259
300.39810662077235293
300.39052050272334782
300.38264975806566781
300.37206682889967624
300.36011430389669385
300.35115782678229834
300.34905486134209696
300.35399992648689249
300.36194945662850841
300.36851525345463187
300.37145280520269353
300.37095955438917372
300.36903963172130716
300.3684742824436853
299.83441516823705797
299.82617319837663672
299.81880661479692662
299.81336467861359552
299.81021345340974449
299.80957678221682272
299.81134025272842791
299.81486856696818677
299.82012361590221872
299.82557036386555183
299.83138741291327278
301.71887676891441288
301.8145224374639497
301.89489244372816756
301.95138057502470019
301.97796815511225077
301.9701502703501319
301.92492045475404439
301.84195478695875181
301.72418842491214264
301.57685758017709077
301.406409625690344
301.21983418385531195
301.02463022187492925
300.82881831316728949
300.64001964552386426
300.46397246645233281
300.30386525765237593
300.16146992144166461
300.03912279639934013
299.94015573902356664
299.86590085199236455
299.81385083339165476
299.77660951461928107
299.74439258142604103
299.7103075906904337
299.6741809349876462
299.64214242989487502
299.62184357766682297
299.61678959903866826
299.62374692183243496
299.63412185604590832
299.63857776943649469
299.6324446839565212
299.61708709231834291
299.59811766953919232
299.58108500337510804
299.84264202004743538
299.84326316846596683
299.84586674453015576
299.84991066774324509
299.85436963243932951
299.8579669603828961
299.85948105925876916
299.85812843968182051
299.85362708416442956
299.84655264742292502
299.8378061138242856
299.82892577060010808
299.82111238634831807
299.81555055866522252
299.81277629641226667
299.81283906334004996
299.81557133524376013
299.8202716438789821
299.82668389329501224
299.83370112529917151
299.8410389526472386
301.7229840268580574
301.82229769100007388
301.9087652947296192
301.97336537315123906
302.00786077259192552
302.00498993665183889
301.95975695868645516
301.87123086063741084
301.74334034669715265
301.58342765209329173
301.40029444556944327
301.20289322297702483
300.99976178080663658
300.79885303423446885
300.60706069212352531
300.42958638515830216
300.26985188358099776
300.13042560766319866
300.01418375572211517
299.92416258181907551
299.86122264918890323
299.82067318247175081
299.79296639825685133
299.76665731699682738
299.73418590686526386
299.69573085882154828
299.65873759937210252
299.63233249403003811
299.62147592674244834
299.62392225701370307
299.63135744500806368
299.63440607654627001
299.62801124299409139
299.61353795550110135
299.59604542766351187
299.58129202871384678
299.85125561746934864
299.85030266010039668
299.85152374267102005
299.85459457220849799
299.85849590184835733
299.86183597931312761
299.86328389591085397
299.8620404819309897
299.85783519886757631
299.85123770647732044
299.84305224187176009
299.8346629027914787
299.82725088456459162
299.82201963157700675
299.81973883267528436
299.82042457295460736
299.82393754893695359
299.8294861245273637
299.83654347431348697
299.84450298783957578
299.85271962631196629
301.83818355899398966
301.92741732792086395
301.99285526842027139
302.02528198723081232
302.01721038822074661
301.96437354976342249
301.86705988829135094
301.73042688272329315
301.56308091243971603
301.37467390599516648
301.17442824206358409
300.97092942505480551
300.77178053522709433
300.58292665994122217
300.40857389801811905
300.251828699536361
300.11584452515489829
300.00441230551939498
299.92083355869732486
299.86545755042288874
299.83319557799774202
299.81295105204611673
299.79223122012211888
299.76280188094619916
299.72465840864975917
299.68505569608049655
299.65346670180309729
299.63610441894775249
299.63195200959364684
299.63466274095367226
299.63680574792294919
299.63320916635251479
299.62304671121103183
299.61000340846891277
299.85804937115960911
299.85760870295138147
299.85921202472661662
299.86210567844477737
299.86501095909471815
299.86655070316982119
299.86582386816962753
299.86243868130890178
299.85691149287589496
299.85001786262540691
299.84300835456400591
299.8368814531684734
299.83253296684455336
299.83068667948674602
299.83138227620639782
299.83484957376032298
299.8405461569821
299.84778367826856993
299.85636497404033207
299.86512050521525907
301.86196826807963589
301.96150496662801288
302.03071873246017276
302.05853027509419917
302.0376404330881428
301.96529419357273127
301.84444236371666648
301.68315771407003467
301.49260362851771333
301.28489018883010431
301.07142846339775133
300.86220562529030076
300.66502410855997596
300.48487473351525523
300.32383395845067753
300.18230933584078457
300.06106982697718877
299.96265065440053377
299.89014844284747596
299.84437423049286053
299.82059670962752307
299.80830286286567343
299.79533546829298984
299.7733146859631006
299.74098642801749293
299.7040384873473613
299.67098842398843317
299.648231756746668
299.63743256231163059
299.63601892535336901
299.63900501112385655
299.64138433936034289
299.64064971696103612
299.63650669686222727
299.86555206935810247
299.8639321150616297
299.86426808017324674
299.86605148590291492
299.86836391444921901
299.87006676946083417
299.87027594349007131
299.86840414267118149
299.86469300046206854
299.85964950598645373
299.85428969069948835
299.84950545882628603
299.84603626655609787
299.84460548871516039
299.84515048358781542
299.84814004204736193
299.85333017075578255
299.86003188122492702
299.86856966253401424
299.87734492025759891
301.94545022303003634
302.01776557534617496
302.05403944890304047
302.04785106233390479
301.99617172424791534
301.89945704628763679
301.76140222239052946
301.58876020788164851
301.39060770589696858
301.17758556412161397
300.96120125271568213
300.75248715883486739
300.55987123570707809
300.38785991106226447
300.23775605611047013
300.109890609456329
300.00555423695413992
299.92697139628387504
299.87502935832128514
299.84614835166678404
299.83142275589159453
299.81922866706952391
299.80022462864997124
299.77109646874441751
299.73459360930917228
299.69746113818916911
299.66646149622090434
299.64666614047445137
299.63992585085389919
299.64451144200046429
299.65593315406528063
299.66815860213040423
299.8704835630527441
299.87021407099126691
299.87138811615807299
299.8732766911752492
299.8750581768650818
299.8761049006277517
299.87582450436929093
299.87421073321002041
299.87138566988318189
299.86794031226179413
299.86453117883934283
299.86175382853866722