# Selection       : sampledSurface(triSurfaceDifference(p,name1=nearInlet.obj,name2=nearOutlet.obj).region2)
# Faces           : 80
# Area            : 1.0000000000e-01
# Time            	areaAverage(p)
1                 	1.0000010356e+05
