/*--------------------------------*- C++ -*----------------------------------*\
  =========                 |
  \\      /  F ield         | OpenFOAM: The Open Source CFD Toolbox
   \\    /   O peration     | Website:  https://openfoam.org
    \\  /    A nd           | Version:  12
     \\/     M anipulation  |
\*---------------------------------------------------------------------------*/
FoamFile
{
    format      ascii;
    class       volScalarField;
    location    "1e-05";
    object      alphat;
}
// * * * * * * * * * * * * * * * * * * * * * * * * * * * * * * * * * * * * * //

dimensions      [1 -1 -1 0 0 0 0];

internalField   nonuniform List<scalar> 
75962
(
3.5803264334555401526e-07
1.3769986709462418416e-07
5.1440083434887413858e-08
3.0107481321745740301e-08
2.7769777857774871755e-08
2.7600618733726028963e-08
2.7556803190492018764e-08
2.7518419742329073695e-08
2.7480276713023203455e-08
2.7442191311595505433e-08
2.7404158662529907121e-08
2.7366178785099475254e-08
2.7328251497197476379e-08
2.7290376860616856585e-08
2.7252554559521807088e-08
2.7214784864878951881e-08
2.7177067622137527825e-08
2.7139402458809813429e-08
2.7101789522989269098e-08
2.7064228820723822572e-08
2.702672003067715222e-08
2.6989263319029432823e-08
2.6951858643358259987e-08
2.6914505804978248636e-08
2.6877204569027269602e-08
2.6839955138143751171e-08
2.6802757348472624002e-08
2.67656112055415457e-08
2.67285166384053494e-08
2.6691473283609297953e-08
2.6654481289291006666e-08
2.6617540662581205861e-08
2.6580651160093422005e-08
2.6543812976218222482e-08
2.6507025681374903849e-08
2.6470289282738616027e-08
2.6433604003952708852e-08
2.6396969684865298015e-08
2.6360385939796156959e-08
2.6323852913600132159e-08
2.6287370623512362166e-08
2.6250938832505996077e-08
2.6214557621948501113e-08
2.6178226767582087753e-08
2.6141946356136424849e-08
2.61057161439876645e-08
2.606953634395957788e-08
2.6033406518743745051e-08
2.5997326670817700986e-08
2.5961297050741080598e-08
2.5925317379069697555e-08
2.5889387470024103394e-08
2.5853507543862834809e-08
2.5817677269771195388e-08
2.5781896552862900018e-08
2.5746165436098185927e-08
2.5710484064643247063e-08
2.5674851977527725312e-08
2.5639269172828194141e-08
2.5603735908848436075e-08
2.5568251909269379605e-08
2.553281699194384876e-08
2.5497431298777380851e-08
2.5462094476481738443e-08
2.5426806728057558977e-08
2.5391568010569093081e-08
2.5356378132682874097e-08
2.5321236923268861915e-08
2.5286144535902656449e-08
2.525110059295797444e-08
2.5216105427279238158e-08
2.518115878420558504e-08
2.5146260471761752223e-08
2.5111410631626411155e-08
2.5076609004931112736e-08
2.5041855719533683717e-08
2.5007150511196061832e-08
2.4972493528174582656e-08
2.4937884380595736705e-08
2.490332340724201448e-08
2.486881037598055601e-08
2.4834344959660194877e-08
2.4799927518290054004e-08
2.4765557805030465352e-08
2.4731235613887204989e-08
2.469696110545670063e-08
2.4662733988028190308e-08
2.4628554531828176509e-08
2.4594422257540543557e-08
2.4560337261258433077e-08
2.4526299750841169375e-08
2.4492309225607772543e-08
2.4458365797289624117e-08
2.4424469552190851535e-08
2.4390620187266362986e-08
2.4356817856760871398e-08
2.4323062271627890768e-08
2.428935360885972991e-08
2.4255691455592317347e-08
2.4222076151567378615e-08
2.4188507564250532032e-08
2.4154985396895791884e-08
2.4121509582663665878e-08
2.4088080165705604115e-08
2.4054697230914448104e-08
2.4021360440078700195e-08
2.3988070088352212022e-08
2.3954825682271157831e-08
2.3921627329370532649e-08
2.3888475138585715192e-08
2.3855368785735967784e-08
2.3822308448091316858e-08
2.3789293816172396575e-08
2.3756325090710864796e-08
2.3723401837342230762e-08
2.3690524426386423734e-08
2.3657692627600671588e-08
2.3624906194356839527e-08
2.3592165335357946301e-08
2.3559469735622895618e-08
2.3526819587674696104e-08
2.3494214571958693759e-08
2.3461654883938941188e-08
2.3429140199918158001e-08
2.3396670735639609642e-08
2.3364246061647483703e-08
2.3331866434001044517e-08
2.3299531804942539651e-08
2.326724203829089883e-08
2.3234996768318649924e-08
2.3202796400067994906e-08
2.3170640714346490618e-08
2.3138529445097174108e-08
2.3106462826074556542e-08
2.3074440502950459094e-08
2.3042462815247854423e-08
2.3010529251811859431e-08
2.2978639888491981599e-08
2.2946795001351816051e-08
2.2914994054777447115e-08
2.2883237140803481211e-08
2.2851524415396586387e-08
2.281985550992405353e-08
2.2788230650985625613e-08
2.2756649468345964177e-08
2.2725112314681365055e-08
2.2693618689787976043e-08
2.2662168563490513092e-08
2.2630762247665279847e-08
2.2599399614998989169e-08
2.2568080331466355597e-08
2.2536804363827083201e-08
2.250557161409946452e-08
2.2474382375132505056e-08
2.2443236538152695413e-08
2.2412133662958151102e-08
2.2381073735409198934e-08
2.2350057093750149159e-08
2.231908353156889613e-08
2.2288152623208424625e-08
2.2257264778514741704e-08
2.2226419919273337869e-08
2.2195617603357393321e-08
2.2164857814072500783e-08
2.2134140897213243526e-08
2.2103466632687688959e-08
2.2072834685006633839e-08
2.2042245464081899025e-08
2.2011698439473222926e-08
2.1981193671240247599e-08
2.1950731482033022925e-08
2.1920311330769635202e-08
2.1889933190369776054e-08
2.1859597310401988979e-08
2.182930349709944048e-08
2.1799051767053504218e-08
2.1768842019138809207e-08
2.1738673950473969297e-08
2.1708547868964645828e-08
2.1678463377596110341e-08
2.1648420763797925812e-08
2.1618419604201525123e-08
2.1588460306925295685e-08
2.1558542424878758307e-08
2.1528663446970344963e-08
2.149887795328329768e-08
2.1468326676625322445e-08
2.1446217576622762981e-08
2.0250397787284715706e-08
2.0272158682649013586e-08
2.0254126141805648015e-08
2.0226431172908230609e-08
2.0198207237177827662e-08
2.0170210923069290413e-08
2.0142259061246668549e-08
2.011434586964735526e-08
2.0086471156879289721e-08
2.0058635327202644121e-08
2.003083820671473842e-08
2.0003079370610024034e-08
1.9975359229170488452e-08
1.9947677294095219888e-08
1.9920033952328264379e-08
1.9892428709000456015e-08
1.9864861954547770554e-08
1.9837333188739197797e-08
1.9809842825179857171e-08
1.9782390268038758626e-08
1.9754975882035686325e-08
1.972759961220718848e-08
1.9700261388711706058e-08
1.9672960796069182423e-08
1.9645698290450723406e-08
1.9618473270600946579e-08
1.9591286109388672083e-08
1.9564136728767030154e-08
1.9537025180651348416e-08
1.950995096687937884e-08
1.948291412349895769e-08
1.9455915122678873769e-08
1.9428953338537800262e-08
1.9402028789397298047e-08
1.9375141854233493339e-08
1.9348291861345017184e-08
1.9321479299021425834e-08
1.9294704065759462421e-08
1.9267965582266977967e-08
1.9241264351922196453e-08
1.9214600371460189677e-08
1.9187973125535246686e-08
1.9161382547285306394e-08
1.9134829075616114207e-08
1.9108312564050285718e-08
1.9081832526915010839e-08
1.9055389458611830428e-08
1.902898272403754829e-08
1.9002612714754280411e-08
1.8976279370935944144e-08
1.8949982668725436322e-08
1.8923722035282223006e-08
1.8897498012349502474e-08
1.8871310498162271446e-08
1.884515897420089387e-08
1.8819044044338348679e-08
1.879296512136264612e-08
1.8766922099232798467e-08
1.8740915424121878747e-08
1.87149449848608592e-08
1.8689010159106294271e-08
1.8663111490262278191e-08
1.8637248905154600794e-08
1.8611421783271770118e-08
1.8585630649911548603e-08
1.8559875525318731755e-08
1.8534155852679486105e-08
1.8508471658368862531e-08
1.8482823392335454383e-08
1.8457210328419805259e-08
1.8431632961052744829e-08
1.8406091310863045839e-08
1.8380584818270187281e-08
1.8355113486148370321e-08
1.8329677844239702878e-08
1.8304277323866099955e-08
1.8278911969071345826e-08
1.8253581789359302359e-08
1.8228286653594042579e-08
1.8203026425490926578e-08
1.8177801622760822838e-08
1.8152611599450496403e-08
1.8127456226043057602e-08
1.8102335973442780926e-08
1.8077250730529515064e-08
1.8052199939236883194e-08
1.8027184153093005189e-08
1.8002202757443522659e-08
1.7977256280177199035e-08
1.7952344074446749472e-08
1.7927466778590648902e-08
1.7902623754545377227e-08
1.7877814974816857093e-08
1.7853040936562834864e-08
1.7828300869654142237e-08
1.7803595287852250694e-08
1.7778924234292438807e-08
1.7754287127451297452e-08
1.7729683968318409266e-08
1.7705115271836234654e-08
1.7680580254836886356e-08
1.7656079459877217208e-08
1.7631612830680828033e-08
1.7607179754029878684e-08
1.7582780928647296819e-08
1.7558415711796471643e-08
1.7534084065662381541e-08
1.7509786493899214488e-08
1.7485522300407082181e-08
1.7461292070585016156e-08
1.7437095037860724743e-08
1.7412931755183162422e-08
1.7388802198703454819e-08
1.7364705658481413649e-08
1.7340642706358924314e-08
1.7316613384395196052e-08
1.7292617201611256977e-08
1.726865416693606189e-08
1.7244724153175110098e-08
1.7220827756379755877e-08
1.7196964298251352034e-08
1.7173133641381034185e-08
1.7149336190189480642e-08
1.712557184311617379e-08
1.7101840618353458968e-08
1.7078141918243200104e-08
1.7054476386578294473e-08
1.7030843331917293445e-08
1.7007243382102481208e-08
1.6983675759014760015e-08
1.6960140956891793011e-08
1.6936638809379776896e-08
1.6913169306676201203e-08
1.6889732519337047628e-08
1.6866327834930396869e-08
1.6842955938898288921e-08
1.6819616049844286822e-08
1.6796308645506040499e-08
1.677303365636934268e-08
1.6749791143487008025e-08
1.6726580404677964521e-08
1.6703401967639939894e-08
1.6680255746636040848e-08
1.6657141883478581436e-08
1.6634059821480988272e-08
1.6611009428327748358e-08
1.658799123682140222e-08
1.6565005227482127676e-08
1.6542050617691871035e-08
1.651912800560678404e-08
1.6496237494051964791e-08
1.6473378461698891875e-08
1.6450550835083504422e-08
1.6427755324832074169e-08
1.6404991211951721738e-08
1.6382258399684272141e-08
1.6359557500691647214e-08
1.6336887720111161083e-08
1.63142497247077177e-08
1.6291642729273162355e-08
1.6269067504692567465e-08
1.6246523366208179852e-08
1.6224010214886319664e-08
1.6201528680563067533e-08
1.6179077953583131034e-08
1.6156658712568846368e-08
1.6134270183239948516e-08
1.6111913055375378806e-08
1.6089586547961605491e-08
1.6067291379764771125e-08
1.6045026677145965145e-08
1.6022793039052047856e-08
1.6000590514431676852e-08
1.5978418294847447501e-08
1.5956276959024757715e-08
1.5934166355086437676e-08
1.5912086435708286785e-08
1.5890037414242214491e-08
1.5868018716517047728e-08
1.5846030182050612277e-08
1.5824072379200440795e-08
1.5802145306383398924e-08
1.5780248196846459339e-08
1.5758381817095626766e-08
1.5736545361892534873e-08
1.5714739565293409116e-08
1.5692963585521049032e-08
1.5671218246913451074e-08
1.5649502851206074686e-08
1.5627817239905029762e-08
1.5606162198005055104e-08
1.5584536979283031508e-08
1.5562941439777312049e-08
1.5541376281809979874e-08
1.5519840628899197299e-08
1.5498335226422410464e-08
1.5476859235772227957e-08
1.5455413414361107303e-08
1.5433996919846241791e-08
1.5412610514319204824e-08
1.5391253351048298403e-08
1.5369926196809863109e-08
1.5348628200410305999e-08
1.532736013329033656e-08
1.5306121139799572265e-08
1.5284911996367316525e-08
1.5263731839440601025e-08
1.5242581474841166187e-08
1.5221459956567630085e-08
1.520036791374745088e-08
1.5179305428459590234e-08
1.5158271667547297205e-08
1.5137267492647068508e-08
1.5116291959676769835e-08
1.50953456759789892e-08
1.50744288133866684e-08
1.5053540693844192525e-08
1.5032681190729112525e-08
1.5011851083133740531e-08
1.4991049411167402383e-08
1.4970277058642529469e-08
1.4949533307293320932e-08
1.4928817952439661596e-08
1.4908131854424665259e-08
1.4887474244465893065e-08
1.4866844931281391856e-08
1.4846244702513430951e-08
1.4825672604321454303e-08
1.4805129459017143796e-08
1.4784614353380516792e-08
1.4764128123421308215e-08
1.4743669848468649811e-08
1.4723240394165277487e-08
1.4702838765473452382e-08
1.4682465608099338873e-08
1.4662121043952858652e-08
1.4641804175975794908e-08
1.4621515928816211122e-08
1.4601255306237113711e-08
1.4581022958111572843e-08
1.456081901457818383e-08
1.4540642565869476943e-08
1.4520494545732201308e-08
1.4500373973042681051e-08
1.4480281431358790902e-08
1.4460216839163461408e-08
1.444018036901258526e-08
1.4420171146684931633e-08
1.4400190096358401165e-08
1.4380236596030768575e-08
1.4360305366974622753e-08
1.4340483806063002343e-08
1.4319830541565128383e-08
1.4305266547393073609e-08
3.546003948840261703e-07
1.3790926078693557364e-07
5.2779011176581414313e-08
3.1580991189174575358e-08
2.9222432793262876164e-08
2.9051859205542787529e-08
2.9006434749559186103e-08
2.8966066136571420745e-08
2.892591534050265538e-08
2.8885825676992623485e-08
2.8845792061329230848e-08
2.8805813939987325518e-08
2.8765891161661342643e-08
2.8726023803421082942e-08
2.8686211534176312831e-08
2.8646454653713274047e-08
2.8606752884703456799e-08
2.8567105957200276522e-08
2.8527514189516742795e-08
2.84879772910197247e-08
2.8448495102484600781e-08
2.8409067826958393456e-08
2.8369695023056608043e-08
2.8330376699720567346e-08
2.8291113098182094914e-08
2.8251903929173119599e-08
2.821274892907801931e-08
2.8173648293163408566e-08
2.8134601978869468421e-08
2.8095609764871651366e-08
2.8056671512482973236e-08
2.8017787326663141188e-08
2.7978956855949829655e-08
2.7940180415289565397e-08
2.7901457736260998871e-08
2.7862788529499900838e-08
2.7824173129535144317e-08
2.7785611253179487837e-08
2.7747102738547567693e-08
2.7708647685152321775e-08
2.7670245844622017815e-08
2.7631897433042158962e-08
2.7593601993494139428e-08
2.7555359547672881741e-08
2.7517170222558259694e-08
2.747903395773200873e-08
2.7440950540798608931e-08
2.7402919797651682068e-08
2.7364941971528220211e-08
2.7327016604168883531e-08
2.7289143698389308807e-08
2.7251323501467430837e-08
2.72135558334785723e-08
2.7175840411473256521e-08
2.7138177168576766548e-08
2.7100566038681251344e-08
2.7063007271588913079e-08
2.7025500591202354721e-08
2.6988045697127184729e-08
2.695064283207797768e-08
2.691329182279300601e-08
2.6875992674714932863e-08
2.6838745331966556425e-08
2.6801549413219791448e-08
2.6764404934654538868e-08
2.6727312173324085633e-08
2.6690270842030406549e-08
2.665328074260927341e-08
2.6616342033657504061e-08
2.6579454319286225723e-08
2.6542617947907204583e-08
2.650583265216230935e-08
2.6469098230878743437e-08
2.6432414831922062446e-08
2.6395782182614576272e-08
2.6359200434790395018e-08
2.6322669182344270508e-08
2.6286188779402046574e-08
2.6249758962803338318e-08
2.6213379521176989751e-08
2.6177050631716056495e-08
2.6140771883688991633e-08
2.6104543634633808652e-08
2.6068365641013179437e-08
2.6032237573756809064e-08
2.599615970049270477e-08
2.5960131846370839721e-08
2.5924154034716956112e-08
2.588822609745448158e-08
2.5852347813471146321e-08
2.5816519488683027236e-08
2.5780740637776376797e-08
2.5745011249378447581e-08
2.5709331620183496738e-08
2.5673701496128044923e-08
2.5638120514772891245e-08
2.5602589066136887438e-08
2.5567106899043156416e-08
2.5531673779915566859e-08
2.5496289897033095281e-08
2.5460954943804324751e-08
2.5425669111718132622e-08
2.5390431961111688159e-08
2.5355243869341104201e-08
2.5320104587426181038e-08
2.5285013872673192358e-08
2.5249971925690671839e-08
2.5214978412506505189e-08
2.5180033647460968571e-08
2.5145137111746490981e-08
2.5110288915626006534e-08
2.5075489195164753753e-08
2.5040737477915958208e-08
2.5006034147549513019e-08
2.4971378961295137959e-08
2.4936771663215921946e-08
2.4902212468173170601e-08
2.4867701048870666421e-08
2.4833237603293771383e-08
2.4798821799377363305e-08
2.4764453838191158837e-08
2.4730133383258982682e-08
2.4695860658499443914e-08
2.4661635196826679332e-08
2.4627457391952283375e-08
2.4593327027811098231e-08
2.4559243705743983544e-08
2.4525207824551332339e-08
2.449121928274270905e-08
2.4457277619124704658e-08
2.4423382957786272814e-08
2.4389535448197027841e-08
2.4355734717484294933e-08
2.4321981004936205178e-08
2.4288273828311345133e-08
2.4254613592671765797e-08
2.4221000070660400641e-08
2.4187432955868990374e-08
2.4153912629546584789e-08
2.41204385558910747e-08
2.4087010813009273998e-08
2.4053629694059229479e-08
2.4020294637339863225e-08
2.3987005716493460442e-08
2.3953763229792734102e-08
2.3920566611108420611e-08
2.3887415951783494209e-08
2.3854311445086107672e-08
2.382125256703496974e-08
2.3788239732818956235e-08
2.3755272722476038318e-08
2.3722351229944700884e-08
2.368947553174528503e-08
2.3656645229049978348e-08
2.3623860705291021658e-08
2.3591121429948009494e-08
2.3558427365560741019e-08
2.3525778863852222808e-08
2.3493175707964265757e-08
2.3460617449939915675e-08
2.3428104539962040005e-08
2.3395636769786804496e-08
2.3363213798258216524e-08
2.3330836026903595735e-08
2.3298503030056083458e-08
2.3266214733340181595e-08
2.3233971149212776874e-08
2.3201772480301765917e-08
2.3169618172109166199e-08
2.3137508636015795244e-08
2.3105443794729291119e-08
2.3073423157164998035e-08
2.3041446829422616998e-08
2.3009515029576282684e-08
2.2977627322290139526e-08
2.2945783995316271527e-08
2.2913984631841289624e-08
2.2882229547008791396e-08
2.2850518195907152563e-08
2.2818851022971182343e-08
2.2787227831145286313e-08
2.2755648248405602707e-08
2.2724112729506720335e-08
2.2692620704403413246e-08
2.2661172332273951005e-08
2.2629765236821289255e-08
2.2598456133739459457e-08
2.2566341766168311096e-08
2.2543098029046907355e-08
2.134529663230830373e-08
2.1368193964070426209e-08
2.1349167341846240192e-08
2.1319968162156524811e-08
2.1290219977309146762e-08
2.1260709992781698844e-08
2.1231246330807972089e-08
2.1201823990238074664e-08
2.117244223709963076e-08
2.1143100988427344762e-08
2.1113800665742027735e-08
2.1084541108974123001e-08
2.1055321750574584237e-08
2.1026143112889039068e-08
2.0997005071130191572e-08
2.0967907055982620709e-08
2.0938849595751214702e-08
2.090983254494656043e-08
2.0880855451948140622e-08
2.0851918757929538754e-08
2.0823021941049025779e-08
2.0794165417792284963e-08
2.0765348656959018006e-08
2.0736572101179298085e-08
2.0707835096949822365e-08
2.0679138148820727921e-08
2.0650481139382256688e-08
2.062186347952400301e-08
2.0593285706483777068e-08
2.0564747709046192592e-08
2.0536248895561356432e-08
2.0507789784823938887e-08
2.0479370367828391539e-08
2.0450990088044501298e-08
2.0422648998818330391e-08
2.0394347500823776373e-08
2.0366084890568024217e-08
2.0337861679447245605e-08
2.0309677760788380945e-08
2.0281532525100925487e-08
2.0253426523472270362e-08
2.0225359633015768936e-08
2.0197331358728923711e-08
2.0169342189489796856e-08
2.0141391562007876289e-08
2.0113479937970060366e-08
2.0085606746653731698e-08
2.0057772453484697948e-08
2.0029976481578236593e-08
2.0002219323967447207e-08
1.9974500284090431338e-08
1.9946819891526487906e-08
1.9919178030359293738e-08
1.9891574184783969921e-08
1.986400886819567266e-08
1.9836481473400636969e-08
1.9808992603264501231e-08
1.9781541616771815676e-08
1.9754128495183141015e-08
1.9726753779682964654e-08
1.9699416794322464308e-08
1.9672117513501839312e-08
1.9644856481651509896e-08
1.9617633039179597831e-08
1.9590447089624432674e-08
1.9563298991657586301e-08
1.9536188647487979984e-08
1.950911604240303855e-08
1.9482080548942056229e-08
1.9455082747302924918e-08
1.9428122568808941171e-08
1.9401199347963986909e-08
1.9374313665867951474e-08
1.9347465434853176287e-08
1.9320654077058650635e-08
1.9293880241945910752e-08
1.9267143369134644623e-08
1.9240443531954615382e-08
1.9213780648259939146e-08
1.918715449106166792e-08
1.9160565508730197311e-08
1.9134013597104873326e-08
1.9107498089193416605e-08
1.908101946251032691e-08
1.9054577658025431467e-08
1.9028172659199167904e-08
1.9001803918423951652e-08
1.8975472042094507768e-08
1.8949176298423765743e-08
1.8922917137326811495e-08
1.8896694491728575002e-08
1.8870508375310008174e-08
1.8844358118532127836e-08
1.8818244325007049933e-08
1.8792166952708152836e-08
1.8766125291818177224e-08
1.8740119946212471076e-08
1.8714150855192415164e-08
1.8688217389340478937e-08
1.8662320265685811692e-08
1.86364588391511462e-08
1.8610632968030874703e-08
1.8584843137661300292e-08
1.8559089362473541664e-08
1.8533371025849917316e-08
1.8507688099895981242e-08
1.8482041221944968864e-08
1.8456429701401134394e-08
1.8430853381615147552e-08
1.8405312779814872823e-08
1.8379807805475414284e-08
1.8354337818624357211e-08
1.8328903478566068396e-08
1.8303503983823265877e-08
1.8278139918610279881e-08
1.82528112353730694e-08
1.8227517291421534352e-08
1.8202258735584497212e-08
1.8177034839666257536e-08
1.815184632699086202e-08
1.8126692511538743091e-08
1.8101573315410957347e-08
1.8076489381338586706e-08
1.8051440089475470352e-08
1.802642540715555768e-08
1.8001445191683876675e-08
1.7976500055839431622e-08
1.7951589369831633516e-08
1.7926713101781914314e-08
1.7901871102157936242e-08
1.7877064014801678165e-08
1.7852291123850328686e-08
1.7827552250550799323e-08
1.7802847935160351031e-08
1.777817811390783859e-08
1.7753542097181910773e-08
1.7728940573103706611e-08
1.7704372801070967909e-08
1.7679839436056497093e-08
1.7655339724267340771e-08
1.7630874349395999002e-08
1.7606442456238300262e-08
1.7582044628267368008e-08
1.7557680932107822787e-08
1.7533350821471151866e-08
1.7509054336894982291e-08
1.7484791246220851196e-08
1.7460562037536787164e-08
1.7436366761952983227e-08
1.741220476015935512e-08
1.7388075983926773267e-08
1.736398107034842197e-08
1.7339919174548693949e-08
1.7315891078095497402e-08
1.7291896093751558941e-08
1.7267934027347247813e-08
1.7244005441811340094e-08
1.7220110304804905333e-08
1.7196247847037549603e-08
1.717241891220855325e-08
1.7148622790795993519e-08
1.7124859382032642163e-08
1.7101129340704544078e-08
1.7077431819930890379e-08
1.7053767551183992807e-08
1.7030135633449686288e-08
1.7006536665436192826e-08
1.6982970766613112342e-08
1.695943727155156992e-08
1.6935936084685599375e-08
1.6912467986057953287e-08
1.6889032213658191437e-08
1.6865628618628207659e-08
1.6842257980624289138e-08
1.6818919531162109599e-08
1.6795613143802010365e-08
1.6772339510741347488e-08
1.6749097732759998141e-08
1.6725888618289030753e-08
1.6702711534597030717e-08
1.6679566465933314498e-08
1.6656453235101712965e-08
1.6633372506716883994e-08
1.6610323356845102391e-08
1.658730663204473873e-08
1.6564321602365285147e-08
1.6541368110364969027e-08
1.6518446942355175714e-08
1.6495557410240587444e-08
1.6472699518643003099e-08
1.6449872992382636952e-08
1.642707835654706816e-08
1.6404315707645192558e-08
1.6381584351257559112e-08
1.6358884159194922886e-08
1.6336215970433266973e-08
1.6313579003941430752e-08
1.6290973079948125966e-08
1.6268399008869095336e-08
1.6245856095155008742e-08
1.6223344320108361644e-08
1.6200863482890521877e-08
1.617841429495616271e-08
1.6155995811014172432e-08
1.6133608829864285759e-08
1.6111252454391627317e-08
1.6088927497086985261e-08
1.6066633056704789084e-08
1.6044369954161541599e-08
1.6022137260353033289e-08
1.5999935859166112017e-08
1.5977765085690429308e-08
1.5955624955231758022e-08
1.5933515194575425563e-08
1.5911436296040730884e-08
1.5889388096545376625e-08
1.5867370808640392662e-08
1.5845383771577429475e-08
1.5823426834200860279e-08
1.5801500894333200229e-08
1.577960515138912945e-08
1.5757739408950449119e-08
1.5735904504047745879e-08
1.5714099369692260724e-08
1.5692324662112396694e-08
1.5670580514468099081e-08
1.5648865944943864615e-08
1.5627181644783303485e-08
1.5605527818555298235e-08
1.5583903746293990022e-08
1.55623092780829381e-08
1.5540745263513460096e-08
1.5519210667056358365e-08
1.5497706440307366354e-08
1.547623182004112397e-08
1.5454786596484356555e-08
1.5433371646349867164e-08
1.5411985875572777258e-08
1.5390629929844869851e-08
1.5369303991914347039e-08
1.5348007406028510733e-08
1.5326740247728416073e-08
1.5305502200433388059e-08
1.5284293858349688435e-08
1.5263115325634970183e-08
1.5241965586799141123e-08
1.5220845306080379454e-08
1.5199754379713241537e-08
1.5178693062841752749e-08
1.5157660676399288258e-08
1.5136657350366673561e-08
1.5115677192171573434e-08
1.5094813028921007374e-08
1.5073073472787386379e-08
1.5057743020968518031e-08
4.0075862279989347337e-07
1.5080633089432638323e-07
5.6048547398406015489e-08
3.3181001116475634365e-08
3.0756117925310129076e-08
3.0580324298430119404e-08
3.053236534018355802e-08
3.0489861367594361611e-08
3.0447599267746621921e-08
3.0405400745961576351e-08
3.0363260647350854674e-08
3.0321179071862505015e-08
3.0279155835680134016e-08
3.0237190961764032168e-08
3.0195284226050492992e-08
3.0153435483442726302e-08
3.0111644940201341271e-08
3.0069912136760519232e-08
3.0028237084919131355e-08
2.9986620016861488246e-08
2.9945060730443713054e-08
2.9903558950300999603e-08
2.9862114578578609348e-08
2.9820727675419752748e-08
2.9779398356876231928e-08
2.9738126137917641806e-08
2.9696911043604993992e-08
2.9655753193796223231e-08
2.9614652509190735192e-08
2.9573608875682378973e-08
2.953262202883853281e-08
2.9491691891814746453e-08
2.9450818402948007342e-08
2.941000180573470808e-08
2.9369241800604663197e-08
2.9328538082488266257e-08
2.9287891001474504636e-08
2.9247300260369636442e-08
2.9206765689608107963e-08
2.9166287391166171174e-08
2.9125865123777730779e-08
2.9085498975995429351e-08
2.9045188702232972691e-08
2.900493439559368457e-08
2.8964735789121400464e-08
2.8924593115684115606e-08
2.8884505877609067749e-08
2.8844474197114525047e-08
2.8804498221231206106e-08
2.8764577570150592861e-08
2.8724712136341693837e-08
2.8684901969227574563e-08
2.8645147204154828969e-08
2.8605447455421306904e-08
2.8565802633699519244e-08
2.852621266753156957e-08
2.8486677819722939279e-08
2.8447197784333880872e-08
2.8407772346558480051e-08
2.8368401777325254254e-08
2.8329085571138916601e-08
2.8289823843836966574e-08
2.825061678146686577e-08
2.8211463856825464369e-08
2.8172365183020860305e-08
2.8133320949102747357e-08
2.8094330643108070424e-08
2.8055394259700121584e-08
2.8016512087715630381e-08
2.7977683846821972182e-08
2.7938909191035059945e-08
2.7900188484116140941e-08
2.7861521586445720522e-08
2.7822908052775338224e-08
2.7784348030943603414e-08
2.7745841608918950775e-08
2.7707388342117827471e-08
2.7668988599797262144e-08
2.7630642105291386159e-08
2.7592348638540275504e-08
2.7554108365227095142e-08
2.7515920991423891651e-08
2.7477786667609926079e-08
2.743970509346741043e-08
2.7401676442168465444e-08
2.7363700275687449341e-08
2.7325776973216418873e-08
2.7287906263790358086e-08
2.7250087913676768744e-08
2.7212322121886471938e-08
2.717460846379135925e-08
2.7136947206390565586e-08
2.709933816558421948e-08
2.7061781345258921685e-08
2.7024276709237564153e-08
2.6986823819295293542e-08
2.6949422819677724571e-08
2.6912073812449164247e-08
2.6874776458980597158e-08
2.6837530933829198424e-08
2.6800336915399265734e-08
2.6763194583372950364e-08
2.6726103613425429698e-08
2.6689064188811821963e-08
2.6652075980372761429e-08
2.6615139194969301058e-08
2.6578253366057265147e-08
2.6541418890701052694e-08
2.6504635530680720566e-08
2.6467902889548228509e-08
2.6431221387791933834e-08
2.6394590791059816422e-08
2.6358010699128236285e-08
2.6321481536958397549e-08
2.6285003051676071671e-08
2.624857497514473386e-08
2.6212197532151522908e-08
2.6175870379431605465e-08
2.6139593724115728462e-08
2.6103367217842934455e-08
2.6067191072654164121e-08
2.6031064916293736674e-08
2.5994989099356354555e-08
2.5958963069779132538e-08
2.5922986916843482475e-08
2.5887060921716220795e-08
2.5851184508309874884e-08
2.581535776216165664e-08
2.5779580969179970359e-08
2.574385355063776377e-08
2.5708175590735276747e-08
2.5672547380125247694e-08
2.5636968336167772185e-08
2.5601438562517325925e-08
2.5565958218345207002e-08
2.5530526907712954815e-08
2.5495144886049445967e-08
2.5459811643438033795e-08
2.5424527606791846986e-08
2.5389292539583393644e-08
2.535410611601778908e-08
2.531896874031328066e-08
2.5283879848594473434e-08
2.5248839520814640326e-08
2.5213848068808699478e-08
2.5178904900972583547e-08
2.5144010093031693145e-08
2.5109163961598860746e-08
2.5074365910918723768e-08
2.5039616036858550591e-08
2.5004914524783494612e-08
2.49702609555601336e-08
2.4935655592193729616e-08
2.490109801403941285e-08
2.4866588622341670045e-08
2.4832126860949183154e-08
2.4797712690191670325e-08
2.4763346480041681358e-08
2.4729027983201968441e-08
2.4694756842094092113e-08
2.4660533493809337404e-08
2.4626357360425915678e-08
2.4592228511481251511e-08
2.4558147290248479836e-08
2.452411308969621453e-08
2.4490125976407485497e-08
2.4456186276602768472e-08
2.4422293513844231904e-08
2.4388447610048444646e-08
2.4354648555445516925e-08
2.4320896678407901012e-08
2.4287191383325192763e-08
2.4253532621848850811e-08
2.4219920755699815271e-08
2.418635568163270088e-08
2.4152836880779889937e-08
2.4119364441296270254e-08
2.4085938710414194048e-08
2.4052559200641738787e-08
2.4019225856727299357e-08
2.3985938553693146314e-08
2.3952697635509013163e-08
2.3919503000812783213e-08
2.3886354121259433437e-08
2.3853251187241605193e-08
2.3820191716911152531e-08
2.378723534487220276e-08
2.375343069325382693e-08
2.3728969085214419856e-08
2.2468151795105236647e-08
2.2492249650982139509e-08
2.2472220031482733969e-08
2.2441483603255161724e-08
2.2410170766306635756e-08
2.2379108072345599623e-08
2.2348094263344412257e-08
2.2317123875307949371e-08
2.2286196192274018781e-08
2.2255311618839895243e-08
2.2224469621368254174e-08
2.2193670618288696293e-08
2.2162914048559343763e-08
2.2132200462476955251e-08
2.2101529220663915141e-08
2.2070900339727085223e-08
2.2040314302522335169e-08
2.2009770434553825144e-08
2.1979268768811400641e-08
2.1948809685167345423e-08
2.1918392498634142007e-08
2.1888017605019020446e-08
2.185768494098910228e-08
2.1827394453072223252e-08
2.1797145560034530467e-08
2.1766938825360784485e-08
2.1736774129592376963e-08
2.1706650855734815851e-08
2.1676569566387957123e-08
2.1646530144654626689e-08
2.1616531970636819359e-08
2.158657558743134831e-08
2.1556660985329263821e-08
2.152678758102449652e-08
2.1496955430145736697e-08
2.1467164952184420277e-08
2.1437415409850561773e-08
2.1407707338640223471e-08
2.1378040626510117188e-08
2.1348414634693827754e-08
2.1318829940266458275e-08
2.1289286414073880791e-08
2.1259783537455123861e-08
2.123032182456804723e-08
2.1200900659836055602e-08
2.117152065354464047e-08
2.1142181139831874709e-08
2.111288213375823573e-08
2.1083624053852635559e-08
2.1054406262636645413e-08
2.1025229249355125816e-08
2.0996092405900379775e-08
2.0966996229616901259e-08
2.0937940109091424038e-08
2.0908924545971544812e-08
2.0879948922431057969e-08
2.0851013768945254544e-08