/*--------------------------------*- C++ -*----------------------------------*\
  =========                 |
  \\      /  F ield         | OpenFOAM: The Open Source CFD Toolbox
   \\    /   O peration     | Website:  https://openfoam.org
    \\  /    A nd           | Version:  12
     \\/     M anipulation  |
\*---------------------------------------------------------------------------*/
FoamFile
{
    format      ascii;
    class       volScalarField;
    location    "1e-05";
    object      k;
}
// * * * * * * * * * * * * * * * * * * * * * * * * * * * * * * * * * * * * * //

dimensions      [0 2 -2 0 0 0 0];

internalField   nonuniform List<scalar> 
75962
(
1.3974798773495049369e-05
2.0880963198203300795e-06
2.9456565703809821049e-07
1.0112826865060466684e-07
8.6027830905541139153e-08
8.5087357516907094588e-08
8.4934610090030153204e-08
8.4815868911941843876e-08
8.4698472829956246923e-08
8.4581269722556986762e-08
8.4464228756311775642e-08
8.434735013948667912e-08
8.4230632967260972672e-08
8.4114077838249992539e-08
8.3997683044757641488e-08
8.3881450458567636342e-08
8.3765379363558592351e-08
8.3649467704611302292e-08
8.3533716601019666621e-08
8.3418126313606437971e-08
8.3302695099768431085e-08
8.3187424189154611913e-08
8.3072313545019883875e-08
8.2957362175488533387e-08
8.2842568861806185206e-08
8.2727935056823457214e-08
8.2613459980244241332e-08
8.2499143881795304168e-08
8.2384986549040451678e-08
8.2270985979084531228e-08
8.2157143287860045964e-08
8.2043458738530378484e-08
8.1929931059988786697e-08
8.1816561655027498617e-08
8.1703348119950816084e-08
8.1590290706476112542e-08
8.1477390994728541252e-08
8.13646482279005354e-08
8.1252060263919370604e-08
8.1139628195682515476e-08
8.1027352345214373571e-08
8.091523147877970671e-08
8.080326630505397711e-08
8.0691455668182033588e-08
8.0579800309293141036e-08
8.0468298952560042747e-08
8.035695310948992498e-08
8.0245760325648002855e-08
8.0134720819780336478e-08
8.0023836333620896484e-08
7.991310537717590263e-08
7.9802527021824685405e-08
7.969210282224140058e-08
7.9581830972892510378e-08
7.947171110008572643e-08
7.9361743672027285062e-08
7.9251929787914250676e-08
7.9142266845335844254e-08
7.9032755032886016143e-08
7.8923396136663821362e-08
7.8814188682901917785e-08
7.8705131763006419685e-08
7.8596226451110792433e-08
7.8487470797788229386e-08
7.8378866244227014996e-08
7.8270412738471458533e-08
7.8162109320186613746e-08
7.8053955147024181444e-08
7.7945951362989957155e-08
7.7838095867174410456e-08
7.7730390893174597668e-08
7.7622835097088785831e-08
7.75154275074233887e-08
7.7408169192732756793e-08
7.7301058777203984953e-08
7.7194097243851736877e-08
7.7087283183178195284e-08
7.6980617703413117751e-08
7.6874098626170590708e-08
7.6767728218397157552e-08
7.6661505272677487817e-08
7.6555427988158483094e-08
7.6449498761218615077e-08
7.6343716292872918335e-08
7.6238079522467331887e-08
7.6132589630885149676e-08
7.6027245037194393089e-08
7.592204759164885579e-08
7.5816994571331625434e-08
7.5712086754112907736e-08
7.5607325613340657634e-08
7.5502708294113169828e-08
7.5398235669925614051e-08
7.529390846979165326e-08
7.5189725041894019927e-08
7.5085686524503778887e-08
7.4981791351150570028e-08
7.4878040799862718111e-08
7.477443254666802036e-08
7.4670968857513481592e-08
7.4567649126923619254e-08
7.4464471739591978381e-08
7.4361436479495206866e-08
7.4258543809575601845e-08
7.4155794446974296327e-08
7.4053186520672682469e-08
7.3950722027597639348e-08
7.3848398153386974681e-08
7.3746215741322722367e-08
7.3644175654502788889e-08
7.3542276107657046846e-08
7.3440518375335400791e-08
7.3338900761907923112e-08
7.3237424686079017482e-08
7.3136087688155809652e-08
7.3034892217202564744e-08
7.2933837067257050546e-08
7.2832920920169770916e-08
7.2732145241275206478e-08
7.2631508300019903865e-08
7.253101146175855831e-08
7.2430652967286668185e-08
7.2330434199378545097e-08
7.2230353372822798086e-08
7.2130411994760290916e-08
7.2030607633962095962e-08
7.1930942037470473165e-08
7.1831415107240379498e-08
7.1732026204705772715e-08
7.1632773280621473497e-08
7.1533658992617993056e-08
7.143468219895475343e-08
7.1335841458683974585e-08
7.1237138386333052934e-08
7.1138571005886354399e-08
7.1040141577482130367e-08
7.0941847172014420366e-08
7.0843688429399569509e-08
7.0745667227109663491e-08
7.0647780485109659971e-08
7.0550028942368863358e-08
7.0452413741136150792e-08
7.03549328163919822e-08
7.0257587735489220148e-08
7.016037642246301776e-08
7.00633012148885696e-08
6.9966359249318971123e-08
6.9869550515764726032e-08
6.9772877101726806722e-08
6.9676338421250782815e-08
6.957993261815357708e-08
6.9483659669521743916e-08
6.9387519156087937242e-08
6.9291513046998142176e-08
6.919564086924173828e-08
6.9099900117474904735e-08
6.9004290877600056986e-08
6.8908815396885720465e-08
6.8813472605999981644e-08
6.8718260081042812536e-08
6.862318049903145563e-08
6.8528233573142727589e-08
6.8433416784887001838e-08
6.8338730202600077528e-08
6.8244176118088332725e-08
6.8149753375859305166e-08
6.8055460100187133752e-08
6.796129897329227849e-08
6.7867266941284930676e-08
6.7773364538461059112e-08
6.7679593918833535183e-08
6.7585951962807463312e-08
6.7492438672995834263e-08
6.7399055751443950249e-08
6.7305802195641334337e-08
6.7212678282449797705e-08
6.711968357521726507e-08
6.7026816397031714942e-08
6.693407880385012307e-08
6.684146854912803161e-08
6.6748987562596613599e-08
6.6656633434650064665e-08
6.6564408830870153114e-08
6.6472311234672004474e-08
6.6380324802957945387e-08
6.6288793543186065027e-08
6.6192359663197449345e-08
6.6147894564293948755e-08
6.226018604967966296e-08
6.2479903578608795043e-08
6.245599656257949635e-08
6.2372102835746455266e-08
6.2284555070487850438e-08
6.2198345356088475041e-08
6.2112291998289265778e-08
6.2026357380115815984e-08
6.1940540411337116762e-08
6.1854843721320532449e-08
6.1769266422252463082e-08
6.1683806076088145139e-08
6.1598465349489353638e-08
6.1513241424509808728e-08
6.1428136824233271636e-08
6.1343148689794386091e-08
6.1258279565128879249e-08
6.1173526557936648599e-08
6.1088892354317988562e-08
6.1004373479097688355e-08
6.0919972310944362166e-08
6.0835688680278533181e-08
6.075152232551792491e-08
6.0667470863426165648e-08
6.0583537239768037832e-08
6.0499717945405274109e-08
6.041601540760235704e-08
6.0332429313080074736e-08
6.0248960142839797642e-08
6.0165605015079470185e-08
6.0082364294451342195e-08
5.999924102943605674e-08
5.9916231564093763508e-08
5.9833336153721476586e-08
5.975055727785630517e-08
5.9667890992456235566e-08
5.9585340426359072896e-08
5.9502905131347592243e-08
5.9420581719827857276e-08
5.9338373411960007549e-08
5.9256280357795479681e-08
5.9174299568629493463e-08
5.9092430778497912153e-08
5.9010676822297051467e-08
5.8929036973994169148e-08
5.8847508415183172185e-08
5.8766094319930917074e-08
5.8684790967829783243e-08
5.8603600894658226459e-08
5.8522523894998858848e-08
5.8441559984176676947e-08
5.8360705811484957252e-08
5.8279964829898547576e-08
5.8199336586334402529e-08
5.8118818058967251506e-08
5.8038413087000530066e-08
5.7958118248962795635e-08
5.7877933035189704874e-08
5.7797860320777968934e-08
5.7717899594313598663e-08
5.7638047199592198153e-08
5.7558306596684547705e-08
5.747867750683518149e-08
5.7399156285107756429e-08
5.7319746279160266367e-08
5.7240447778607926995e-08
5.7161257535220687892e-08
5.708217584553171444e-08
5.7003205616532101525e-08
5.692434256517267939e-08
5.6845589847839107179e-08
5.6766947755018733495e-08
5.6688413020623783608e-08
5.6609985795206376638e-08
5.6531669469001643226e-08
5.6453460726620904458e-08
5.6375359976671596774e-08
5.6297367427731566646e-08
5.6219482429393456367e-08
5.6141704287906286024e-08
5.6064036318079794131e-08
5.598647473400616919e-08
5.5909018875727412907e-08
5.5831671763969883136e-08
5.5754432882336356927e-08
5.5677298961104414703e-08
5.5600273525921697408e-08
5.5523352971448700101e-08
5.5446540666066124004e-08
5.5369832805522917994e-08
5.5293233431341875882e-08
5.521673880406346206e-08
5.5140348883884817479e-08
5.5064066861280872378e-08
5.4987888179803475327e-08
5.4911816107613434786e-08
5.4835851068591547811e-08
5.4759989657890419122e-08
5.4684232008759580981e-08
5.460858141981000132e-08
5.4533033253603573485e-08
5.445759095407275094e-08
5.4382254338213934612e-08
5.4307019794316383314e-08
5.4231891730422173358e-08
5.4156866376869194746e-08
5.4081943627601405063e-08
5.4007126708958545522e-08
5.3932411512478588583e-08
5.3857801754188465849e-08
5.3783292896792797403e-08
5.3708888445354172902e-08
5.3634588414719041737e-08
5.3560388603042369596e-08
5.3486292629956912272e-08
5.3412300909002511405e-08
5.3338410583982897567e-08
5.326462184383470549e-08
5.3190934042877266159e-08
5.3117350967732889831e-08
5.3043868628820411355e-08
5.2970486309823079158e-08
5.289720661792528525e-08
5.2824029078054022935e-08
5.2750953947789258615e-08
5.2677977707570494064e-08
5.2605104427096643951e-08
5.2532330023944591882e-08
5.2459658470000991359e-08
5.2387085155198970141e-08
5.2314613224481526644e-08
5.2242241807636901858e-08
5.2169970978302798406e-08
5.2097801313688130748e-08
5.2025729202324442205e-08
5.1953758967753530957e-08
5.188188597967496568e-08
5.1810113279357128887e-08
5.1738440585052404247e-08
5.1666868415492331632e-08
5.1595392612416909941e-08
5.1524016522770706287e-08
5.1452739764612277689e-08
5.1381563346319544628e-08
5.1310484008931144815e-08
5.1239501061911951564e-08
5.1168617890485558912e-08
5.1097834531335005041e-08
5.1027146331090254565e-08
5.0956557060931313758e-08
5.0886067502090520185e-08
5.0815673998114609072e-08
5.0745376212297084953e-08
5.0675178626503756375e-08
5.0605076997765557101e-08
5.0535070846535578137e-08
5.0465164057058145984e-08
5.039535190848432566e-08
5.0325638603492737778e-08
5.0256019478951497374e-08
5.0186499371274856783e-08
5.0117074246273851826e-08
5.0047743609891932211e-08
4.9978511450315510843e-08
4.9909372955139715889e-08
4.9840332397762292834e-08
4.9771385181941383123e-08
4.9702535649555565934e-08
4.9633779162558485547e-08
4.956512024089851873e-08
4.9496553683179991757e-08
4.942808326050589046e-08
4.9359709425004779828e-08
4.9291427361978247799e-08
4.9223240722948986978e-08
4.915514872043488014e-08
4.9087151188472189274e-08
4.9019249567320063245e-08
4.8951440486721715498e-08
4.8883723076155214143e-08
4.8816100931125502062e-08
4.8748574192740367038e-08
4.8681138294905342034e-08
4.8613798045734984363e-08
4.8546548657303469225e-08
4.8479394739256534665e-08
4.8412331278144080055e-08
4.8345363431369283357e-08
4.8278487079667032349e-08
4.8211701356782998597e-08
4.8145011191905616423e-08
4.8078412171562428353e-08
4.8011903518208820193e-08
4.7945489658337184757e-08
4.7879165365945018423e-08
4.7812935316866676189e-08
4.7746794516470098726e-08
4.7680747714471653106e-08
4.7614789893153622012e-08
4.7548925830509727048e-08
4.7483150481665904769e-08
4.7417468652884674949e-08
4.7351875271677396428e-08
4.7286375172468621297e-08
4.7220963255173963925e-08
4.7155644384417288394e-08
4.7090413411087948704e-08
4.7025275380232015545e-08
4.6960224642621685859e-08
4.6895265144619823763e-08
4.6830397536239625478e-08
4.6765616839867419125e-08
4.6700928441012037724e-08
4.6636326702659985962e-08
4.6571815435657121584e-08
4.6507395834205782382e-08
4.6443063885868373511e-08
4.6378818913538496283e-08
4.6314665810678608045e-08
4.6250598836266853366e-08
4.6186623503714814543e-08
4.6122735568279195717e-08
4.6058933873087605457e-08
4.5995223802156365025e-08
4.5931600801224712785e-08
4.5868063794989225724e-08
4.5804617726745711607e-08
4.5741256892230428099e-08
4.5677986431685652416e-08
4.561480088883018932e-08
4.5551705488156514299e-08
4.5488694727223008463e-08
4.5425774012339887009e-08
4.5362937391242960317e-08
4.5300188905260588432e-08
4.5237529445846382913e-08
4.5174953639813828417e-08
4.511246725341774629e-08
4.5050064327200393875e-08
4.4987748926860241873e-08
4.4925521993777975135e-08
4.4863378076161414961e-08
4.4801322994576678672e-08
4.4739350882380717597e-08
4.4677465403657577365e-08
4.4615666185489654029e-08
4.4553954413430231958e-08
4.4492324852407956633e-08
4.4430783257410298022e-08
4.4369326066449069476e-08
4.430791949570195093e-08
4.4247114996198654458e-08
4.4181035984630417026e-08
4.4152489621737784841e-08
1.3027608516375747605e-05
1.9981596776298163638e-06
2.9501113046721206006e-07
1.0574243670992624022e-07
9.0503098976124048657e-08
8.9553056954920618261e-08
8.9395984994591920053e-08
8.9271192062782254878e-08
8.9147622455691023986e-08
8.9024258636126693052e-08
8.8901068369740209608e-08
8.877804862487996647e-08
8.8655198723781155653e-08
8.8532519371501257253e-08
8.8410008778876756927e-08
8.8287669006012616943e-08
8.8165498598824687984e-08
8.8043496136482209279e-08
8.7921663791870396264e-08
8.7800000027894732591e-08
8.7678504099064342496e-08
8.755717747684656925e-08
8.7436017700936623474e-08
8.7315025048676054635e-08
8.7194201223666958562e-08
8.7073544695506604186e-08
8.6953054080152274531e-08
8.6832730794711411763e-08
8.6712574811753383279e-08
8.6592585009989936314e-08
8.6472760767611841711e-08
8.6353102954020664851e-08
8.6233609650110665449e-08
8.6114283002494479198e-08
8.5995121606139145067e-08
8.5876123915804667607e-08
8.5757292197368489052e-08
8.5638624953731400638e-08
8.5520121418465857376e-08
8.5401782424018727116e-08
8.5283606678436211983e-08
8.5165595725856767549e-08
8.5047747004853886281e-08
8.4930060865124021958e-08
8.481253830505105258e-08
8.4695179182253014581e-08
8.4577982424776678927e-08
8.4460947188029612043e-08
8.4344075180398891522e-08
8.4227363830562163617e-08
8.4110813369624638809e-08
8.3994425528605466534e-08
8.3878199436080102037e-08
8.3762133585186117166e-08
8.3646227785757349309e-08
8.3530481850839584788e-08
8.3414897525724769367e-08
8.3299473350993862297e-08
8.3184207707659401944e-08
8.3069102293328767275e-08
8.2954156271743323063e-08
8.2839369892665226012e-08
8.2724743036838642834e-08
8.2610273594710971855e-08
8.2495961874937723566e-08
8.2381809787348105467e-08
8.2267815801362025728e-08
8.2153978919515219435e-08
8.204030032708111259e-08
8.1926777822519973958e-08
8.1813413744954911109e-08
8.1700206684083293114e-08
8.1587155622950481359e-08
8.1474261678479253147e-08
8.1361523401252637172e-08
8.1248941932518172047e-08
8.1136515006183811799e-08
8.1024244993991691039e-08
8.0912130509411277617e-08
8.0800170470831578714e-08
8.0688366173445538837e-08
8.05767153216910226e-08
8.0465220306339090646e-08
8.0353879860503157255e-08
8.0242692182255530377e-08
8.0131659113235321258e-08
8.0020779799838380449e-08
7.991005459443325951e-08
7.979948268420052481e-08
7.9689062924686882729e-08
7.9578797394176184299e-08
7.9468683344558970612e-08
7.9358720906592048609e-08
7.9248912101202909753e-08
7.913925559386904338e-08
7.902974937432016775e-08
7.8920396028113117933e-08
7.8811194237073847067e-08
7.8702142778387859823e-08
7.8593243008114114827e-08
7.8484493262248446262e-08
7.837589491651472818e-08
7.8267445492533282202e-08
7.815914749573817786e-08
7.8050999619351084865e-08
7.7943000582783084623e-08
7.7835151815550903439e-08
7.7727451483329572799e-08
7.7619901709927364759e-08
7.7512499536496053924e-08
7.7405245831835799047e-08
7.7298141635863018159e-08
7.7191184266532666484e-08
7.7084376264587964296e-08
7.6977716358581874016e-08
7.6871203184141610122e-08
7.6764838254700511791e-08
7.6658619775306401818e-08
7.65525491551347088e-08
7.6446624569384635032e-08
7.6340847445468069649e-08
7.6235215930867430791e-08
7.6129731593297092036e-08
7.6024391781207960802e-08
7.5919199093219403991e-08
7.5814152419642861534e-08
7.5709249520404042632e-08
7.5604493023832259512e-08
7.5499882519175176551e-08
7.5395415388482374751e-08
7.5291092579702015534e-08
7.5186915208175386282e-08
7.5082881195452233696e-08
7.497899219979057119e-08
7.4875245474128190216e-08
7.4771643683287467576e-08
7.4668185644809204526e-08
7.4564869678344887502e-08
7.4461698308289034748e-08
7.4358668464854087932e-08
7.4255780810122092962e-08
7.4153037335080692706e-08
7.4050434810122947971e-08
7.3947973868900415841e-08
7.3845656532835109438e-08
7.3743479544322249294e-08
7.3641443645375693865e-08
7.3539550215715989223e-08
7.343779624900801949e-08
7.3336184467581425246e-08
7.3234713730531014774e-08
7.3133382356991902047e-08
7.3032192227172922977e-08
7.2931141098265140896e-08
7.2830231502718569135e-08
7.2729460400019584475e-08
7.2628827742086335196e-08
7.2528335867640924942e-08
7.2427983653635363529e-08
7.2327768549197981277e-08
7.2227693488031361468e-08
7.2127757398756126654e-08
7.2027958381957087959e-08
7.1928299077605721067e-08
7.1828777083211523354e-08
7.1729392128335403608e-08
7.1630144473953546539e-08
7.1531035551293049729e-08
7.1432062162533976442e-08
7.1333226999376911777e-08
7.123452978852899141e-08
7.1135967718551385219e-08
7.1037541614944364443e-08
7.0939253001369111692e-08
7.0841099407112549671e-08
7.0743082773665037771e-08
7.0645200743286015112e-08
7.054745542588704005e-08
7.0449843680383779379e-08
7.0352368399155996413e-08
7.0255028574696315397e-08
7.0157822113542518108e-08
7.0060751977033702374e-08
6.9963814874587978507e-08
6.9867011984199053726e-08
6.9770328275063792573e-08
6.967412133743372744e-08
6.9572759395004930663e-08
6.9525999745951006242e-08
6.5621570079249493256e-08
6.5852905030319822567e-08
6.5827589038449118669e-08
6.57391227805303356e-08
6.5646859554132749389e-08
6.5555995685366561333e-08
6.5465293327312802466e-08
6.5374719531387404414e-08
6.5284269922157993928e-08
6.5193944149298083534e-08
6.5103744957187791658e-08
6.5013671553186947618e-08
6.4923720635623869629e-08
6.4833895556498515217e-08
6.4744195739178488342e-08
6.4654617870860016414e-08
6.4565165339413340557e-08
6.4475837439778214585e-08
6.4386631577411895586e-08
6.4297550614526816993e-08
6.4208591535827723417e-08
6.4119757051580097522e-08
6.4031044088219461062e-08
6.3942455516648620222e-08
6.3853987515985912078e-08
6.3765643325555556911e-08
6.3677422411237464369e-08
6.3589321336295294978e-08
6.3501343539641627612e-08
6.3413488524757434999e-08
6.3325752839028387725e-08
6.3238139806652227948e-08
6.3150649553492678266e-08
6.3063278848319540247e-08
6.2976028169054888702e-08
6.2888900136650696523e-08
6.2801890621590979353e-08
6.2715002901350334652e-08
6.2628236505166432121e-08
6.2541587868907813825e-08
6.2455060513079267522e-08
6.2368653866307135051e-08
6.2282365063013257857e-08
6.2196197251177201149e-08
6.2110147156866725428e-08
6.2024217760866594765e-08
6.1938405742976638996e-08
6.1852714106336264273e-08
6.1767139492366833163e-08
6.1681685073810508806e-08
6.1596346761184188279e-08
6.1511127939909975733e-08
6.1426028078859686474e-08
6.134104418260963011e-08
6.1256179546647658221e-08
6.1171430624958653546e-08
6.1086801257858086789e-08
6.1002287702536380567e-08
6.0917889988035528549e-08
6.0833611586381049503e-08
6.074944854024370918e-08
6.066540083541388138e-08
6.0581471962873999869e-08
6.0497658065481609465e-08
6.0413958698747343425e-08
6.0330376210298043655e-08
6.0246910167073716312e-08
6.0163560645144497798e-08
6.008032396453929988e-08
5.9997203815839079316e-08
5.9914199955510045011e-08
5.9831308469917024953e-08
5.9748533054255584923e-08
5.9665873347198224994e-08
5.9583325967990191079e-08
5.9500895036519191083e-08
5.9418577297403185723e-08
5.9336373347213501625e-08
5.9254282844794463801e-08
5.9172304552619633717e-08
5.9090441360718251641e-08
5.9008692804935525859e-08
5.8927054960902669613e-08
5.8845530888760806518e-08
5.8764120389990745315e-08
5.8682823525229086539e-08
5.8601637097136055256e-08
5.852056496333182661e-08
5.8439602813492915526e-08
5.8358753537135379418e-08
5.8278016884611549998e-08
5.8197393101437725442e-08
5.811687824522752383e-08
5.803647614322993342e-08
5.7956186711008865295e-08
5.787600575877026111e-08
5.7795937114454340949e-08
5.771598057785543787e-08
5.7636132447261563102e-08
5.7556397250549268862e-08
5.7476771214657692362e-08
5.7397253608529597782e-08
5.7317847542719921568e-08
5.7238553272501649864e-08
5.7159367185353073612e-08
5.708028924203222839e-08
5.7001323492435636024e-08
5.6922465883324323121e-08
5.6843715589611171999e-08
5.67650759164349622e-08
5.6686546478046374425e-08
5.6608123505691595927e-08
5.6529811174641524313e-08
5.645160474253719348e-08
5.6373507911844491227e-08
5.6295520559258217529e-08
5.6217638899078520714e-08
5.6139867040510574001e-08
5.6062200685089002852e-08
5.5984644394350926026e-08
5.5907194140479449389e-08
5.5829849574137843467e-08
5.5752614773411939508e-08
5.5675486111840771199e-08
5.5598463528806048476e-08
5.5521546289211875808e-08
5.5444738286741842069e-08
5.5368035832961709482e-08
5.5291438871183678937e-08
5.5214946623208187868e-08
5.5138563172831498955e-08
5.5062284308315537463e-08
5.4986109063321925103e-08
5.4910040878079629212e-08
5.4834079526955040535e-08
5.4758220932710809992e-08
5.468246944022099584e-08
5.4606820672929946644e-08
5.4531278772437491578e-08
5.4455839280254680743e-08
5.43805065143261186e-08
5.4305275398832074575e-08
5.4230149623149613527e-08
5.41551297544431825e-08
5.4080212600789510941e-08
5.4005398546609221241e-08
5.3930686309366747657e-08
5.385607900542695797e-08
5.3781577106699587867e-08
5.3707176731524634838e-08
5.3632877705573956841e-08
5.3558684071468075917e-08
5.3484590810222887705e-08
5.3410602830558427557e-08
5.3336716093582302924e-08
5.3262929533754277092e-08
5.3189246724454620307e-08
5.3115667629765396747e-08
5.3042187678852592991e-08
5.2968812160213597603e-08
5.2895536897296249913e-08
5.2822361391468598961e-08
5.2749289790729801222e-08
5.2676317062646324966e-08
5.2603447811639660485e-08
5.2530676677902224162e-08
5.2458007437217553695e-08
5.2385440977523034972e-08
5.231297337798223362e-08
5.2240604168521622561e-08
5.216833825911612308e-08
5.2096171150580981446e-08
5.2024102045312930069e-08
5.195213584961069445e-08
5.1880268023889874157e-08
5.1808497908054775103e-08
5.1736829876619586823e-08
5.1665258574171556147e-08
5.1593789066986827259e-08
5.152241764189023658e-08
5.1451144330357627694e-08
5.1379968174263116275e-08
5.130889337835430679e-08
5.1237914434001792907e-08
5.1167036640406382534e-08
5.1096255692901672185e-08
5.1025570738727342515e-08
5.0954986721054409513e-08
5.0884499586403461546e-08
5.0814109489621127714e-08
5.074381487529887468e-08
5.0673619075795878364e-08
5.0603522834235802291e-08
5.0533522048181875292e-08
5.0463616041338825372e-08
5.0393810079203615802e-08
5.032409954365976878e-08
5.0254483441907762181e-08
5.0184966862237603708e-08
5.0115545704551676469e-08
5.0046219977803476061e-08
4.9976988574556908159e-08
4.9907855982363053217e-08
4.9838816559804188705e-08
4.9769875313581706712e-08
4.9701026897242517124e-08
4.9632276401644017594e-08
4.9563618454840040184e-08
4.949505819919520242e-08
4.942659009133477339e-08
4.9358219652574330692e-08
4.9289942968492020462e-08
4.9221760255111737436e-08
4.9153669965227966064e-08
4.908567523158956037e-08
4.9017775192375701331e-08
4.8949971282805539575e-08
4.8882259603981866088e-08
4.8814639333680766159e-08
4.8747116092939198171e-08
4.8679685141615152564e-08
4.8612345379142382498e-08
4.854510205891034906e-08
4.8477948797475804708e-08
4.841088970701531424e-08
4.8343925757022056628e-08
4.8277051070230594474e-08
4.8210269972218543175e-08
4.8143583863956030525e-08
4.8076988482732438231e-08
4.801048301108059009e-08
4.7944072778143650612e-08
4.7877751585675826364e-08
4.7811525364289364742e-08
4.7745389600912989181e-08
4.7679343110297175888e-08
4.7613391386408939412e-08
4.7547527878817171809e-08
4.748175663122287829e-08
4.7416078907855151494e-08
4.7350490831576602219e-08
4.7284992981736775851e-08
4.7219583540059417276e-08
4.7154266250648151845e-08
4.7089041902960973189e-08
4.7023904410260951206e-08
4.6958857934671338095e-08
4.6893901973473791556e-08
4.6829038218211847858e-08
4.6764262647847384458e-08
4.6699576280039387571e-08
4.6634941503386940561e-08
4.6570943819205452204e-08
4.6501394995007949261e-08
4.6471347119941256108e-08
1.5746065258310790652e-05
2.259696194443808527e-06
3.1583306057777162805e-07
1.1084729844504892027e-07
9.5227931122389006802e-08
9.4257790865845087713e-08
9.4091934481322798155e-08
9.3960511514736909058e-08
9.3830454474033498332e-08
9.370061092186317417e-08
9.3570946757830187609e-08
9.3441462746604768203e-08
9.3312158018860339459e-08
9.3183032961008832052e-08
9.3054086452894793903e-08
9.2925317849754270639e-08
9.2796728656589076662e-08
9.2668316316184125786e-08
9.2540081137033806955e-08
9.2412024780269176695e-08
9.2284146260692357126e-08
9.2156444140230623029e-08
9.2028918060726548221e-08
9.1901568628483576724e-08
9.1774396798076698399e-08
9.164739985316793227e-08
9.152057818128289852e-08
9.139393275474343603e-08
9.1267463332241306308e-08
9.1141169459324076388e-08
9.1015049762199755847e-08
9.0889104009138420935e-08
9.0763332059509136948e-08
9.0637735639072527201e-08
9.0512313164303633471e-08
9.0387063005677507216e-08
9.0261987535663381422e-08
9.0137085183906813163e-08
9.0012355148868902139e-08
8.9887798289620786667e-08
8.9763413370762094147e-08
8.9639201168170027945e-08
8.9515160419299297658e-08
8.9391291927249475029e-08
8.9267594297148129805e-08
8.9144069186015535273e-08
8.90207137936933417e-08
8.8897529092725932641e-08
8.8774516218499365478e-08
8.8651673090151526768e-08
8.8528999280238634919e-08
8.8406495320130093725e-08
8.8284162271967221674e-08
8.8161998017389994975e-08
8.8040002239831999222e-08
8.7918174730942386154e-08
8.7796517326963303952e-08
8.7675028397334054832e-08
8.7553706856122401512e-08
8.7432554588756914564e-08
8.7311568743230319379e-08
8.7190750248095774297e-08
8.7070100473800349866e-08
8.694961643414433273e-08
8.6829299039783975026e-08
8.6709149678402157522e-08
8.6589165457020436666e-08
8.646934656201660698e-08
8.6349694985106772904e-08
8.6230209249816938234e-08
8.6110887465496905153e-08
8.5991732074745946578e-08
8.5872742460385774234e-08
8.5753916129045444187e-08
8.5635254201947868552e-08
8.5516757446841990184e-08
8.5398423373505935124e-08
8.5280254456707778846e-08
8.5162249239101659913e-08
8.5044406597313811328e-08
8.4926727766053162111e-08
8.4809211175620674313e-08
8.4691857966640404124e-08
8.4574666529424041121e-08
8.4457638143823558764e-08
8.4340770357565151747e-08
8.422406570324360986e-08
8.4107522755864409826e-08
8.3991140305465669562e-08
8.3874919788589115468e-08
8.3758858834592220518e-08
8.3642959289418201235e-08
8.3527220252618650997e-08
8.3411641965567228354e-08
8.3296224431500380026e-08
8.3180965194039181995e-08
8.3065865345559595279e-08
8.2950925732059492871e-08
8.2836144504932838122e-08
8.2721522946311803951e-08
8.2607059311628816582e-08
8.2492754913885330898e-08
8.237860799128055694e-08
8.2264619878043601099e-08
8.2150788782045777855e-08
8.2037116182369296379e-08
8.192359944643558455e-08
8.1810241208849409943e-08
8.1697040240179626424e-08
8.1583994329260807107e-08
8.1471106253430725348e-08
8.1358374806331055154e-08
8.1245797752740157483e-08
8.1133377896688791707e-08
8.1021113916419260146e-08
8.090900438365816175e-08
8.0797050882931713858e-08
8.0685251532618467833e-08
8.0573607808185946213e-08
8.0462117796090450562e-08
8.0350783001362091479e-08
8.0239601362584289414e-08
8.0128575231184390756e-08
8.0017701452869377583e-08
7.9906980772857381049e-08
7.9796415123748236556e-08
7.9686001203070808801e-08
7.9575739731944691606e-08
7.9465632671081261582e-08
7.9355676701067705397e-08
7.9245872533895222206e-08
7.9136222158418837678e-08
7.9026722230314367151e-08
7.891737358080532467e-08
7.8808177393948611638e-08
7.869913146014323132e-08
7.8590237545598727226e-08
7.8481492744003470477e-08
7.837289986257147614e-08
7.8264457672953563557e-08
7.8156164385715961936e-08
7.8048022674742672723e-08
7.7940029308893428563e-08
7.7832184970301146646e-08
7.7724491773565143592e-08
7.7616946316457255135e-08
7.7509549254095341403e-08
7.7402302729381914667e-08
7.7295203313758804732e-08
7.7188251785801147248e-08
7.7081449485105180236e-08
7.6974794056200219061e-08
7.6868287305714273948e-08
7.676192686764471877e-08
7.6655715393030348466e-08
7.6549649695507651312e-08
7.6443729723055423874e-08
7.6337957935908085619e-08
7.6232333034560606122e-08
7.6126853029498028406e-08
7.6021520789853958291e-08
7.5916332993917145304e-08
7.5811290254144741066e-08
7.5706394872006062268e-08
7.5601643346258565054e-08
7.5497036270367625348e-08
7.5392575839329922801e-08
7.5288259349355832801e-08
7.5184086516132274741e-08
7.508005747250952396e-08
7.49761744261133493e-08
7.4872433944669488208e-08
7.4768835918157294386e-08
7.4665382750359842733e-08
7.4562074018208581235e-08
7.4458906749634119275e-08
7.4355881667317569149e-08
7.4253001092015148052e-08
7.4150262249492796637e-08
7.4047664992918372584e-08
7.3945208749311118297e-08
7.3842895811072611304e-08
7.3740725764489368211e-08
7.3638695576076087851e-08
7.3536806625611602752e-08
7.3435043212241104428e-08
7.333378132619887284e-08
7.3227089578658607808e-08
7.317790384073557565e-08
6.9068354833590740004e-08
6.9311816271284588693e-08
6.9285157432584664542e-08
6.9192036698161917235e-08
6.9094928767767155244e-08
6.899929009117997444e-08
6.8903822167883871332e-08
6.8808489109067155365e-08
6.8713286645765563997e-08
6.861821742460184619e-08
6.8523278369452690106e-08
6.842847221375076331e-08
6.8333795712089394574e-08
6.8239252402718910426e-08
6.8144838570623518223e-08
6.8050554481071556849e-08
6.7956403268236775033e-08
6.786238100103144275e-08
6.7768488044718811752e-08
6.7674726904849048024e-08
6.7581093579222538077e-08
6.748759065204339213e-08
6.7394217920137933178e-08
6.730097524124484691e-08
6.7207859237061579329e-08
6.711487351609931054e-08
6.7022017541770265286e-08
6.6929287715867432498e-08
6.6836687640283131248e-08
6.6744216793362393326e-08
6.6651871558746622477e-08
6.655965541702591259e-08
6.6467568499203888066e-08
6.6375607419591113217e-08
6.6283772678089109041e-08
6.6192067019456723569e-08
6.6100486116891121481e-08
6.6009033402935405647e-08
6.5917708383518209315e-08
6.5826507324335264387e-08
6.573543391252951353e-08
6.5644487547831643088e-08
6.5553665228698454029e-08
6.5462970266131497529e-08
6.5372399074257898953e-08
6.5281955549570246657e-08
6.5191635808557830698e-08
6.5101440099126998296e-08
6.5011371155324820307e-08
6.4921425256800678829e-08
6.4831605559151956354e-08
6.4741908521614332563e-08
6.4652337349208146288e-08
6.4562888480588280939e-08
6.4473565146597086503e-08
6.4384363745920065958e-08
6.4295287686540840097e-08
6.4206332622671428584e-08