/*--------------------------------*- C++ -*----------------------------------*\
  =========                 |
  \\      /  F ield         | OpenFOAM: The Open Source CFD Toolbox
   \\    /   O peration     | Website:  https://openfoam.org
    \\  /    A nd           | Version:  12
     \\/     M anipulation  |
\*---------------------------------------------------------------------------*/
FoamFile
{
    format      ascii;
    class       volScalarField;
    location    "1e-05";
    object      k_0;
}
// * * * * * * * * * * * * * * * * * * * * * * * * * * * * * * * * * * * * * //

dimensions      [0 2 -2 0 0 0 0];

internalField   nonuniform List<scalar> 
75962
(
1.3894194373287071023e-05
2.0567446527848326908e-06
2.8780355326010814199e-07
9.8809317823656247458e-08
8.4195655528361220093e-08
8.3291753834509187599e-08
8.3143268690124406535e-08
8.3027084235067345963e-08
8.2912168997005525941e-08
8.2797441027076806235e-08
8.2682871750599842862e-08
8.2568461398228470389e-08
8.245420907338565951e-08
8.2340115368942751355e-08
8.2226178599849709809e-08
8.2112400621756484277e-08
8.1998780722292140141e-08
8.1885316873604638656e-08
8.1772010189020453755e-08
8.1658860924318481863e-08
8.1545867359433337443e-08
8.1433030715895890331e-08
8.1320350956102695169e-08
8.1207827099209332256e-08
8.1095457945756492781e-08
8.0983244936046133861e-08
8.0871187298502563368e-08
8.0759285283393047573e-08
8.0647538679200290832e-08
8.0535945508925690566e-08
8.042450688251476223e-08
8.0313223058720189343e-08
8.020209278418947714e-08
8.0091117447117299579e-08
7.9980294669948665803e-08
7.9869624710493114615e-08
7.9759109132570269457e-08
7.9648747183643978615e-08
7.9538536749879677109e-08
7.9428478918779061624e-08
7.9318574007345430282e-08
7.9208820797949585229e-08
7.909921999405604199e-08
7.8989770454489511217e-08
7.8880472914486846634e-08
7.8771326115403635729e-08
7.866233155283851546e-08
7.8553486798729190876e-08
7.8444792078695738555e-08
7.8336249115201600187e-08
7.8227856431980620278e-08
7.811961311766702425e-08
7.8011520711034438919e-08
7.7903577424869643305e-08
7.7795782895512038165e-08
7.768813759084144774e-08
7.7580642595320136569e-08
7.7473295335078484602e-08
7.7366096006298533906e-08
7.7259046375340043993e-08
7.7152144981855956873e-08
7.7045390933489386379e-08
7.6938785293289458559e-08
7.6832326135521566519e-08
7.6726014891351781766e-08
7.6619851507467916774e-08
7.6513835034647290231e-08
7.640796464533055998e-08
7.630224147128644979e-08
7.6196663438144692016e-08
7.6091232759043890026e-08
7.5985948101129486614e-08
7.5880808509622264333e-08
7.5775815043088943522e-08
7.5670966342458397282e-08
7.5566263382308033825e-08
7.5461704770598933395e-08
7.5357291604501753182e-08
7.5253021733114125308e-08
7.5148897402930294443e-08
7.5044917414519605312e-08
7.494107999473012649e-08
7.4837387517277261718e-08
7.4733838693175190099e-08
7.4630432479590484184e-08
7.4527170045966847683e-08
7.4424049831596920897e-08
7.4321073667024424622e-08
7.4218238858717448818e-08
7.411554618571943248e-08
7.4012997101293776466e-08
7.3910588782157191909e-08
7.3808322100889973548e-08
7.3706197776319577876e-08
7.3604214177141585712e-08
7.3502372431678064354e-08
7.3400670992570072792e-08
7.329911112489382264e-08
7.3197690533411856825e-08
7.3096411464957021443e-08
7.2995273315668318442e-08
7.2894274490305516611e-08
7.2793414780956543992e-08
7.2692694649351567104e-08
7.2592114802820245159e-08
7.2491673394750814407e-08
7.239137240103922582e-08
7.2291209037432423181e-08
7.2191184146888397349e-08
7.2091298580552877289e-08
7.1991550575068583827e-08
7.1891941393543515173e-08
7.1792469360809717148e-08
7.1693135881024702527e-08
7.1593938524754631492e-08
7.1494879719161892664e-08
7.139595826633718135e-08
7.1297172869167421993e-08
7.1198524978562177066e-08
7.1100012884340339959e-08
7.1001637939201563095e-08
7.0903398404829865541e-08
7.0805295651156660067e-08
7.0707327914329801735e-08
7.0609496686160512323e-08
7.0511799563907143939e-08
7.0414238282238234534e-08
7.0316812741724702479e-08
7.0219522309005774452e-08
7.0122364964915893399e-08
7.0025343342308678919e-08
6.9928456306005027602e-08
6.9831702437628946332e-08
6.973508333539796066e-08
6.9638597047651426302e-08
6.9542245810509048984e-08
6.944602672515953099e-08
6.9349940435694414881e-08
6.925398879443058865e-08
6.9158168754135326987e-08
6.9062481055813592699e-08
6.8966926826132377178e-08
6.8871504024953124374e-08
6.8776214204780288694e-08
6.8681055315296333872e-08
6.8586029669494433378e-08
6.8491134432058110068e-08
6.83963696045090851e-08
6.8301737252839570301e-08
6.8207236791756006281e-08
6.8112866387963773934e-08
6.8018626023484837181e-08
6.7924515289309048354e-08
6.7830536135327321978e-08
6.7736688086888215681e-08
6.7642968668476120943e-08
6.7549377976185866837e-08
6.7455918232903129557e-08
6.7362588373605474218e-08
6.7269386009539313838e-08
6.7176313795120087258e-08
6.7083371438383862307e-08
6.6990556450406670962e-08
6.6897868910086972046e-08
6.6805311084200459766e-08
6.6712881823367801282e-08
6.6620579281366166552e-08
6.6528406111268394258e-08
6.6436359289553718531e-08
6.6344439356939173777e-08
6.6252648439048567766e-08
6.61609834473264611e-08
6.6069444395769596776e-08
6.5978032968085410746e-08
6.5886748171553446115e-08
6.5795590283061944138e-08
6.5704558868615839537e-08
6.5613652276084991987e-08
6.5522872540141643651e-08
6.5432217439901723363e-08
6.5341688885971048722e-08
6.5251284497874800423e-08
6.5161006914262487182e-08
6.5070853610783967339e-08
6.4980809603489904968e-08
6.4891204553212842334e-08
6.4796851557112293425e-08
6.4753343189378379978e-08
6.0947415253313083937e-08
6.1163374100117636626e-08
6.1139478318096634926e-08
6.1057145470425911277e-08
6.0971501274235467785e-08
6.0887113659838104244e-08
6.0802876936438418418e-08
6.0718756358767744119e-08
6.0634750934033057553e-08
6.0550863265527878418e-08
6.046709246571259544e-08
6.0383436132054063182e-08
6.0299896903552409059e-08
6.0216471993827425663e-08
6.0133163900579255558e-08
6.0049969797296448197e-08
5.9966892202314814269e-08
5.9883928256308913027e-08
5.9801080617047785273e-08
5.9718345847587740515e-08
5.9635726310074559467e-08
5.9553221832644317454e-08
5.9470832153340772942e-08
5.9388554923185232675e-08
5.9306393055605904452e-08
5.9224343079573638331e-08
5.914240740512210282e-08
5.9060585719694082356e-08
5.8978878495124575204e-08
5.8897282881879318709e-08
5.881579925555342767e-08
5.8734430624712672613e-08
5.8653173368006706836e-08
5.8572027753351588334e-08
5.8490996226016530516e-08
5.8410074887304594723e-08
5.8329266842045469508e-08
5.8248571633852217767e-08
5.8167985921300551543e-08
5.8087512899684032545e-08
5.8007152705102908887e-08
5.7926902381558519593e-08
5.7846761680735367443e-08
5.7766733407782745287e-08
5.7686816833276516678e-08
5.760700917946766053e-08
5.7527313586023258494e-08
5.7447726372546323581e-08
5.7368250057314935891e-08
5.7288884432986547242e-08
5.7209629509163546642e-08
5.7130481980494688243e-08
5.7051445271252592279e-08
5.6972518919968659976e-08
5.6893699948650331667e-08
5.6814992156087578985e-08
5.6736392149030528827e-08
5.6657899439413602289e-08
5.6579516873155991583e-08
5.6501243930819387251e-08
5.642307700614689473e-08
5.6345019531597767246e-08
5.6267071216497150893e-08
5.6189228464966362739e-08
5.611149459958601346e-08
5.6033869893070979893e-08
5.5956351133574836888e-08
5.5878938630438622526e-08
5.5801635250390514638e-08
5.5724436758409712998e-08
5.5647346289421397059e-08
5.5570364117266640133e-08
5.5493487012072541298e-08
5.5416715140053831631e-08
5.5340051848538493001e-08
5.5263493852149553919e-08
5.5187041565035919039e-08
5.5110695192589287314e-08
5.5034454090791887456e-08
5.4958317584315514251e-08
5.4882288946677347817e-08
5.4806364424575673212e-08
5.4730543382932834268e-08
5.4654828812031574018e-08
5.4579220187495433862e-08
5.450371428584264116e-08
5.4428314595719916475e-08
5.4353017551545317504e-08
5.4277826486712790027e-08
5.4202737640854716576e-08
5.4127755013926113036e-08
5.4052874898160491774e-08
5.3978097272498238059e-08
5.3903425283837706012e-08
5.3828854426233634463e-08
5.3754387946504354458e-08
5.368002624925846651e-08
5.3605765966916906673e-08
5.3531607249184886848e-08
5.3457553349218854017e-08
5.3383599681102612124e-08
5.3309749664341421895e-08
5.3236003102075720784e-08
5.3162356434060568889e-08
5.3088814022265895581e-08
5.3015372127752938315e-08
5.2942030664386314497e-08
5.2868792815576951049e-08
5.2795654519550264014e-08
5.2722619452994777935e-08
5.2649683128156389148e-08
5.2576849025392310423e-08
5.2504117141689705125e-08
5.2431483330663345417e-08
5.2358951186214489347e-08
5.2286521102749516748e-08
5.2214190255558219106e-08
5.2141958838584089229e-08
5.2069826223567100175e-08
5.1997796149670802478e-08
5.1925864660154854926e-08
5.1854031064478194986e-08
5.1782297944002647652e-08
5.1710664824269675686e-08
5.1639131953866753296e-08
5.1567695862024101291e-08
5.1496360574921285885e-08
5.1425122055035811649e-08
5.1353984231864654264e-08
5.1282942544024206458e-08
5.1212000113814026032e-08
5.1141156073936173787e-08
5.1070410502396871831e-08
5.0999763962227595675e-08
5.0929212891674727241e-08
5.0858761566826671729e-08
5.0788405405085451568e-08
5.0718147427832942084e-08
5.0647987351256758405e-08
5.0577925679951917117e-08
5.0507958308921092923e-08
5.0438088560515132198e-08
5.0368316052236395717e-08
5.0298641775623868379e-08
5.0229062503592122196e-08
5.0159577571749841363e-08
5.0090190332404621805e-08
5.0020900802257663604e-08
4.9951704388950608686e-08
4.9882604838960144465e-08
4.9813602907062857887e-08
4.9744694974429026718e-08
4.967588073078037092e-08
4.9607164601125202176e-08
4.9538542376224881159e-08
4.9470013604548781968e-08
4.9401582118949412853e-08
4.9333243251347845864e-08
4.9265001161004255956e-08
4.9196851237770574843e-08
4.9128798269370530555e-08
4.9060838251970351437e-08
4.8992970719612514819e-08
4.8925199607647080075e-08
4.8857520157322459094e-08
4.878993659827853634e-08
4.8722444385016715586e-08
4.8655047814233025423e-08
4.8587742299363177096e-08
4.8520532311849874776e-08
4.8453412705320612345e-08
4.838638722717816878e-08
4.8319456302836179604e-08
4.8252615179175911831e-08
4.8185867480937835804e-08
4.8119212420062951921e-08
4.8052649839800130438e-08
4.7986181157609364515e-08
4.7919803034358172649e-08
4.785351462924372682e-08
4.7787319503410264457e-08
4.7721217775455613214e-08
4.7655204942312511497e-08
4.758928576138038505e-08
4.7523455496766954043e-08
4.745771870953237166e-08
4.7392070442724548061e-08
4.7326515802371538771e-08
4.7261050697964517055e-08
4.7195674298943261841e-08
4.7130391473226052744e-08
4.7065197840058912907e-08
4.7000092656154086026e-08
4.6935080289572720538e-08
4.6870155572258465399e-08
4.6805323132001404357e-08
4.6740578029134339384e-08
4.6675924963820846944e-08
4.6611358973430308466e-08
4.654688478608689771e-08
4.6482497412288894938e-08
4.6418201608119774183e-08
4.6353992356756906962e-08
4.6289874442140715562e-08
4.6225842820149738548e-08
4.6161902304537138919e-08
4.6098047803100840982e-08
4.603428430679410101e-08
4.5970606225023952636e-08
4.5907017481173646546e-08
4.5843518694143422823e-08
4.5780104954413349223e-08
4.5716781589274036558e-08
4.5653543018818480981e-08
4.559039303401734888e-08
4.5527332795091776444e-08
4.5464358328468422728e-08
4.5401468991220441941e-08
4.5338669611126042891e-08
4.5275954511681538869e-08
4.5213329152913704804e-08
4.5150789317451564515e-08
4.5088333890032055434e-08
4.5025968188447101345e-08
4.4963687689668824704e-08
4.4901491358845303496e-08
4.4839384074143552039e-08
4.4777360194178107845e-08
4.4715424806206723388e-08
4.465357251382594847e-08
4.4591808486772058552e-08
4.453012728326400366e-08
4.4468534251711817805e-08
4.4407023500783896977e-08
4.4345599050017891176e-08
4.4284261754768641222e-08
4.4223006315024338251e-08
4.416183843485504522e-08
4.4100752214777544645e-08
4.4039751698740995918e-08
4.3978837790992152864e-08
4.3918005113855304932e-08
4.3857259425618511697e-08
4.3796594917207815057e-08
4.3736015231204330043e-08
4.3675519992473562344e-08
4.3615110360557651978e-08
4.3554781171359471804e-08
4.3494538124403819957e-08
4.3434377580073501891e-08
4.3374267768486275995e-08
4.3314736753115452402e-08
4.3250098033114122728e-08
4.3222164739177582704e-08
1.2952840186991510272e-05
1.9688622502437523373e-06
2.8852325762058689582e-07
1.0333927047253251978e-07
8.8577152538524392155e-08
8.7663336465692292288e-08
8.7510433008423203163e-08
8.7388305847213176029e-08
8.7267347252963542157e-08
8.7146588925672472523e-08
8.7026000406421298536e-08
8.6905578790072736325e-08
8.6785323421102098481e-08
8.6665234998262253292e-08
8.6545311756177944993e-08
8.6425555735876134849e-08
8.6305965495760493519e-08
8.6186539638457606861e-08
8.6067280315839086675e-08
8.5948186005055882894e-08
8.5829255975860946712e-08
8.5710491683647291871e-08
8.5591890694981124281e-08
8.5473453293360996489e-08
8.5355181163661860252e-08
8.523707278932007349e-08
8.511912680829794846e-08
8.5001344627135450155e-08
8.4883726217004090149e-08
8.4766270470073129556e-08
8.4648976776831463523e-08
8.4531845997663727007e-08
8.4414876238504710341e-08
8.4298069626208444007e-08
8.418142476716212839e-08
8.4064940141070306001e-08
8.3948617992004826399e-08
8.3832456836318899267e-08
8.37164559220002363e-08
8.3600616074092200638e-08
8.3484936018028185297e-08
8.3369417281684724992e-08
8.3254057331465929632e-08
8.3138856521573488894e-08
8.3023815841249174767e-08
8.2908935148564424542e-08
8.2794213384236311821e-08
8.2679649719691979817e-08
8.2565245844490896002e-08
8.2450999214735648225e-08
8.2336910068582916845e-08
8.2222980119010565683e-08
8.2109208500843564946e-08
8.199559372682980799e-08
8.1882135613382910606e-08
8.1768833981134050917e-08
8.1655690556864116658e-08
8.1542703893436534506e-08
8.1429872396847291366e-08
8.1317197750156438554e-08
8.1204679125928009555e-08
8.1092316774771194018e-08
8.0980110577001189408e-08
8.0868058448687505429e-08
8.0756160704317725878e-08
8.0644419232428423437e-08
8.0532832516165264904e-08
8.0421399575673681224e-08
8.0310121583753347111e-08
8.0198996366706504306e-08
8.0088026242241044011e-08
7.9977209811665634993e-08
7.986654607553853451e-08
7.975603614034328878e-08
7.964567857449412147e-08
7.9535474507865803918e-08
7.9425421703029236575e-08
7.9315522510104132252e-08
7.9205775553671773751e-08
7.9096179770613948899e-08
7.8986736442383576364e-08
7.8877443302162702938e-08
7.8768302719150193869e-08
7.865931343493997054e-08
7.8550473674576013992e-08
7.8441785263867673473e-08
7.8333247357971118676e-08
7.8224860307777331595e-08
7.8116623308760270828e-08
7.8008535236035565527e-08
7.7900598145012280239e-08
7.7792809315785300316e-08
7.7685168888361667755e-08
7.757767886163561477e-08
7.7470337910430064316e-08
7.7363144055170732206e-08
7.7256099857151432965e-08
7.7149204007724738991e-08
7.7042455304136237725e-08
7.6935855089318854957e-08
7.6829401719311262578e-08
7.6723096555827290577e-08
7.6616937151238209389e-08
7.651092598842795391e-08
7.640506176997453302e-08
7.6299343236103208444e-08
7.6193771802189253201e-08
7.6088345656971982417e-08
7.5983066901640844432e-08
7.5877932608920237564e-08
7.5772943647713526235e-08
7.566810104250286469e-08
7.5563402144851384386e-08
7.5458849473005944316e-08
7.5354441764156940094e-08
7.5250177675769419065e-08
7.5146058706416784664e-08
7.5042083082315298294e-08
7.4938252199625475859e-08
7.4834564255251818335e-08
7.4731020663393612611e-08
7.4627619593754206815e-08
7.4524362597902044245e-08
7.4421247056710177137e-08
7.4318275545933323834e-08
7.4215446960913624994e-08
7.4112759094611564452e-08
7.4010214552710724188e-08
7.3907812921199399034e-08
7.3805551614795020539e-08
7.3703431580349835075e-08
7.360145391770404328e-08
7.3499616573774188972e-08
7.3397921189892820276e-08
7.3296365052390784979e-08
7.3194950802574231228e-08
7.3093677264553719873e-08
7.2992542785035049093e-08
7.2891549860824821102e-08
7.2790695453565535047e-08
7.2689980229890291922e-08
7.2589406154155701098e-08
7.2488970030832295571e-08
7.2388672498816579551e-08
7.2288515552536526102e-08
7.2188495968891136983e-08
7.2088614492842130596e-08
7.198887248422125619e-08
7.1889266973505873291e-08
7.1789800659486153359e-08
7.1690472407068808008e-08
7.1591280561226844236e-08
7.1492226982985363415e-08
7.1393309456841653515e-08
7.1294530488612523846e-08
7.1195887067385386604e-08
7.1097379158022138763e-08
7.0999009074134896649e-08
7.0900775697239443893e-08
7.0802676513673646147e-08
7.07047144306082884e-08
7.0606888380736262914e-08
7.0509196494227216724e-08
7.0411641383797884597e-08
7.0314220668991036397e-08
7.0216934089477355889e-08
7.0119781908768435621e-08
7.002276553796703502e-08
6.9925881817969452241e-08
6.9829133419397447211e-08
6.9732520063010938758e-08
6.9636038971628629628e-08
6.9539690972458091846e-08
6.9443477568293441083e-08
6.9347396317681704698e-08
6.9251449143518460139e-08
6.9155633715608896201e-08
6.9059952121675775561e-08
6.8964401257793094558e-08
6.8868983991589109411e-08
6.8773699318331906638e-08
6.8678545176876380748e-08
6.858352449639663866e-08
6.8488634019890736899e-08
6.8393874891716929342e-08
6.8299232951844211392e-08
6.8205050736594796769e-08
6.8105876207088876405e-08
6.8060122726705122126e-08
6.4237817778140125134e-08
6.4465193569047785619e-08
6.4439892303042943097e-08
6.4353073455193964695e-08
6.4262816183928643784e-08
6.4173872896642331918e-08
6.4085085427828968249e-08
6.3996423758013687423e-08
6.390788362778888936e-08
6.3819464707656759109e-08
6.3731169713467135204e-08
6.3642997849810327159e-08
6.3554945861146820355e-08
6.3467017071290121629e-08
6.3379210897122143367e-08
6.3291524071727175837e-08
6.3203959954170688661e-08
6.3116517835700788133e-08
6.3029195159131743051e-08
6.294199475689719363e-08
6.2854913647442118447e-08
6.2767954513672902141e-08
6.2681114317062994613e-08
6.259439589791714268e-08
6.2507795478853801576e-08
6.2421316273530200694e-08
6.233495774058538853e-08
6.2248716490631823256e-08
6.2162595934031236836e-08
6.2076595566073780164e-08
6.1990711981359507928e-08
6.1904948478204170612e-08
6.1819305168289882875e-08
6.1733778857526220514e-08
6.1648370033522707984e-08
6.1563081280624989415e-08
6.1477908516756007695e-08
6.1392854994240297718e-08
6.130792023374536894e-08
6.1223100720013710065e-08
6.1138399944324282563e-08
6.1053817328769032306e-08
6.0969350048576698234e-08
6.0885001218830653454e-08
6.0800767601997067106e-08
6.0716652148573597632e-08
6.0632651575679089208e-08
6.0548768855939009578e-08
6.0465000668830760194e-08
6.0381350153184375482e-08
6.029781326549687727e-08
6.0214393364791449707e-08
6.0131089912736554626e-08
6.0047899956450572595e-08
5.9964826756580203387e-08
5.9881866808029617923e-08
5.9799023911244551958e-08
5.9716294356404754131e-08
5.9633678190583220217e-08
5.9551178841111127015e-08
5.9468792386658180236e-08
5.938651883211258055e-08
5.9304361623844621651e-08
5.9222316938549391851e-08
5.9140384352613213875e-08
5.9058566190239649603e-08
5.8976862019381306613e-08
5.889527190938507008e-08
5.881379222980332048e-08
5.8732426641419725593e-08
5.8651174887139708597e-08
5.8570033106148344152e-08
5.8489004964096847657e-08
5.840809008852060574e-08
5.8327285147089023224e-08
5.8246594217532799559e-08
5.8166014072637585693e-08
5.8085545311137765702e-08
5.8005187592826983391e-08
5.7924939702758256762e-08
5.7844804503505192776e-08
5.776478152129149953e-08
5.7684866883809331459e-08
5.7605063628976420498e-08
5.7525371554856737125e-08
5.7445790715894793096e-08
5.7366317959707318764e-08
5.7286957101572245299e-08
5.7207703876606870764e-08
5.7128561154807351836e-08
5.7049528684440671432e-08
5.6970606701093982526e-08
5.6891791314866902728e-08
5.6813086322992312269e-08
5.6734491624103607829e-08
5.665600308438179827e-08
5.6577624502092449186e-08
5.6499355662443304685e-08
5.6421192916488141248e-08
5.6343140745053477846e-08
5.626519540420021866e-08
5.6187356189164129049e-08
5.610962618121433865e-08
5.6032005617972547106e-08
5.5954490926458303577e-08
5.5877082088302401581e-08
5.5799783101729673095e-08
5.5722589946440879619e-08
5.5645501825962265379e-08
5.556852201271793433e-08
5.5491650109127283756e-08
5.5414882399680250823e-08
5.5338223014098410664e-08
5.5261667261183924684e-08
5.5185218816860049626e-08
5.5108877542009597925e-08
5.503263970360033983e-08
5.4956509367132560185e-08
5.4880482282844954664e-08
5.4804562965683435945e-08
5.4728747420151643846e-08
5.4653035322623548008e-08
5.4577430700814332439e-08
5.4501929958176350082e-08
5.4426533043605972414e-08
5.4351239241428154725e-08
5.4276052397709053072e-08
5.4200968854996995679e-08
5.4125988566157444535e-08
5.4051110773393114531e-08
5.3976339509566423607e-08
5.3901670596661366106e-08
5.3827103099784378122e-08
5.3752640425754489554e-08
5.3678282333615245279e-08
5.3604024803028231523e-08
5.352987213310872209e-08
5.3455819995138462233e-08
5.3381872487701612872e-08
5.3308025201991882072e-08
5.3234282409657726846e-08
5.316063908909665885e-08
5.3087098906340118634e-08
5.3013662406114868846e-08
5.2940326431690593959e-08
5.286709136984362087e-08
5.2793955960391298764e-08
5.2720923292428679966e-08
5.2647993816010322972e-08
5.2575163690835719119e-08
5.2502432766693587407e-08
5.2429805031711134464e-08
5.2357275524394837128e-08
5.2284849104988135211e-08
5.2212521763555608898e-08
5.2140292467550126061e-08
5.206816475629898915e-08
5.1996138574195385151e-08
5.192420941492241057e-08
5.1852382512879080904e-08
5.1780653722308011636e-08
5.1709022573542476497e-08
5.1637493159568582426e-08
5.1566060504498659226e-08
5.1494729164062991289e-08
5.1423493835067328001e-08
5.1352358271091211111e-08
5.1281323331355703772e-08
5.1210385134806306298e-08
5.1139543241616078631e-08
5.1068802499790885901e-08
5.099815844435827701e-08
5.0927610313122218877e-08
5.0857162951171931177e-08
5.0786811853879937479e-08
5.071655639384446036e-08
5.06464008874414125e-08
5.0576340039896772079e-08
5.0506378869180215629e-08
5.043651368953232954e-08
5.036674454106896477e-08
5.0297070488752012563e-08
5.0227495681299972122e-08
5.0158014673468288989e-08
5.0088632712472725354e-08
5.0019345524205219196e-08
4.9950152291945167829e-08
4.9881057898535862563e-08
4.9812058322057187947e-08
4.9743153724034349935e-08
4.9674342575921135008e-08
4.9605628182204239688e-08
4.9537011258796976403e-08
4.9468487744634528484e-08
4.9400056998160681798e-08
4.9331724218909503708e-08
4.9263484822112719706e-08
4.919533785416402137e-08
4.9127288341571481741e-08
4.9059332215259026682e-08
4.8991469493894342526e-08
4.8923699095873331829e-08
4.8856025449345819124e-08
4.8788442976113914528e-08
4.8720956631526387009e-08
4.865356112795333547e-08
4.8586261503091760993e-08
4.8519052443996826276e-08
4.8451939038904620082e-08
4.8384915806209673755e-08
4.8317988214160891191e-08
4.8251152376440548199e-08
4.8184408514909125918e-08
4.8117755108618554443e-08
4.8051195260143442692e-08
4.7984728113374799352e-08
4.7918355080802631914e-08
4.78520723001242546e-08
4.7785878986697142115e-08
4.7719780691438767738e-08
4.7653772706887936033e-08
4.7587853974516327693e-08
4.7522029677534269056e-08
4.7456293498859831607e-08
4.7390649529368660287e-08
4.7325098700452446572e-08
4.7259635208881561173e-08
4.719426335651035745e-08
4.7128984505549463452e-08
4.7063794433768647031e-08
4.6998692361875163576e-08
4.693368354753219876e-08
4.6868761861925997609e-08
4.6803933178491992466e-08
4.6739193012815910727e-08
4.667454022317869436e-08
4.6609980230223017776e-08
4.6545506550663073995e-08
4.648112320940378361e-08
4.6416831434956474532e-08
4.6352627390949315875e-08
4.6288511657971922495e-08
4.6224482447951659226e-08
4.6160543474009757468e-08
4.6096695489106672884e-08
4.6032932483043008529e-08
4.5969258591438951251e-08
4.5905673310839637133e-08
4.5842178305436856404e-08
4.5778769596318134904e-08
4.571544809261787126e-08
4.5652178325590883349e-08
4.5589521122918743997e-08
4.552148832941783436e-08
4.5492085802617284367e-08
1.5684237289817668605e-05
2.224178345830482698e-06
3.084201396302137742e-07
1.0831851759228506222e-07
9.3202495076110475039e-08
9.2268580948429860807e-08
9.210717840463865298e-08
9.1978574522205707521e-08
9.1851265947364239571e-08
9.1724164867816575474e-08
9.1597239335257893422e-08
9.1470490153708251744e-08
9.134391646434032526e-08
9.1217518651567774807e-08
9.1091295608189709908e-08
9.0965246703110124817e-08
9.0839373424745928833e-08
9.0713673243950642996e-08
9.0588146475228725588e-08
9.0462794762424865635e-08
9.0337617128504147647e-08
9.0212612154366709446e-08
9.0087779491536883488e-08
8.9963119744496238571e-08
8.9838633854800616693e-08
8.9714319136847871449e-08
8.9590175982517041498e-08
8.9466205355246760627e-08
8.9342407016549092421e-08
8.921878051753978675e-08
8.909532450203378296e-08
8.8972038745318878208e-08
8.8848923113990797903e-08
8.8725979315496188074e-08
8.8603205780317844924e-08
8.8480600905371826861e-08
8.8358167040320435669e-08
8.8235902628941536394e-08
8.8113806884777200374e-08
8.7991880659484089494e-08
8.7870122733260234045e-08
8.7748533876123672268e-08
8.7627112841592206868e-08
8.750586042643522797e-08
8.7384775254621282684e-08
8.7263858965572078978e-08
8.7143108790469036184e-08
8.7022525700456551212e-08
8.6902110816150041501e-08
8.6781862078839568345e-08
8.6661779072484729727e-08
8.6541862327718196066e-08
8.6422112893328301127e-08
8.6302528673788104468e-08
8.6183109361579475555e-08
8.6063854756651933148e-08
8.5944766675632009964e-08
8.5825843502944860705e-08
8.5707084172661182604e-08
8.5588490549458880148e-08
8.5470059812694469118e-08
8.5351792890560377697e-08
8.5233691134604161151e-08
8.5115751592255511125e-08
8.4997975174277657368e-08
8.488036324941967377e-08
8.4762912956053460518e-08
8.4645624489317448913e-08
8.4528499819153504171e-08
8.4411537480652025335e-08
8.4294735612539081869e-08
8.4178096635831481019e-08
8.4061619933860980692e-08
8.3945303045345050794e-08
8.3829147087507310909e-08
8.3713152816015777369e-08
8.3597317772658785088e-08
8.348164440985999803e-08
8.3366131282011604991e-08
8.3250777284818237027e-08
8.3135583641350431641e-08
8.302054880092292297e-08
8.2905673894229086753e-08
8.2790957331422094661e-08
8.2676400379521622465e-08
8.2562000617067533818e-08
8.2447760553675024931e-08
8.2333678775379754681e-08
8.2219754092552271313e-08
8.2105987926635886004e-08
8.1992377935436136481e-08
8.1878925950054077981e-08
8.1765631079176183639e-08
8.1652493565515800492e-08
8.1539513409801787157e-08
8.1426688186215758075e-08
8.1314018983621783017e-08
8.1201506636028658588e-08
8.1089149317718581273e-08
8.0976948299577879308e-08
8.0864901858081659606e-08
8.0753011294434510967e-08
8.0641274868036666343e-08
8.0529693901064350333e-08
8.041826662313126026e-08
8.0306994498246905461e-08
8.019587492639851013e-08
8.0084910518785733322e-08
7.9974100052651810298e-08
7.9863441350047592088e-08
7.9752937162652662356e-08
7.9642586290190351966e-08
7.9532386530939148471e-08
7.9422340662817969235e-08
7.9312447372764081836e-08
7.920270525536231486e-08
7.9093115879586884282e-08
7.8983677386017895572e-08
7.8874391236504765235e-08
7.8765255540294791232e-08
7.8656271788263740097e-08
7.8547437944868090406e-08
7.8438756336563399948e-08
7.8330223842103045667e-08
7.8221841210357405968e-08
7.8113610347951389182e-08
7.8005527987758665538e-08
7.7897594855166419076e-08
7.7789812884581219707e-08
7.7682178792029649389e-08
7.7574693293983976268e-08
7.7467358352623193888e-08
7.7360170659478750162e-08
7.7253131047549566663e-08
7.7146240684703124664e-08
7.7039497388288236485e-08
7.6932902906475039374e-08
7.6826454368227650332e-08
7.6720154556040605765e-08
7.661400224822080256e-08
7.650799568405439255e-08
7.6402137508226100081e-08
7.629642452259648494e-08
7.6190857414313521405e-08
7.6085438269722749522e-08
7.5980163722419450351e-08
7.5875034433239062293e-08
7.5770052516485591871e-08
7.5665214579866306593e-08
7.5560521404897862545e-08
7.5455974312965289379e-08
7.5351570976866462406e-08
7.5247313186002078427e-08
7.5143198603472411948e-08
7.5039229852472379106e-08
7.4935403777673808305e-08
7.4831720340664496541e-08
7.4728181975039531508e-08
7.4624787388709881226e-08
7.4521534623679822886e-08
7.44184265178765877e-08
7.4315459782884030112e-08
7.4212635037677987895e-08
7.4109954553152919133e-08
7.4007414864329798618e-08
7.3905016571577148737e-08
7.3802761842015728674e-08
7.3700647998037066942e-08
7.3598674766045418763e-08
7.3496842284465899461e-08
7.3395152732339496712e-08
7.3293602711658096744e-08
7.3192192127202014335e-08
7.3090923358471650027e-08
7.2989795978346206481e-08
7.2888807050931640891e-08
7.2787957303761889359e-08
7.2687249027845067571e-08
7.2586679475800906109e-08
7.2486248508821920447e-08
7.2385955567004324084e-08
7.2285802920579467422e-08
7.218579015163892316e-08
7.2085914264805839181e-08
7.1986176602324860831e-08
7.1886562377696318763e-08
7.1787431729681093097e-08
7.1683042602356655173e-08
7.1634915277609068206e-08
6.7611811271873249849e-08
6.7851105648298490788e-08
6.7824462696790684117e-08
6.7733076304671834634e-08
6.763807980472485122e-08
6.7544462755952971007e-08
6.7451010468259423536e-08
6.7357690139532029053e-08
6.7264497628409431245e-08
6.7171435557566176854e-08
6.7078500885905566353e-08
6.6985696319133080534e-08
6.6893018650238276658e-08
6.6800471380462467735e-08
6.6708050829362728477e-08
6.6615757276150843862e-08
6.6523593814193241608e-08
6.643155655035490579e-08
6.6339645861919663587e-08
6.6247864219943878863e-08
6.615620766714213809e-08
6.6064678770254029135e-08
6.5973277324172800222e-08
6.5882003183054597956e-08
6.579085301489635098e-08
6.5699830397696121555e-08
6.5608934786574740661e-08
6.5518162632868352837e-08
6.5427517508564342202e-08
6.5336998883454534193e-08
6.5246603190647189022e-08
6.5156333883639363548e-08
6.5066191078600210354e-08
6.4976171428766486936e-08
6.4886275444202997929e-08
6.4796505831337782932e-08
6.4706858313084420176e-08
6.4617336295654669876e-08
6.45279392760201095e-08
6.443866357109121961e-08
6.4349512837408463051e-08
6.4260486467889244606e-08
6.417158150377636845e-08
6.4082801221122832825e-08
6.399414207559384855e-08
6.3905607923103143637e-08
6.3817194915257014754e-08
6.3728903314154349078e-08
6.3640735817350979305e-08
6.3552688747098352248e-08
6.346476522742454864e-08
6.33769617573849817e-08
6.3289281509440162877e-08
6.3201720962229721727e-08
6.3114283313710245223e-08
6.3026965003318547303e-08
6.2939769402629953655e-08
6.2852692214217724186e-08