/*--------------------------------*- C++ -*----------------------------------*\
  =========                 |
  \\      /  F ield         | OpenFOAM: The Open Source CFD Toolbox
   \\    /   O peration     | Website:  https://openfoam.org
    \\  /    A nd           | Version:  12
     \\/     M anipulation  |
\*---------------------------------------------------------------------------*/
FoamFile
{
    format      ascii;
    class       volScalarField;
    location    "1e-05";
    object      nut;
}
// * * * * * * * * * * * * * * * * * * * * * * * * * * * * * * * * * * * * * //

dimensions      [0 2 -1 0 0 0 0];

internalField   nonuniform List<scalar> 
75962
(
3.0963900852335588982e-07
1.1960697792460630528e-07
4.4892177968901727712e-08
2.6285380785480868368e-08
2.4226788055350474115e-08
2.4077269754052483812e-08
2.4038946767210683576e-08
2.4005458846690636062e-08
2.3972184436827252561e-08
2.3938960463067979597e-08
2.390578252991016698e-08
2.3872650634771198019e-08
2.3839564617591230446e-08
2.3806524531112633533e-08
2.3773530101747795341e-08
2.3740581562497989752e-08
2.3707678780183045257e-08
2.3674821432190906034e-08
2.3642009645159615144e-08
2.3609243424298617117e-08
2.3576522491348019955e-08
2.3543846988698469311e-08
2.3511216879578878589e-08
2.3478631992097284999e-08
2.3446092122299940513e-08
2.341359744434147115e-08
2.3381147816402727034e-08
2.3348743242466139447e-08
2.3316383661158083309e-08
2.3284068757784477457e-08
2.3251798659035543503e-08
2.3219573370966872188e-08
2.3187392682571260373e-08
2.3155256761256819222e-08
2.3123165235831747948e-08
2.3091118110907419649e-08
2.3059115579117139215e-08
2.3027157502443131449e-08
2.2995243546889184635e-08
2.2963373836266518261e-08
2.2931548385353852171e-08
2.2899766988816020245e-08
2.2868029716225896709e-08
2.2836336373355994493e-08
2.2804687034456457438e-08
2.2773081488409849008e-08
2.2741519918562823234e-08
2.2710001947103252533e-08
2.267852757453213704e-08
2.2647097016898676602e-08
2.2615710032990148924e-08
2.2584366461080406027e-08
2.255306649086863398e-08
2.2521809836627624054e-08
2.2490596415273453008e-08
2.2459426262902036152e-08
2.2428299504926504333e-08
2.23972157430312056e-08
2.2366174973866667277e-08
2.2335177420170486354e-08
2.2304222843450729479e-08
2.2273311085235794099e-08
2.2242442267643320194e-08
2.2211616085003647967e-08
2.2180832711458003112e-08
2.2150092109906114237e-08
2.2119394114761057188e-08
2.2088738577169384483e-08
2.205812562938264159e-08
2.2027554944550213203e-08
2.1997026809174525179e-08
2.196654100360383736e-08
2.1936097360916146157e-08
2.1905696002889785369e-08
2.1875336705476966783e-08
2.1845019578436586972e-08
2.1814744393035994591e-08
2.1784511276825248955e-08
2.17543198923695717e-08
2.1724170531249099739e-08
2.1694062993490822257e-08
2.1663996995192939465e-08
2.163397284637753371e-08
2.1603990334230035375e-08
2.1574049279710698193e-08
2.1544149820968461735e-08
2.1514291705427514444e-08
2.1484475166026760786e-08
2.1454699788691646411e-08
2.1424965654707393623e-08
2.1395272943810277782e-08
2.13656212233678747e-08
2.1336010588317576019e-08
2.130644111319650762e-08
2.1276912535715778941e-08
2.1247424988398009154e-08
2.1217978221108386764e-08
2.118857238622120721e-08
2.1159207126508523999e-08
2.1129882734197140688e-08
2.1100599095283844039e-08
2.1071355952928312701e-08
2.1042153248309660524e-08
2.1012991018707246811e-08
2.0983869337408989283e-08
2.0954787911554192722e-08
2.0925746995570785633e-08
2.0896746163216386854e-08
2.0867785505774774272e-08
2.0838865117371488226e-08
2.0809984717484721259e-08
2.0781144458523454144e-08
2.075234407272681128e-08
2.0723583732979832101e-08
2.0694863063491727274e-08
2.0666182383009226952e-08
2.0637541493193686935e-08
2.0608940179878424869e-08
2.0580378622742415655e-08
2.0551856549344751293e-08
2.0523374125298878656e-08
2.0494931074186960869e-08
2.0466527564162024944e-08
2.0438163315203610974e-08
2.0409838513135563861e-08
2.0381552786618639528e-08
2.0353306355487742389e-08
2.0325099178580671099e-08
2.0296931138294815395e-08
2.0268801917489644586e-08
2.0240711864981244123e-08
2.0212660792090305235e-08
2.0184648467854074486e-08
2.015667509362284157e-08
2.0128740362803842907e-08
2.0100844568160060524e-08
2.0072987268338889205e-08
2.0045168526953095549e-08
2.0017388582738257305e-08
1.9989646973102497514e-08
1.9961943775785057471e-08
1.9934279125612919408e-08
1.9906652703710081386e-08
1.9879064705118224352e-08
1.985151480948610945e-08
1.9824003320896301578e-08
1.9796529807661549515e-08
1.9769094241825722742e-08
1.9741696892198072189e-08
1.9714337649408353748e-08
1.9687016224421251661e-08
1.965973258759663134e-08
1.9632486653256610554e-08
1.9605278673647180786e-08
1.957810855555926157e-08
1.9550975918310957843e-08
1.9523880747833019264e-08
1.9496823335865248456e-08
1.9469803504981702058e-08
1.9442820886172033228e-08
1.9415875832069914838e-08
1.9388968276062832959e-08
1.9362097835867411304e-08
1.9335264495185806219e-08
1.9308468552302331057e-08
1.9281709817859560999e-08
1.9254988000648779771e-08
1.9228303454291681165e-08
1.9201655720981019259e-08
1.9175044850553135559e-08
1.9148471122007669684e-08
1.9121934068357398069e-08
1.9095433664326162734e-08
1.9068970125086262741e-08
1.9042543283247172784e-08
1.9016153152434787632e-08
1.8989799645380053808e-08
1.8963482499395799902e-08
1.8937201979891746506e-08
1.8910957743673261435e-08
1.8884750038360609841e-08
1.8858578497765057214e-08
1.8832443473670841346e-08
1.8806344584826645967e-08
1.8780279564851576944e-08
1.8754297051599754014e-08
1.8727639101236399878e-08
1.8708349704366423546e-08
1.7665216989252802335e-08
1.7684073505389697113e-08
1.7668414289693353887e-08
1.7644284942290140391e-08
1.7619655771620241584e-08
1.7595232859511900745e-08
1.7570849038311601778e-08
1.7546498963727770151e-08
1.7522182458027174831e-08
1.7497899869615030733e-08
1.7473651049453538287e-08
1.7449435629264097783e-08
1.7425253962825236457e-08
1.7401105628196256439e-08
1.737699095890519184e-08
1.7352909527292522436e-08
1.7328861669900429228e-08
1.7304846954403616884e-08
1.7280865737517573652e-08
1.7256917504537660169e-08
1.7233002568764598329e-08
1.7209120883098346859e-08
1.7185272387464238792e-08
1.716145672173304458e-08
1.7137674279539305133e-08
1.7113924541567855027e-08
1.7090207828182443399e-08
1.7066524072149664623e-08
1.7042873318616864479e-08
1.7019255137133605433e-08
1.6995669556454065315e-08
1.697211698495063554e-08
1.6948596882781144312e-08
1.692510926332767326e-08
1.6901654454584064162e-08
1.6878231876061257545e-08
1.6854841947651607236e-08
1.6831484583355384952e-08
1.6808159281481659655e-08
1.6784866474930848814e-08
1.6761606162413874161e-08
1.6738377898752400296e-08
1.6715181623880541601e-08
1.6692017716335777032e-08
1.6668886051041578692e-08
1.6645786207037308847e-08
1.662271861091078259e-08
1.6599682714188344019e-08
1.6576678853249345283e-08
1.6553706976809154196e-08
1.6530767064836563212e-08
1.650785862127333429e-08
1.6484982112332800669e-08
1.6462137451833006177e-08
1.6439324190320286095e-08
1.64165428487218055e-08
1.6393792921133733009e-08
1.6371074313484189145e-08
1.6348387410445772056e-08
1.6325732117758369045e-08
1.6303107896447845034e-08
1.6280515213997070212e-08
1.6257954009144406523e-08
1.623542374460779624e-08
1.6212924872051808967e-08
1.6190457410696383285e-08
1.6168020879447911494e-08
1.6145615298560996152e-08
1.6123241057506306477e-08
1.6100897528932982975e-08
1.6078585137639232177e-08
1.6056303903140689878e-08
1.603405334200897816e-08
1.6011833454030052458e-08
1.5989644697192082946e-08
1.5967486581176601457e-08
1.5945359142359917677e-08
1.5923262388857636251e-08
1.590119620733270558e-08
1.5879160478350115128e-08
1.5857155649399157642e-08
1.5835181163809555192e-08
1.5813236907014162505e-08
1.579132328499972917e-08
1.5769440203557100125e-08
1.5747587179141172341e-08
1.5725764689224216352e-08
1.5703972202855841666e-08
1.5682210175329886062e-08
1.5660478047622514465e-08
1.5638776370278146724e-08
1.5617104593499009299e-08
1.5595462690714525667e-08
1.5573851092193643319e-08
1.5552269132703330624e-08
1.5530717253547971476e-08
1.5509195493849483227e-08
1.5487703351307825506e-08
1.5466240824003092258e-08
1.5444808357660696289e-08
1.5423405275772862904e-08
1.5402032044673448864e-08
1.5380688617829716522e-08
1.5359374463872109881e-08
1.5338090185555296084e-08
1.5316835229236855437e-08
1.5295609559374729609e-08
1.5274413611702198055e-08
1.5253246784751455058e-08
1.5232109583555380297e-08
1.5211001346063804099e-08
1.5189922547530849319e-08
1.5168873169686772983e-08
1.5147852598007527424e-08
1.5126861324027380797e-08
1.5105899385941027311e-08
1.5084966359597886606e-08
1.5064062251488388346e-08
1.5043186950105717297e-08
1.5022340970733261316e-08
1.5001523729069915622e-08
1.4980735103706586605e-08
1.4959975443225988906e-08
1.4939244660390875798e-08
1.4918542771586007767e-08
1.4897869259120563883e-08
1.48772246784937891e-08
1.4856608432480209127e-08
1.4836021062799287123e-08
1.481546189767352043e-08
1.4794931361939930201e-08
1.4774429312710450685e-08
1.4753955740579110222e-08
1.4733510707384675745e-08
1.4713093682695089642e-08
1.4692705258137358627e-08
1.4672344759277807144e-08
1.4652012596477673201e-08
1.4631708710253077117e-08
1.4611433154325495384e-08
1.459118532112315471e-08
1.4570965664338562198e-08
1.4550774110423600538e-08
1.4530610782448520679e-08
1.4510475200113111823e-08
1.4490367246319567221e-08
1.4470287380299521264e-08
1.4450235587834255384e-08
1.4430211191572186287e-08
1.4410214705393550395e-08
1.4390246220439503114e-08
1.4370305200399837911e-08
1.4350391578397166044e-08
1.4330505968904352553e-08
1.4310647752763148143e-08
1.4290816842981315331e-08
1.4271013769603662162e-08
1.4251237845992932213e-08
1.4231489647269021775e-08
1.421176849500975085e-08
1.4192075053995297806e-08
1.4172408734783483118e-08
1.4152769448516537138e-08
1.4133157740113477486e-08
1.411357291018367797e-08
1.4094015544024675064e-08
1.4074484972866927343e-08
1.4054981791737774227e-08
1.4035505326014224984e-08
1.4016056195948442183e-08
1.3996633647320354412e-08
1.3977238194555981788e-08
1.3957869882837593655e-08
1.3938528012698458243e-08
1.391921308173394678e-08
1.3899924959936896338e-08
1.388066360519928575e-08
1.3861429202544191182e-08
1.3842221256865783733e-08
1.3823039626526989215e-08
1.3803884801344428625e-08
1.3784756782758762732e-08
1.3765654906700085033e-08
1.3746579834507902905e-08
1.3727530870803217604e-08
1.3708508648915088348e-08
1.3689512441631997493e-08
1.3670542959774536392e-08
1.3651599602607405809e-08
1.3632682229352176465e-08
1.3613791518632718154e-08
1.3594926828201146512e-08
1.3576088029893480353e-08
1.3557275731335610433e-08
1.3538489175479703748e-08
1.3519729005251310725e-08
1.3500994496367854391e-08
1.348228630224644536e-08
1.3463603695398923705e-08
1.3444947333283552873e-08
1.3426316484625121717e-08
1.3407711810927240321e-08
1.3389132577063974919e-08
1.3370579448566458144e-08
1.3352051686461628537e-08
1.3333549960596498098e-08
1.331507352511709186e-08
1.3296623075426512611e-08
1.3278197795020827699e-08
1.3259798224017435069e-08
1.3241424436531714298e-08
1.3223075711087631166e-08
1.3204752791337447389e-08
1.3186454862634608129e-08
1.3168182446057134702e-08
1.3149935692774052564e-08
1.3131714017892784744e-08
1.3113517308080906889e-08
1.3095346237560592748e-08
1.307719997714090129e-08
1.3059079288731917532e-08
1.3040983554731125352e-08
1.3022912594100789885e-08
1.3004867150526036731e-08
1.2986846562721418075e-08
1.2968850661255634926e-08
1.2950880127577703124e-08
1.2932934137898970097e-08
1.2915013401558680725e-08
1.2897117129881557722e-08
1.2879246044155458337e-08
1.2861399349233020833e-08
1.2843577792152608812e-08
1.2825780514223653211e-08
1.280800806956578249e-08
1.2790260567025456757e-08
1.2772537229852616775e-08
1.2754838856081595458e-08
1.273716458613578096e-08
1.2719514977689636891e-08
1.2701890146765294407e-08
1.2684289305629297452e-08
1.2666713260101187799e-08
1.2649161163852967982e-08
1.2631633517897077451e-08
1.261413025257838383e-08
1.2596651518570894608e-08
1.2579196558932286978e-08
1.2561766170341828084e-08
1.2544359832418566675e-08
1.2526972752566929068e-08
1.2509682868243898382e-08
1.2491659421743139791e-08
1.2478953102519382418e-08
3.0673582029878662052e-07
1.2004542343443177672e-07
4.6094390854590500387e-08
2.7577310115336154172e-08
2.5495136286756004361e-08
2.5343359670303777143e-08
2.5303544036991172584e-08
2.5268320681428021444e-08
2.5233294835305682904e-08
2.5198322457332280587e-08
2.5163398951728657612e-08
2.5128523855695086384e-08
2.5093697039614988733e-08
2.5058918569614565871e-08
2.5024188158884723004e-08
2.4989506065416479049e-08
2.4954872049913225972e-08
2.49202858778305249e-08
2.4885747823258331249e-08
2.4851257635292582025e-08
2.4816815175104415046e-08
2.4782420617657286769e-08
2.4748073581529898617e-08
2.4713774072787042889e-08
2.4679522299377372779e-08
2.4645318011626363098e-08
2.461116098060989335e-08
2.4577051373873972326e-08
2.454298915457751079e-08
2.4508974131123138381e-08
2.4475006182646866895e-08
2.4441085399361665757e-08
2.440721147690390733e-08
2.4373384686326024017e-08
2.4339604796105347132e-08
2.4305871554923306858e-08
2.4272185250846607e-08
2.4238545639459397382e-08
2.4204952579795225609e-08
2.4171406157195182364e-08
2.4137906156420135701e-08
2.4104452763613245397e-08
2.4071045583971521679e-08
2.4037684634703120466e-08
2.4004370024855500139e-08
2.3971101702091633088e-08
2.393787948256687939e-08
2.3904703214660098174e-08
2.3871573108070068211e-08
2.3838488766913458834e-08
2.3805450191922139596e-08
2.377245759613758899e-08
2.3739510824357275187e-08
2.370660963151170989e-08
2.3673753958892440647e-08
2.3640943748303893454e-08
2.3608179215014065551e-08
2.3575460120845120608e-08
2.354278620507549665e-08
2.351015767636221457e-08
2.3477574384836204604e-08
2.344503633436133658e-08
2.3412543476618996525e-08
2.3380095481688683505e-08
2.3347692361900808334e-08
2.3315334356195781841e-08
2.3283021216720851492e-08
2.3250752771104809213e-08
2.3218529155887549612e-08
2.318635002840613566e-08
2.3154215688558941697e-08
2.3122125905739540531e-08
2.3090080505025133288e-08
2.305807961350905647e-08
2.3026122995164424581e-08
2.2994210780607119455e-08
2.2962342618339858872e-08
2.2930518813176316277e-08
2.2898739138171576152e-08
2.2867003409562101979e-08
2.2835311779958243382e-08
2.2803663893904953386e-08
2.2772060059127637441e-08
2.2740500065814646326e-08
2.2708983628498744251e-08
2.2677510977317108771e-08
2.264608196107658888e-08
2.261469659926457712e-08
2.2583354746540099587e-08
2.2552056210677955835e-08
2.2520801255512107241e-08
2.2489589461984050975e-08
2.2458420818437177697e-08
2.2427295580714450624e-08
2.2396213529902904457e-08
2.2365174351523170957e-08
2.2334178381430113516e-08
2.2303225403152931567e-08
2.2272315213761645438e-08
2.2241447975263359965e-08
2.2210623422380918524e-08
2.2179841719989416645e-08
2.2149102487663054384e-08
2.2118406050207216514e-08
2.208775219305722769e-08
2.2057140705396314984e-08
2.202657175991021032e-08
2.1996045067519029448e-08
2.1965560899230202836e-08
2.193511880692208463e-08
2.1904718884118550462e-08
2.1874361248575844502e-08
2.1844045491476899582e-08
2.1813771943019722497e-08
2.1783540394052962604e-08
2.17533506223147411e-08
2.1723202812772069502e-08
2.1693096682322657789e-08
2.1663032401263042487e-08
2.1633009682344207683e-08
2.1603028698526320662e-08
2.1573089158722273938e-08
2.1543191255820799157e-08
2.1513334585759466618e-08
2.1483519487373094269e-08
2.1453745774834564882e-08
2.1424013102430296021e-08
2.1394321813312128162e-08
2.1364671820668759653e-08
2.1335062725440400247e-08
2.1305494633143830157e-08
2.1275967673008377984e-08
2.1246481522430696466e-08
2.1217036387543833602e-08
2.1187631851215188019e-08
2.1158268262073611185e-08
2.1128945424440790863e-08
2.1099663072235716309e-08
2.107042153433056276e-08
2.1041220348137168954e-08
2.1012059579115690275e-08
2.0982939480780391228e-08
2.0953859568054723287e-08
2.0924819902490499471e-08
2.089582074202392971e-08
2.0866861597738865132e-08
2.0837942546630074554e-08
2.0809063755962686009e-08
2.0780224772488654738e-08
2.0751425953499236327e-08
2.0722667109749929343e-08
2.0693947975639097368e-08
2.066526878942942561e-08
2.0636629206095846996e-08
2.0608029556252691631e-08
2.0579469382094371266e-08
2.0550948649218467384e-08
2.0522467660948623216e-08
2.0494026230873732023e-08
2.0465623970619439992e-08
2.0437261267791914843e-08
2.0408937943408419599e-08
2.0380653701377675379e-08
2.0352408887861632908e-08
2.032420313567130772e-08
2.0296036379289141405e-08
2.026790862841984521e-08
2.0239820058370754427e-08
2.0211770189581126292e-08
2.0183759375758284332e-08
2.015578755116936826e-08
2.0127854291038171242e-08
2.0099959685157623693e-08
2.0072103922134907544e-08
2.0044286625509647299e-08
2.001650804307029047e-08
1.9988767814418204708e-08
1.9961066211242450393e-08
1.9933402762396885421e-08
1.9905777850342842407e-08
1.9878191305849911444e-08
1.9850642806095932835e-08
1.9823132743405593757e-08
1.9795660625674076572e-08
1.9768226593003509344e-08
1.9740828492477640496e-08
1.9713516885789771842e-08
1.9685495011150996393e-08
1.9665215667941776933e-08
1.8620355587890067399e-08
1.8640196983936777937e-08
1.8623674381557175085e-08
1.8598234282159377566e-08
1.8572275020940471726e-08
1.8546531624381003128e-08
1.8520828967316379382e-08
1.8495162364133951564e-08
1.8469531171103340708e-08
1.844393531390174012e-08
1.8418375155998392386e-08
1.8392850560573461819e-08
1.8367361035924633557e-08
1.8341907031574880128e-08
1.831648844136158186e-08
1.8291104772110465919e-08
1.8265756478523512426e-08
1.8240443436366051592e-08
1.8215165254178388933e-08
1.8189922312396273721e-08
1.8164714160108042764e-08
1.8139541156326675152e-08
1.8114402841966163294e-08
1.8089299598825185416e-08
1.8064230862182091169e-08
1.8039197066015736401e-08
1.8014198110578657666e-08
1.7989233485594986924e-08
1.7964303653367147477e-08
1.7939408519573901289e-08
1.791454757179214849e-08
1.7889721256199299842e-08
1.7864929566605258419e-08
1.7840172022004345821e-08
1.7815448666076591991e-08
1.779075984565046663e-08
1.7766104952767420029e-08
1.7741484427187675167e-08
1.7716898178528703831e-08
1.7692345678903999135e-08
1.7667827402546549322e-08
1.7643343244942682875e-08
1.7618892777115601063e-08
1.7594476420695934759e-08
1.7570093689018055306e-08
1.7545744980124903134e-08
1.7521429800875190061e-08
1.7497148552538542504e-08
1.7472900736608436552e-08
1.7448686778411703395e-08
1.7424506076124402974e-08
1.7400359085220701748e-08
1.7376245707241063102e-08
1.7352165495206703698e-08
1.7328118891967647343e-08
1.7304105372734616065e-08
1.7280125457473366074e-08
1.7256178593635738367e-08
1.7232264762181080799e-08
1.7208384431086891097e-08
1.7184537017550151433e-08
1.7160722496523227365e-08
1.7136941338745572683e-08
1.7113192975690006605e-08
1.7089477321547002759e-08
1.7065794685433026306e-08
1.7042144983213922486e-08
1.701852820279500049e-08
1.6994943800872225161e-08
1.6971392276638127762e-08
1.6947873572884655591e-08
1.6924387113363062284e-08
1.6900933398002470203e-08
1.6877512353036669251e-08
1.6854123477676414814e-08
1.6830767332014292405e-08
1.6807443433054642134e-08
1.6784151842636460893e-08
1.6760892490002715776e-08
1.6737665177649265397e-08
1.6714470291871050625e-08
1.6691307744608517867e-08
1.6668176958450152972e-08
1.6645078343840236267e-08
1.6622011850383027161e-08
1.659897746436010908e-08
1.6575974711315889551e-08
1.6553004114599726935e-08
1.653006504240885252e-08
1.6507157881240823408e-08
1.6484282573645252758e-08
1.6461439132243189565e-08
1.6438626977394804294e-08
1.6415846628333907504e-08
1.6393098051102346151e-08
1.6370380631173177436e-08
1.6347694887958674479e-08
1.6325040771226057886e-08
1.630241773556164445e-08
1.6279826399464137622e-08
1.6257266207492377072e-08
1.6234737034458929837e-08
1.621223929849873174e-08
1.6189773013973352135e-08
1.6167337648273304521e-08
1.6144933174169222576e-08
1.6122560142762083043e-08
1.6100217959204373915e-08
1.6077906485224147244e-08
1.6055626166679343408e-08
1.6033376927485651435e-08
1.6011158213156659401e-08
1.5988970592693267808e-08
1.5966813373987982197e-08
1.5944687059232138173e-08
1.5922591609602331324e-08
1.5900526468376002597e-08
1.587849219535083769e-08
1.58564881613487219e-08
1.5834514990191567014e-08
1.5812572091035908189e-08
1.5790659393276877354e-08
1.5768777452450896268e-08
1.5746925734565022167e-08
1.572510420993359575e-08
1.5703312753511442576e-08
1.5681551894870390472e-08
1.5659821091376830861e-08
1.5638120314014492081e-08
1.5616449431763153181e-08
1.5594809001192401048e-08
1.5573198405782161491e-08
1.5551617487999748128e-08
1.5530066713482088278e-08
1.5508546029499868886e-08
1.5487054838675586484e-08
1.5465593734662539196e-08
1.5444162077822337756e-08
1.5422760433114708325e-08
1.5401388149377295674e-08
1.5380045816559974664e-08
1.5358732696260426876e-08
1.5337449289602104363e-08
1.5316195656218472495e-08
1.5294971324197304118e-08
1.5273776327390300745e-08
1.5252610463953239978e-08
1.5231474154113652536e-08
1.521036744417679478e-08
1.5189289764847081463e-08
1.5168241071099572991e-08
1.514722191425641766e-08
1.5126231564279131983e-08
1.5105270695014285189e-08
1.50843387150745478e-08
1.5063435453557092984e-08
1.5042561395564098631e-08
1.5021716515838455077e-08
1.5000900147897839811e-08
1.4980113019444192628e-08
1.4959354519803938671e-08
1.4938624558408205786e-08
1.4917923701768051053e-08
1.4897251218272696001e-08
1.4876607739026335464e-08
1.4855992486182866112e-08
1.4835405973728413414e-08
1.4814848307325432357e-08
1.4794318912687215903e-08
1.4773817703510137885e-08
1.475334535425619818e-08
1.4732901208952428775e-08
1.4712485135058303692e-08
1.4692097806600383353e-08
1.4671738561973453423e-08
1.4651407288166917403e-08
1.4631104584088991373e-08
1.4610829672863188156e-08
1.4590583251266415262e-08
1.4570364774688979261e-08
1.4550174228047110989e-08
1.453001145634832955e-08
1.4509877034651831067e-08
1.4489770164592110942e-08
1.4469691576028554824e-08
1.4449640640890148197e-08
1.4429617219225308213e-08
1.4409621990626663858e-08
1.4389654362625853237e-08
1.436971433781849301e-08
1.4349801677010696086e-08
1.4329916832136112269e-08
1.4310059889051074771e-08
1.4290230248501888912e-08
1.4270427795705601306e-08
1.4250653256029025839e-08
1.4230905957392715769e-08
1.4211185740337194864e-08
1.4191493305250621157e-08
1.4171828053381489588e-08
1.415218996698909047e-08
1.4132578870514666965e-08
1.4112995379504519704e-08
1.4093438677389456447e-08
1.4073909453167217573e-08
1.4054406932031631518e-08
1.4034931814928366123e-08
1.4015483323499799496e-08
1.3996062166024868282e-08
1.3976667539965788724e-08
1.395730020722582656e-08
1.3937959595636608202e-08
1.3918645717049355424e-08
1.3899358334046622639e-08
1.3880097870917892027e-08
1.3860864187199097684e-08
1.3841657467220196324e-08
1.3822477141169726546e-08
1.3803323074264176114e-08
1.3784196042723029114e-08
1.3765095357876227806e-08
1.3746020845659753878e-08
1.3726973230389786035e-08
1.3707951591140664543e-08
1.3688956490923010032e-08
1.3669988048448873874e-08
1.3651045414442660045e-08
1.3632129182160567034e-08
1.3613239531388702868e-08
1.3594375841204051575e-08
1.3575537977804148706e-08
1.355672667642004118e-08
1.3537941042561505976e-08
1.3519181896545488858e-08
1.3500448582181526251e-08
1.3481740913797719716e-08
1.3463059650049049667e-08
1.344440384678489124e-08
1.3425774057671215616e-08
1.340717044343659261e-08
1.3388592437958074977e-08
1.3370040105190374203e-08
1.3351513170141400114e-08
1.3333012144236619823e-08
1.3314537121204700681e-08
1.3296087222670438213e-08
1.3277663019231677884e-08
1.325926442200570228e-08
1.3240891652353552465e-08
1.3222544124045411439e-08
1.3204221963222497734e-08
1.3185919834908175598e-08
1.3167720495619146686e-08
1.3148749061679984862e-08
1.313537403957131624e-08
3.459930923465634604e-07
1.3097994347023412976e-07
4.8933573536800340337e-08
2.8969370725252318876e-08
2.6832247199436118626e-08
2.6676685388053331729e-08
2.6634699663398401228e-08
2.6597612724300139413e-08
2.6560744773103312603e-08
2.6523932662851864493e-08
2.6487171531538104756e-08
2.6450461451871162913e-08
2.6413802265342398575e-08
2.6377193991215124363e-08
2.6340636435579629528e-08
2.630412947185246162e-08
2.6267673277771004121e-08
2.6231267456177353535e-08
2.6194912015554220574e-08
2.6158607155879373995e-08
2.6122352702638116059e-08
2.6086148417260688951e-08
2.6049994214076433382e-08
2.6013890143965682124e-08
2.5977836307136320587e-08
2.5941832284315391094e-08
2.5905878095553821178e-08
2.5869973843727785689e-08
2.5834119459988110716e-08
2.5798314845375738507e-08
2.5762559770859250008e-08
2.5726854169095476035e-08
2.5691197985677541547e-08
2.5655591430402653194e-08
2.5620034244746432615e-08
2.55845261637307589e-08
2.5549067488815184065e-08
2.5513657963490583257e-08
2.5478297440102004366e-08
2.5442986006059422666e-08
2.5407723452408677445e-08
2.5372509854878845306e-08
2.5337345000762277998e-08
2.5302228969743365114e-08
2.5267161530474681144e-08
2.5232142883587788477e-08
2.5197172598949370772e-08
2.5162250780413045814e-08
2.512737755491257704e-08
2.5092552594267646382e-08
2.5057775804329473037e-08
2.5023047226697985788e-08
2.4988366978133301516e-08
2.4953734725329411316e-08
2.4919150390019802498e-08
2.4884613909303884501e-08
2.4850125509674624516e-08
2.4815684927053225632e-08
2.4781291974474985521e-08
2.4746946885532919915e-08
2.4712649223424532389e-08
2.4678399086420398419e-08
2.4644196635371244198e-08
2.4610041414618921755e-08
2.4575933520040714974e-08
2.4541873115058114895e-08
2.4507859757353057561e-08
2.4473893440435559986e-08
2.4439974413344849488e-08
2.4406102434365109215e-08
2.4372277203197715291e-08
2.4338499032839410659e-08
2.4304767803302181458e-08
2.4271083129140647634e-08
2.4237445136480182246e-08
2.4203853901465182664e-08
2.4170309039231740407e-08
2.4136810867582626967e-08
2.4103359147917545021e-08
2.4069953688935823968e-08
2.4036594633087864987e-08
2.400328172600533959e-08
2.397001509691517425e-08
2.3936794485877601858e-08
2.3903620041910500169e-08
2.3870491385927976098e-08
2.3837408844315647026e-08
2.3804372183449352214e-08
2.37713812001844123e-08
2.3738436065929054851e-08
2.3705536413377583524e-08
2.367268247196232204e-08
2.3639874082509709144e-08
2.3607111247481010824e-08
2.3574393935669766443e-08
2.3541721767865499594e-08
2.3509094867076902445e-08
2.3476513321492763976e-08
2.3443976838040369344e-08
2.3411485566709728736e-08
2.3379039229236430439e-08
2.3346637980067069083e-08
2.331428153858626654e-08
2.3281970062329634102e-08
2.3249703266478180883e-08
2.3217481329155232983e-08
2.3185303846693160775e-08
2.3153171160819260754e-08
2.3121083066507451105e-08
2.3089039219859238427e-08
2.3057039982925839509e-08
2.3025085154070985156e-08
2.2993174386134942994e-08
2.2961308045054809261e-08
2.2929485913010787469e-08
2.2897707757146257771e-08
2.2865973770969794642e-08
2.283428365756418598e-08
2.2802637595088799798e-08
2.2771035282192904656e-08
2.2739476901306585527e-08
2.2707962130239949798e-08
2.2676491271272847954e-08
2.2645063847656706467e-08
2.2613679934475857666e-08
2.2582339774866837501e-08
2.2551042871243208291e-08
2.2519789295407456668e-08
2.2488579294594269119e-08
2.2457412368952764644e-08
2.2426288589116193533e-08
2.2395208206425724176e-08
2.2364170717632576436e-08
2.2333176210368466237e-08
2.2302224822215658183e-08
2.2271316210620962259e-08
2.2240450595628877213e-08
2.2209627536178772733e-08
2.2178847399700213803e-08
2.2148109982642961024e-08
2.211741500210606675e-08
2.2086762806775481072e-08
2.205615290983899893e-08
2.2025585378238898078e-08
2.1995060481639578688e-08
2.1964577709153300605e-08
2.1934137124015159611e-08
2.190373900002119731e-08
2.1873382822678645072e-08
2.1843068672818010787e-08
2.1812796710689782e-08
2.1782566573760624666e-08
2.1752378488444202515e-08
2.1722232090800024858e-08
2.1692127726793848414e-08
2.1662064916498562198e-08
2.1632043623500008052e-08
2.160206416689172318e-08
2.1572126333835229136e-08
2.154222981390852491e-08
2.1512374984169759648e-08
2.1482561345786338152e-08
2.1452788956609647882e-08
2.1423058113494988126e-08
2.1393368292334750526e-08
2.1363719548405315914e-08
2.1334112163620894797e-08
2.1304545726822135678e-08
2.1275020169211513805e-08
2.124553548105556844e-08
2.1216091946209764022e-08
2.1186689050607475523e-08
2.1157326750268495772e-08
2.1128005356919987747e-08
2.1098724782371819126e-08
2.1069484577824760712e-08
2.1040284817275925106e-08
2.1011125800856359318e-08
2.0982007107881144763e-08
2.0952928689439971943e-08
2.092389043636592105e-08
2.089489264493538737e-08
2.0865935228593611045e-08
2.0837017730175714767e-08
2.0808140316950691157e-08
2.0779300739644885966e-08
2.075055216563779026e-08
2.0721055381417832745e-08
2.0699713477910376392e-08
1.9599882895721730095e-08
1.9620764595280337585e-08
1.9603370963987351388e-08
1.9576591484246610943e-08
1.9549266834664781247e-08
1.9522168895371246466e-08
1.9495113946085777331e-08
1.9468096883588431061e-08
1.9441117077858583029e-08
1.941417487723209733e-08
1.938726982050642956e-08
1.9360402268372024844e-08
1.9333571735750131051e-08
1.9306778697253465263e-08
1.9280022601451233974e-08
1.9253303460007133807e-08
1.9226621690482517007e-08
1.9199976710981561194e-08
1.9173368547432566922e-08
1.9146797528563363106e-08
1.9120263062536475196e-08
1.9093765489280161263e-08
1.90673047544447243e-08
1.9040880812335694801e-08
1.9014493159522673543e-08
1.8988142280970106223e-08
1.8961828075302816623e-08
1.8935550008095974436e-08
1.8909308563474685194e-08
1.8883103642290403918e-08
1.8856934707651912415e-08
1.8830802226634323845e-08
1.8804706192512570494e-08
1.8778646101136347924e-08
1.8752621998041131602e-08
1.872663424634193229e-08
1.8700682208870609891e-08
1.8674766346107977178e-08
1.8648886563114071636e-08
1.8623042306644512881e-08
1.859723407329322112e-08
1.8571461753207060746e-08
1.8545724896900328681e-08
1.8520023947855259567e-08
1.8494358374003217294e-08
1.8468728701712306237e-08
1.8443134356882557036e-08
1.8417575349845816191e-08
1.8392052042644234594e-08
1.8366563884359364483e-08
1.8341111296726382432e-08
1.8315693754302514622e-08
1.8290311685881322734e-08
1.8264964563175315809e-08
1.8239652818700245859e-08
1.8214375918585391021e-08
1.8189134320463402547e-08
1.816392738523633128e-08