/*--------------------------------*- C++ -*----------------------------------*\
  =========                 |
  \\      /  F ield         | OpenFOAM: The Open Source CFD Toolbox
   \\    /   O peration     | Website:  https://openfoam.org
    \\  /    A nd           | Version:  12
     \\/     M anipulation  |
\*---------------------------------------------------------------------------*/
FoamFile
{
    format      ascii;
    class       volScalarField;
    location    "1e-05";
    object      p;
}
// * * * * * * * * * * * * * * * * * * * * * * * * * * * * * * * * * * * * * //

dimensions      [1 -1 -2 0 0 0 0];

internalField   nonuniform List<scalar> 
75962
(
100103.24849853616615
100168.86737524010823
100075.26893800421385
100017.75465531852387
100002.8875466305617
100000.29708968267369
100000.01422706888115
99999.997046664095251
99999.9968523686548
99999.996980849173269
99999.996998988921405
99999.996999966970179
99999.996999981754925
99999.996999983341084
99999.996999986688024
99999.996999989729375
99999.996999995157239
99999.996999998751562
99999.997000002316781
99999.997000007424504
99999.997000012444914
99999.997000015486265
99999.997000019982806
99999.99700002380996
99999.997000028190087
99999.997000032803044
99999.997000036688405
99999.997000040268176
99999.997000044633751
99999.997000049843336
99999.997000054194359
99999.997000058559934
99999.997000061659492
99999.997000065806787
99999.997000070681679
99999.997000075280084
99999.997000078583369
99999.997000083443709
99999.997000088216737
99999.997000091621885
99999.997000096103875
99999.997000100309378
99999.997000105096959
99999.997000109506189
99999.997000114031835
99999.997000118091819
99999.997000122180907
99999.997000126895728
99999.997000130679226
99999.997000135277631
99999.99700014013797
99999.997000143353944
99999.997000148097868
99999.997000153671252
99999.997000157571165
99999.997000160554308
99999.997000165312784
99999.997000170304091
99999.997000174800633
99999.997000178904273
99999.997000183371711
99999.997000187446247
99999.997000192728592
99999.997000197210582
99999.997000200950424
99999.99700020540331
99999.997000210409169
99999.997000214425498
99999.997000219213078
99999.997000223374926
99999.997000227580429
99999.997000232819119
99999.997000236849999
99999.997000240997295
99999.997000246017706
99999.997000250616111
99999.997000254006707
99999.99700025904167
99999.997000263814698
99999.997000268122065
99999.997000273258891
99999.997000277639017
99999.997000281233341
99999.997000286326511
99999.997000291303266
99999.997000295494217
99999.997000300296349
99999.997000305505935
99999.99700030918757
99999.997000313465833
99999.997000318631763
99999.997000322677195
99999.997000327552087
99999.997000332237803
99999.997000336778001
99999.997000341376406
99999.997000345974811
99999.997000350849703
99999.997000355186174
99999.997000359537196
99999.99700036473223
99999.997000369316083
99999.997000374045456
99999.997000378818484
99999.997000383198611
99999.997000387607841
99999.997000392642803
99999.997000397415832
99999.997000401403056
99999.997000406699954
99999.997000411240151
99999.997000416231458
99999.997000420873519
99999.99700042513723
99999.997000430113985
99999.997000434930669
99999.997000439558178
99999.997000444345758
99999.99700044914789
99999.997000453804503
99999.99700045886857
99999.997000463234144
99999.997000468007172
99999.997000472634682
99999.997000477829715
99999.997000482690055
99999.997000487273908
99999.997000491726794
99999.997000497125555
99999.997000501636649
99999.997000506235054
99999.997000511692022
99999.997000516479602
99999.99700052094704
99999.99700052512344
99999.997000530536752
99999.997000534945983
99999.997000540301087
99999.997000545816263
99999.997000550341909
99999.99700055453286
99999.99700055977155
99999.997000564748305
99999.997000570117962
99999.997000574279809
99999.99700057930022
99999.997000584568013
99999.997000589442905
99999.997000594245037
99999.997000598814338
99999.997000604140339
99999.99700060991745
99999.997000614297576
99999.997000618532184
99999.99700062359625
99999.997000629009563
99999.997000633666175
99999.997000638803001
99999.997000644609216
99999.99700064904755
99999.997000653951545
99999.997000658986508
99999.997000664079678
99999.997000669245608
99999.997000674062292
99999.997000679039047
99999.997000684117666
99999.997000689458218
99999.997000694158487
99999.997000699178898
99999.997000704417587
99999.997000709845452
99999.997000714531168
99999.997000719493371
99999.997000724542886
99999.997000729956198
99999.997000735282199
99999.997000740113435
99999.997000745323021
99999.997000750197913
99999.997000754490728
99999.997000756731723
99999.997000785107957
99999.997001038311282
99999.997001319294213
99999.996998379792785
99999.99699603242334
99999.997005439232453
99999.996998335525859
99999.997004094257136
99999.997001587486011
99999.996999436509213
99999.997000110597583
99999.997000750663574
99999.997000977615244
99999.99700103008945
99999.997001042036572
99999.997001047813683
99999.99700105341617
99999.997001059091417
99999.99700106443197
99999.997001069583348
99999.997001075433218
99999.997001081181224
99999.997001085939701
99999.997001092342543
99999.997001098119654
99999.997001103009097
99999.997001108436962
99999.997001114315935
99999.997001120485947
99999.997001125651877
99999.99700113144354
99999.997001136493054
99999.997001142051886
99999.997001148440177
99999.997001154115424
99999.997001159499632
99999.997001164461835
99999.997001169875148
99999.997001176583581
99999.997001181996893
99999.997001187919523
99999.997001193609321
99999.99700119868794
99999.997001204668777
99999.997001210038434
99999.99700121654314
99999.997001221781829
99999.997001227951841
99999.997001233437913
99999.997001238734811
99999.997001244584681
99999.997001250565518
99999.997001256720978
99999.997001261930563
99999.997001267882297
99999.997001273819478
99999.997001279130927
99999.997001284966245
99999.997001290859771
99999.997001296651433
99999.997001302472199
99999.997001308656763
99999.997001314259251
99999.997001319701667
99999.997001325711608
99999.997001332507352
99999.997001337644178
99999.997001343217562
99999.997001349474886
99999.997001355310204
99999.99700136113097
99999.99700136660249
99999.997001372845261
99999.997001378666027
99999.997001384748728
99999.997001390263904
99999.997001396419364
99999.99700140261848
99999.997001408322831
99999.997001414347324
99999.99700142009533
99999.997001426585484
99999.99700143247901
99999.997001438547159
99999.997001444469788
99999.997001450159587
99999.997001456373255
99999.997001462179469
99999.997001468858798
99999.997001474403078
99999.997001480558538
99999.997001486961381
99999.997001492709387
99999.99700149835553
99999.99700150427816
99999.997001510782866
99999.997001516763703
99999.997001523006475
99999.997001529292902
99999.997001535215531
99999.997001541123609
99999.997001547453692
99999.997001553943846
99999.997001559648197
99999.997001565832761
99999.997001572235604
99999.997001577503397
99999.997001584313693
99999.997001590571017
99999.99700159621716
99999.997001602605451
99999.997001609226572
99999.997001615032787
99999.99700162136287
99999.997001627765712
99999.997001633557375
99999.997001640178496
99999.997001645853743
99999.997001652707695
99999.997001658644876
99999.997001665164134
99999.997001671552425
99999.997001677402295
99999.997001683805138
99999.997001689785975
99999.997001696581719
99999.997001702795387
99999.997001708732569
99999.997001714989892
99999.997001722047571
99999.997001728246687
99999.99700173427118
99999.997001741154236
99999.997001746902242
99999.997001753785298
99999.997001760100829
99999.997001765761524
99999.997001772804651
99999.997001778654521
99999.997001785843167
99999.997001791954972
99999.997001798357815
99999.997001805051696
99999.997001811250811
99999.997001818104764
99999.997001824129256
99999.997001830619411
99999.997001837327844
99999.997001843614271
99999.997001850264496
99999.997001856245333
99999.997001863695914
99999.997001869502128
99999.997001876603463
99999.997001882686163
99999.997001889190869
99999.997001895477297
99999.997001902331249
99999.997001908544917
99999.997001915588044
99999.997001922558411
99999.997001927986275
99999.997001935756998
99999.997001941635972
99999.997001948679099
99999.997001955125597
99999.997001961630303
99999.997001968455152
99999.997001974741579
99999.997001981930225
99999.997001987983822
99999.99700199525978
99999.99700200141524
99999.997002007992705
99999.997002015385078
99999.997002021598746
99999.997002027870622
99999.997002035670448
99999.997002041855012
99999.99700204799592
99999.997002055402845
99999.997002061863896
99999.997002068397705
99999.997002075891942
99999.997002081974642
99999.997002089148737
99999.997002096017241
99999.997002102798433
99999.997002109565074
99999.997002116346266
99999.99700212328753
99999.997002129864995
99999.997002136820811
99999.997002143893042
99999.997002150485059
99999.997002156917006
99999.997002164920559
99999.997002170959604
99999.997002177915419
99999.997002185366
99999.997002192074433
99999.997002198782866
99999.997002205476747
99999.997002213232918
99999.997002219446586
99999.997002227362827
99999.997002233038074
99999.997002241012524
99999.997002247095224
99999.997002253992832
99999.997002261006855
99999.997002268908545
99999.997002275136765
99999.997002282427275
99999.997002289645025
99999.997002296557184
99999.997002303905901
99999.997002310396056
99999.997002317380975
99999.997002324525965
99999.997002332122065
99999.997002338524908
99999.997002345888177
99999.997002353309654
99999.997002360381885
99999.997002366842935
99999.9970023741771
99999.997002381802304
99999.997002388889086
99999.997002396397875
99999.997002403077204
99999.997002410236746
99999.997002416901523
99999.997002424366656
99999.997002431569854
99999.997002438845811
99999.997002446572878
99999.997002453063033
99999.997002460819203
99999.997002467673155
99999.997002475021873
99999.997002482414246
99999.997002489355509
99999.997002497271751
99999.997002503674594
99999.99700251124159
99999.997002519434318
99999.997002525444259
99999.997002533462364
99999.997002540767426
99999.997002547301236
99999.997002552772756
99999.997002567499294
99999.997002712989342
99999.997003085329197
99999.997001855750568
99999.996996353496797
99999.99699853041966
99999.997008801627089
99999.996998327798792
100107.58185506539303
99842.897299050848233
99902.559115843847394
99975.460166178425425
99996.093782822252251
99999.622629326710012
99999.981207811812055
99999.997715246587177
99999.997224439241108
99999.99702108130441
99999.997000378993107
99999.996999739363673
99999.996999772221898
99999.996999782175408
99999.9969997855369
99999.996999790266273
99999.996999794617295
99999.996999798342586
99999.996999802373466
99999.996999806870008
99999.996999810828129
99999.99699981509184
99999.996999820330529
99999.996999823153601
99999.996999827897525
99999.996999832277652
99999.996999836206669
99999.996999840033823
99999.99699984426843
99999.996999849536223
99999.996999853174202
99999.996999857976334
99999.996999861861696
99999.996999865121325
99999.996999869879801
99999.996999874099856
99999.996999878771021
99999.996999883180251
99999.996999886701815
99999.996999891460291
99999.996999895563931
99999.99699989981309
99999.996999904717086
99999.996999909126316
99999.996999913128093
99999.996999917464564
99999.996999921684619
99999.996999926181161
99999.996999930997845
99999.996999935014173
99999.996999939059606
99999.996999942872208
99999.996999947426957
99999.996999953189516
99999.996999956973013
99999.99699996128038
99999.996999964918359
99999.996999970433535
99999.996999974522623
99999.996999979077373
99999.996999982948182
99999.996999986877199
99999.996999992159544
99999.996999997048988
99999.997000000599655
99999.997000004805159
99999.997000010014744
99999.997000013769139
99999.997000018804101
99999.997000023111468
99999.997000027564354
99999.997000031726202
99999.997000036441023
99999.997000040952116
99999.997000045550521
99999.997000050105271
99999.997000054325326
99999.99700005921477
99999.997000063682208
99999.997000067931367
99999.997000072544324
99999.997000077317352
99999.997000081144506
99999.99700008603395
99999.997000090879737
99999.997000095550902
99999.997000099552679
99999.997000104587642
99999.997000109200599
99999.997000112984097
99999.997000117960852
99999.997000122748432
99999.997000127317733
99999.997000131595996
99999.997000137052964
99999.997000141214812
99999.997000145667698
99999.997000150717213
99999.997000155155547
99999.997000159171876
99999.997000163974008
99999.997000169343664
99999.99700017356372
99999.997000178147573
99999.997000182716874
99999.997000187533558
99999.99700019240845
99999.997000196686713
99999.997000201168703
99999.997000206363737
99999.997000210743863
99999.997000215618755
99999.99700022028992
99999.997000224815565
99999.997000229675905
99999.997000234245206
99999.997000239251065
99999.997000243893126
99999.997000248753466
99999.997000253468286
99999.997000258459593
99999.997000263290829
99999.997000267641852
99999.997000272225705
99999.997000277289771
99999.997000282441149
99999.99700028715597
99999.997000291550648
99999.997000296818442
99999.997000301460503
99999.997000305898837
99999.997000311152078
99999.997000316303456
99999.997000321061932
99999.99700032552937
99999.997000330200535
99999.997000335293706
99999.997000339790247
99999.997000345247216
99999.997000350413145
99999.99700035447313
99999.997000359362573
99999.997000364528503
99999.997000369461603
99999.997000374176423
99999.997000379342353
99999.99700038402807
99999.997000389194
99999.997000393879716
99999.997000398943783
99999.997000403847778
99999.997000409362954
99999.997000413743081
99999.997000417773961
99999.997000423813006
99999.99700042893528
99999.997000433388166
99999.99700043851044
99999.997000444258447
99999.997000448740437
99999.99700045400823
99999.997000458781258
99999.997000463597942
99999.997000468589249
99999.997000473813387
99999.997000478644622
99999.997000483854208
99999.997000489442144
99999.997000493967789
99999.997000498769921
99999.997000503746676
99999.997000509451027
99999.997000514136744
99999.997000519229914
99999.997000524279429
99999.997000530158402
99999.997000534509425
99999.997000539995497
99999.997000545219635
99999.997000550109078
99999.997000554954866
99999.997000558956643
99999.997000564326299
99999.997000613919226
99999.997000897594262
99999.99700096451852
99999.996997771406313
99999.996996021553059
99999.997005121229449
99999.996997479800484
99999.997004216609639
99999.997001603187528
99999.996998956601601
99999.996999644645257
99999.997000437710085
99999.997000742587261
99999.997000819217646
99999.997000835981453
99999.997000842224224
99999.997000847943127
99999.997000853749341
99999.997000858391402
99999.997000864153961
99999.997000869800104
99999.997000875519007
99999.997000880903215
99999.997000886520254
99999.997000891598873
99999.997000898016267
99999.997000903153094
99999.997000908537302
99999.997000914299861
99999.997000920251594
99999.997000925446628
99999.997000931092771
99999.997000936491531
99999.997000942123123
99999.997000948176719
99999.997000954375835
99999.997000959265279
99999.997000964649487
99999.997000970353838
99999.997000975985429
99999.997000982228201
99999.997000988092623
99999.997000993156689
99999.997000998671865
99999.99700100440532
99999.997001009891392
99999.997001016308786
99999.997001021969481
99999.99700102697534
99999.997001033683773
99999.997001038544113
99999.997001044728677
99999.997001050389372
99999.997001056239242
99999.997001061798073
99999.997001068055397
99999.997001073614229
99999.997001079391339
99999.99700108495017
99999.997001090727281
99999.997001096548047
99999.997001102790819
99999.997001108597033
99999.997001114330487
99999.997001119525521
99999.997001125855604
99999.997001131938305
99999.997001137176994
99999.997001143696252
99999.997001149633434
99999.997001155512407
99999.997001161027583
99999.997001166644623
99999.997001173120225
99999.997001178940991
99999.997001185052795
99999.997001190655283
99999.997001196723431
99999.997001202369574
99999.997001208059373
99999.997001214651391
99999.997001219948288
99999.997001226642169
99999.997001232753973
99999.997001238560188
99999.997001244439161
99999.997001250056201
99999.997001256386284
99999.997001262323465
99999.997001268551685
99999.997001273863134
99999.997001280717086
99999.997001286683371
99999.997001292766072
99999.997001298645046
99999.997001304611331
99999.997001310257474
99999.997001316907699
99999.997001323034056
99999.997001329233171
99999.997001335141249
99999.997001341587747
99999.997001347437617
99999.997001354044187
99999.997001359370188
99999.997001365816686
99999.997001371797523
99999.997001378098503
99999.997001384588657
99999.997001390787773
99999.997001396754058
99999.997001402676688
99999.997001408963115
99999.997001415322302
99999.997001421419554
99999.997001427575015
99999.997001434123376
99999.997001439856831
99999.997001446143258
99999.997001452735276
99999.997001459094463
99999.997001465235371
99999.997001471419935
99999.99700147783733
99999.997001483439817
99999.997001490439288
99999.997001496347366
99999.997001502677449
99999.997001508832909
99999.997001515584998
99999.997001521944185
99999.997001528274268
99999.997001534356968
99999.997001540803467
99999.997001547380933
99999.997001553812879
99999.997001560113858
99999.997001566822291
99999.997001573079615
99999.997001579162315
99999.997001585754333
99999.997001591895241
99999.997001598370844
99999.997001605137484
99999.997001611467567
99999.997001617884962
99999.997001624360564
99999.997001630661543
99999.997001637326321
99999.997001643612748
99999.997001650306629
99999.997001656680368
99999.997001663214178
99999.997001669325982
99999.997001676427317
99999.997001683048438
99999.997001689087483
99999.997001695810468
99999.997001701951376
99999.997001709009055
99999.997001715833903
99999.997001721989363
99999.997001728479518
99999.997001735580852
99999.997001741896383
99999.997001748590264
99999.997001754964003
99999.997001761861611
99999.997001768599148
99999.997001774740056
99999.997001782016014
99999.997001788127818
99999.997001795272809
99999.997001802068553
99999.997001808311325
99999.997001814874238
99999.997001821684535
99999.997001828203793
99999.99700183547975
99999.997001842028112
99999.997001848882064
99999.997001855430426
99999.997001862197067
99999.997001868745429
99999.9970018757449
99999.997001882380573
99999.997001889190869
99999.997001895870198
99999.99700190279691
99999.997001909927349
99999.99700191647571
99999.997001923213247
99999.997001930038095
99999.997001937197638
99999.997001944022486
99999.997001951211132
99999.997001957133762
99999.997001964657102
99999.997001971540158
99999.997001978132175
99999.997001985058887
99999.997001992087462
99999.997001999072381
99999.997002005475224
99999.997002012751182
99999.997002020274522
99999.997002026546397
99999.997002033982426
99999.99700204009423
99999.997002047806745
99999.997002054486074
99999.99700206144189
99999.997002068412257
99999.997002075702767
99999.997002082687686
99999.99700208955619
99999.997002096351935
99999.997002103787963
99999.997002111034817
99999.997002118019736
99999.997002124815481
99999.997002132207854
99999.997002138974494
99999.997002145886654
99999.997002152958885
99999.9970021606714
99999.997002167685423
99999.997002174524823
99999.997002182048163
99999.997002189353225
99999.997002196279936
99999.997002203046577
99999.997002210584469
99999.997002217176487
99999.997002224845346
99999.997002232208615
99999.997002239251742
99999.997002246382181
99999.997002253920073
99999.997002260904992
99999.997002268137294
99999.997002275384148
99999.997002283271286
99999.997002289266675
99999.997002297619474
99999.997002304211492
99999.997002311909455
99999.997002319636522
99999.997002325952053
99999.997002333504497
99999.997002341478947
99999.99700234780903
99999.997002352989512
99999.997002367497771
99999.997002516698558
99999.997002911244635
99999.997001648385776
99999.99699568421056
99999.996997374561033
99999.997008901482332
99999.99699840330868
100209.39084683568217
100232.24814794941631
100056.01226718669932
100006.10969926751568
100000.21181886593695
99999.925945766022778
99999.984935167056392
99999.99613104944001
99999.996985563673661
99999.997005972414627
99999.99700061888143
99999.99699988818611
99999.996999853698071
99999.996999857467017
99999.996999862079974
99999.99699986554333
99999.996999870665604
99999.996999874769244
99999.996999878654606
99999.996999882379896
99999.996999887007405
99999.996999891212909
99999.996999896335183
99999.996999899842194
99999.996999903698452
99999.996999908413272
99999.996999912371393
99999.996999916256755
99999.996999920069356
99999.99699992533715
99999.996999929120648
99999.996999933908228
99999.996999937764485
99999.996999941606191
99999.996999946641154
99999.996999950220925
99999.996999954717467
99999.996999959868845
99999.996999963215785
99999.99699996781419
99999.996999971772311
99999.996999976312509
99999.996999981274712
99999.996999985800358
99999.996999988885364
99999.996999993090867
99999.996999998722458
99999.99700000192388
99999.997000006420421
99999.997000011455384
99999.997000015486265
99999.99700001932797
99999.997000023300643
99999.997000029135961
99999.997000033530639
99999.99700003756152
99999.997000041199499
99999.997000045652385
99999.997000050017959
99999.997000054980163
99999.997000059200218
99999.99700006369676
99999.997000067989575
99999.997000072908122
99999.997000076458789
99999.997000080882572
99999.997000086150365
99999.997000090588699
99999.997000095128897
99999.997000099290744
99999.99700010343804
99999.997000107730855
99999.997000112285605
99999.997000117233256
99999.99700012204994
99999.997000126168132
99999.997000129966182
99999.997000134899281
99999.997000139162992
99999.997000143994228
99999.997000148563529
99999.997000152812689
99999.997000158298761
99999.997000162300537
99999.9970001665788
99999.99700017106079
99999.997000175702851
99999.997000180635951
99999.997000185176148
99999.997000189410755
99999.997000194343855
99999.997000198432943
99999.997000203540665
99999.997000207731617
99999.997000212562853
99999.997000217117602
99999.997000221788767
99999.997000226780074
99999.997000230810954
99999.997000235409359
99999.997000240444322
99999.997000245537492
99999.997000249612029
99999.997000253672013
99999.997000258692424
99999.997000263771042
99999.997000268776901
99999.997000272953301
99999.997000277639017
99999.997000281975488
99999.997000286981347
99999.997000292409211
99999.997000296236365
99999.997000301344087
99999.997000306204427
99999.997000310351723
99999.997000315197511
99999.997000320159714
99999.997000325151021
99999.997000329982257
99999.997000334537006
99999.997000339310034
99999.997000343733816
99999.99700034869602
99999.997000353279873
99999.997000358445803
99999.997000363175175
99999.997000367511646
99999.997000373463379
99999.997000378265511
99999.997000382063561
99999.997000386851141
99999.997000392031623
99999.99700039664458
99999.997000401592231
99999.997000406234292
99999.997000411633053
99999.997000416435185
99999.997000421397388
99999.997000426054001
99999.997000430448679
99999.997000435658265
99999.997000440460397
99999.997000445175217
99999.997000450079213
99999.997000455492525
99999.997000460381969
99999.997000465373276
99999.997000470160856
99999.997000474715605
99999.997000479968847
99999.997000485425815
99999.997000490053324
99999.997000494491658
99999.997000499279238
99999.997000505172764
99999.997000510120415
99999.997000514369574
99999.997000519462745
99999.997000524948817
99999.997000529925572
99999.997000534945983
99999.997000539471628
99999.997000545234187
99999.997000550109078
99999.997000554867554
99999.997000559713342
99999.997000565461349
99999.997000570365344
99999.997000575080165
99999.997000579998712
99999.997000585382921
99999.99700059062161
99999.997000595540158
99999.997000601084437
99999.997000606337679
99999.997000610499526
99999.997000615665456
99999.997000621224288
99999.997000626419322
99999.997000631163246
99999.997000635543372
99999.997000637798919
99999.99700067518279
99999.997001003881451
99999.997001324998564
99999.996997600435861
99999.996994834189536
99999.997005142198759
99999.996997003559954
99999.997004018368898
99999.997001183815883
99999.996998613554752
99999.996999610637431
99999.997000511270016
99999.997000826522708
99999.997000897419639
99999.99700091201521
99999.997000918447156
99999.997000923453015
99999.997000929390197
99999.997000934832613
99999.997000940493308
99999.997000946314074
99999.997000951480004
99999.997000957038836
99999.997000962408492
99999.997000967967324
99999.99700097386085
99999.997000979492441
99999.997000984338229
99999.997000990304514
99999.997000996241695
99999.997001001538592
99999.997001007301151
99999.9970010126126
99999.997001018346054
99999.997001024385099
99999.997001030002139
99999.997001035473659
99999.997001040770556
99999.997001046358491
99999.997001052252017
99999.997001057985472
99999.997001064242795
99999.997001069335965
99999.99700107506942
99999.997001080424525
99999.997001086419914
99999.997001091731363
99999.997001098279725
99999.997001103503862
99999.997001109397388
99999.997001114534214
99999.997001120704226
99999.997001126772375
99999.997001131763682
99999.997001138443011
99999.997001143856323
99999.997001149444259
99999.997001155032194
99999.997001160780201
99999.997001166455448
99999.997001172596356
99999.997001178460778
99999.997001184165129
99999.997001190131414
99999.997001195981284
99999.997001201947569
99999.997001207448193
99999.99700121373462
99999.997001219875528
99999.997001225172426
99999.997001231531613
99999.997001237250515
99999.997001242954866
99999.997001248877496
99999.997001255003852
99999.997001261028345
99999.997001267183805
99999.997001272684429
99999.997001278490643
99999.997001284515136
99999.997001290248591
99999.997001296418603
99999.997001302122953
99999.997001308787731
99999.997001314623049
99999.997001320516574
99999.997001326220925
99999.997001332216314
99999.997001338226255
99999.997001344672753
99999.997001350522623
99999.997001356343389
99999.997001362702576
99999.997001368610654
99999.997001374838874
99999.997001380805159
99999.997001386393094
99999.99700139297056
99999.997001398878638
99999.997001405427
99999.997001411597012
99999.997001416908461
99999.997001423456823
99999.997001429699594
99999.997001435753191
99999.997001441719476
99999.997001447962248
99999.997001454306883
99999.997001460491447
99999.997001466486836
99999.997001472918782
99999.997001478841412
99999.997001485389774
99999.997001491472474
99999.997001497351448
99999.997001503812498
99999.997001510302653
99999.997001515846932
99999.997001522511709
99999.997001528303372
99999.997001534648007
99999.997001541196369
99999.997001547424588
99999.997001554147573
99999.997001559560886
99999.997001566138351
99999.997001572482986
99999.997001578900381
99999.997001585055841
99999.997001591778826
99999.997001597846975
99999.99700160419161
99999.997001610448933
99999.997001616909984
99999.997001623371034
99999.997001629715669
99999.997001636365894
99999.997001642419491
99999.997001648953301
99999.997001655501663
99999.997001661453396
99999.997001668103621
99999.997001675001229
99999.997001680792891
99999.997001687646843
99999.997001693642233
99999.997001700627152
99999.997001706724404
99999.997001713272766
99999.99700171976292
99999.997001726689632
99999.997001732772333
99999.997001739277039
99999.997001745330635
99999.997001752490178
99999.997001758718397
99999.997001765368623
99999.9970017720334
99999.997001778305275
99999.99700178578496
99999.997001791343791
99999.997001798576093
99999.997001804833417
99999.997001811192604
99999.997001817973796
99999.997001824682229
99999.997001831114176
99999.99700183753157
99999.997001844647457
99999.997001850846573
99999.997001858355361
99999.997001864248887
99999.997001871131943
99999.997001877927687
99999.997001883748453
99999.99700189116993
99999.997001897849259
99999.997001905067009
99999.997001910945983
99999.997001918804017
99999.997001925090444
99999.997001931566047
99999.997001938230824
99999.997001945390366
99999.997001951312996
99999.997001958501642
99999.997001965442905
99999.997001972151338
99999.997001978845219
99999.997001985640964
99999.997001992291189
99999.997001999508939
99999.997002006261027
99999.997002012940357
99999.99700202018721
99999.997002026706468
99999.997002033589524
99999.997002040283405
99999.99700204738474
99999.997002054733457
99999.997002061005333
99999.997002068223082
99999.997002075091586
99999.997002081974642
99999.997002089236048
99999.997002095697098
99999.997002102594706
99999.997002110074391
99999.997002116360818
99999.997002123694983
99999.997002130854526
99999.997002137664822
99999.997002144387807
99999.997002152129426
99999.997002158765099
99999.997002165182494
99999.997002172895009
99999.997002179807168
99999.997002187010366
99999.997002193864319
99999.997002200921997
99999.997002207717742
99999.997002215372049
99999.9970022218331
99999.997002229152713
99999.997002236472326
99999.99700224303524
99999.997002251097001
99999.997002257907297
99999.997002264630282
99999.997002272095415
99999.997002279007575
99999.997002286370844
99999.997002293675905
99999.997002300748136
99999.997002307893126
99999.99700231551833
99999.997002322168555
99999.997002329677343
99999.997002336429432
99999.997002343952772
99999.997002351825358
99999.997002358388272
99999.997002365998924
99999.997002373318537
99999.997002380434424
99999.997002388219698
99999.997002394869924
99999.997002402145881
99999.9970024098875
99999.997002416814212
99999.997002424366656
99999.997002430987777
99999.997002436823095
99999.997002465082915
99999.997002644347958
99999.997002879943466
99999.997000866031158
99999.996994567482034
99999.996997575159185
99999.997008243386517
99999.9969983806659
99839.198521249549231
100008.00411262875423
100009.5582760268444
100000.00560163675982
99999.652280559050268
99999.908455089607742
99999.987205796482158
99999.996579780054162