/*--------------------------------*- C++ -*----------------------------------*\
  =========                 |
  \\      /  F ield         | OpenFOAM: The Open Source CFD Toolbox
   \\    /   O peration     | Website:  https://openfoam.org
    \\  /    A nd           | Version:  12
     \\/     M anipulation  |
\*---------------------------------------------------------------------------*/
FoamFile
{
    format      ascii;
    class       volScalarField;
    location    "1e-05";
    object      p_0;
}
// * * * * * * * * * * * * * * * * * * * * * * * * * * * * * * * * * * * * * //

dimensions      [1 -1 -2 0 0 0 0];

internalField   nonuniform List<scalar> 
75962
(
100105.65457926786621
100168.74376089828729
100073.08293653369765
100016.89173466198554
100002.69958742850577
100000.27070059791731
100000.01197979503195
99999.996958017189172
99999.99686055064376
99999.996982707103598
99999.996999126073206
99999.996999964903807
99999.996999974639039
99999.996999976443476
99999.996999979834072
99999.996999982889974
99999.996999988332391
99999.996999992014025
99999.996999995448277
99999.997000000599655
99999.997000005590962
99999.99700000869052
99999.997000013187062
99999.997000017072423
99999.997000021408894
99999.997000026065507
99999.997000029921765
99999.997000033516088
99999.997000037881662
99999.997000043164007
99999.99700004744227
99999.997000051895157
99999.997000054965611
99999.997000059112906
99999.997000063987798
99999.997000068615307
99999.99700007190404
99999.997000076749828
99999.997000081566512
99999.997000085015316
99999.997000089526409
99999.997000093688257
99999.997000098519493
99999.997000102885067
99999.997000107396161
99999.997000111470697
99999.997000115588889
99999.99700012030371
99999.99700012410176
99999.997000128656509
99999.997000133618712
99999.997000136747374
99999.997000141549506
99999.997000147108338
99999.997000151051907
99999.997000154035049
99999.997000158764422
99999.997000163813937
99999.99700016832503
99999.997000172385015
99999.997000176896108
99999.997000180956093
99999.99700018625299
99999.997000190764084
99999.997000194489374
99999.997000198927708
99999.997000204020878
99999.997000207964447
99999.997000212795683
99999.997000216986635
99999.997000221148483
99999.997000226459932
99999.997000230461708
99999.997000234623556
99999.997000239629415
99999.997000244286028
99999.997000247662072
99999.997000252697035
99999.997000257470063
99999.997000261733774
99999.99700026694336
99999.99700027135259
99999.997000274917809
99999.997000280040083
99999.997000285045942
99999.997000289222342
99999.997000294039026
99999.997000299219508
99999.997000302915694
99999.997000307208509
99999.997000312432647
99999.997000316463527
99999.997000321338419
99999.997000326053239
99999.997000330593437
99999.997000335206394
99999.997000339790247
99999.997000344708795
99999.997000349059817
99999.997000353367184
99999.997000358591322
99999.997000363233383
99999.997000367933651
99999.997000372677576
99999.997000377072254
99999.997000381510588
99999.997000386574655
99999.997000391347683
99999.997000395305804
99999.997000400646357
99999.997000405172003
99999.997000410236069
99999.997000414776267
99999.997000419156393
99999.9970004241477
99999.99700042893528
99999.997000433548237
99999.997000438379473
99999.997000443225261
99999.997000447809114
99999.997000452916836
99999.997000457326067
99999.997000462055439
99999.997000466726604
99999.99700047193619
99999.997000476825633
99999.997000481394934
99999.997000485833269
99999.997000491275685
99999.997000495757675
99999.997000500385184
99999.997000505871256
99999.997000510644284
99999.997000515140826
99999.997000519302674
99999.997000524701434
99999.997000529212528
99999.997000534509425
99999.997000540039153
99999.997000544623006
99999.997000548770302
99999.997000554023543
99999.997000558985746
99999.997000564413611
99999.997000568575459
99999.997000573581317
99999.997000578878215
99999.997000583738554
99999.997000588555238
99999.99700059312454
99999.997000598494196
99999.997000604285859
99999.997000608651433
99999.99700061288604
99999.997000617964659
99999.997000623421627
99999.997000628034584
99999.99700063317141
99999.997000639035832
99999.997000643532374
99999.997000648378162
99999.997000653442228
99999.99700065854995
99999.997000663744984
99999.997000668547116
99999.997000673509319
99999.997000678617042
99999.99700068400125
99999.997000688716071
99999.997000693736481
99999.997000698989723
99999.997000704432139
99999.997000709088752
99999.997000714065507
99999.997000719129574
99999.997000724542886
99999.997000729956198
99999.997000734772882
99999.997000740011572
99999.99700074485736
99999.997000749222934
99999.997000751434825
99999.997000777337234
99999.997001020470634
99999.997001334937522
99999.996998515853193
99999.99699585941562
99999.997005376775633
99999.996998298825929
99999.997004201199161
99999.997001442607143
99999.996999415016035
99999.997000133487745
99999.997000760791707
99999.997000977062271
99999.997001026131329
99999.997001037467271
99999.99700104308431
99999.997001048745005
99999.997001054463908
99999.997001059789909
99999.997001064970391
99999.997001070805709
99999.997001076539163
99999.997001081355847
99999.997001087773242
99999.9970010935358
99999.997001098483452
99999.997001103911316
99999.997001109746634
99999.997001115989406
99999.997001121155336
99999.99700112696155
99999.997001132040168
99999.997001137569896
99999.997001143972739
99999.997001149691641
99999.997001155090402
99999.997001160038053
99999.997001165495021
99999.997001172218006
99999.997001177616767
99999.997001183597604
99999.997001189243747
99999.997001194380573
99999.997001200346858
99999.997001205716515
99999.997001212250325
99999.997001217518118
99999.997001223731786
99999.997001229174202
99999.997001234485651
99999.997001240364625
99999.997001246374566
99999.997001252486371
99999.997001257739612
99999.997001263691345
99999.997001269686734
99999.997001275070943
99999.997001280862605
99999.997001286727027
99999.997001292518689
99999.997001298397663
99999.997001304553123
99999.997001310213818
99999.997001315641683
99999.997001321680727
99999.997001328549231
99999.99700133362785
99999.997001339273993
99999.997001345487661
99999.997001351366634
99999.997001357172849
99999.997001362688025
99999.9970013689599
99999.997001374766114
99999.997001380936126
99999.997001386407646
99999.997001392548555
99999.997001398776774
99999.997001404510229
99999.997001410549274
99999.997001416311832
99999.997001422816538
99999.997001428739168
99999.997001434792764
99999.99700144075905
99999.997001446492504
99999.997001452647964
99999.997001458556042
99999.997001465206267
99999.997001470735995
99999.997001476964215
99999.997001483323402
99999.997001489115064
99999.997001494761207
99999.99700150071294
99999.997001507217647
99999.997001513256691
99999.997001519514015
99999.997001525771338
99999.997001531693968
99999.997001537660253
99999.997001543946681
99999.997001550495042
99999.997001556213945
99999.997001562471269
99999.997001568830456
99999.997001574112801
99999.997001581024961
99999.997001587209525
99999.997001592855668
99999.997001599273062
99999.997001605981495
99999.997001611773157
99999.997001618059585
99999.997001624506083
99999.997001630355953
99999.997001636962523
99999.997001642681425
99999.99700164947717
99999.997001655501663
99999.997001661977265
99999.997001668365556
99999.997001674288185
99999.997001680720132
99999.997001686686417
99999.997001693540369
99999.997001699724933
99999.997001705734874
99999.997001711977646
99999.997001719049877
99999.997001725321752
99999.997001731288037
99999.997001738214749
99999.997001743948204
99999.997001750874915
99999.997001757190446
99999.997001762909349
99999.997001769937924
99999.997001775802346
99999.997001782961888
99999.997001789161004
99999.997001795534743
99999.99700180227228
99999.997001808471396
99999.997001815398107
99999.997001821408048
99999.997001827927306
99999.997001834635739
99999.997001840994926
99999.997001847586944
99999.997001853655092
99999.997001861091121
99999.997001866897335
99999.997001874042326
99999.997001880168682
99999.997001886717044
99999.99700189291616
99999.997001899842871
99999.997001906041987
99999.997001913085114
99999.997001920171897
99999.997001925599761
99999.997001933297724
99999.997001939293114
99999.997001946219825
99999.997001952840947
99999.997001959258341
99999.997001966170501
99999.997001972398721
99999.997001979660126
99999.997001985728275
99999.997001992989681
99999.997001999203349
99999.997002005780814
99999.997002013187739
99999.997002019459615
99999.997002025746042
99999.997002033487661
99999.997002039730432
99999.997002045958652
99999.997002053336473
99999.997002059826627
99999.997002066360437
99999.997002073796466
99999.997002079995582
99999.997002087213332
99999.997002094125492
99999.997002100833924
99999.997002107629669
99999.997002114396309
99999.997002121424885
99999.997002127958694
99999.997002134972718
99999.9970021420595
99999.997002148738829
99999.997002155112568
99999.997002163116122
99999.997002169198822
99999.997002176227397
99999.997002183648874
99999.997002190400963
99999.997002197080292
99999.997002203846932
99999.997002211661311
99999.997002217831323
99999.997002225805772
99999.997002231481019
99999.997002239484573
99999.997002245610929
99999.997002252479433
99999.997002259537112
99999.997002267482458
99999.997002273667022
99999.997002281044843
99999.997002288204385
99999.997002295189304
99999.997002302465262
99999.997002309086383
99999.997002316071303
99999.997002323230845
99999.9970023308706
99999.997002337346203
99999.997002344753128
99999.9970023521455
99999.997002359159524
99999.997002365707885
99999.997002373100258
99999.997002380681806
99999.997002387841349
99999.997002395291929
99999.997002402000362
99999.99700240920356
99999.997002415897441
99999.997002423362574
99999.997002430580324
99999.997002437841729
99999.997002445714315
99999.997002452175366
99999.997002459946088
99999.997002466785489
99999.997002474206965
99999.99700248161389
99999.997002488613361
99999.9970024965005
99999.99700250296155
99999.997002510543098
99999.997002518779482
99999.997002524745767
99999.997002532807528
99999.997002540141693
99999.997002546762815
99999.997002552379854
99999.997002565360162
99999.997002699892619
99999.99700307942112
99999.997002006159164
99999.996996552363271
99999.996998055037693
99999.997008835984161
99999.996998486240045
100104.48989554966101
99839.511995770561043
99904.834978211802081
99976.630032387649408
99996.35669248913473
99999.658355961553752
99999.983845640643267
99999.997758455530857
99999.997207421576604
99999.99701862045913
99999.997000251838472
99999.996999743554625
99999.99699977702403
99999.996999786540982
99999.996999789771507
99999.996999794515432
99999.996999798953766
99999.996999802620849
99999.996999806637177
99999.996999811191927
99999.996999815135496
99999.996999819428311
99999.99699982473976
99999.996999827504624
99999.996999832204892
99999.99699983667233
99999.996999840572244
99999.996999844384845
99999.996999848634005
99999.996999853930902
99999.996999857510673
99999.996999862371013
99999.996999866285478
99999.996999869501451
99999.996999874347239
99999.996999878509087
99999.996999883209355
99999.996999887676793
99999.996999891140149
99999.996999895942281
99999.996999900075025
99999.996999904324184
99999.996999909199076
99999.996999913608306
99999.996999917639187
99999.996999922048417
99999.996999926152057
99999.996999930663151
99999.996999935465283
99999.996999939539819
99999.996999943614355
99999.996999947426957
99999.996999951967155
99999.996999957758817
99999.996999961498659
99999.996999965878786
99999.996999969502212
99999.996999975002836
99999.996999979150132
99999.99699998369033
99999.996999987575691
99999.996999991490156
99999.99699999675795
99999.997000001720153
99999.997000005241716
99999.997000009432668
99999.997000014671357
99999.997000018440303
99999.99700002350437
99999.997000027782633
99999.997000032264623
99999.997000036455574
99999.997000041155843
99999.997000045696041
99999.997000050279894
99999.997000054863747
99999.997000059069251
99999.997000063987798
99999.997000068440684
99999.997000072704395
99999.997000077317352
99999.997000082134036
99999.997000085932086
99999.997000090850634
99999.997000095710973
99999.997000100353034
99999.997000104383915
99999.997000109404325
99999.997000114060938
99999.997000117800781
99999.997000122850295
99999.997000127652427
99999.997000132221729
99999.997000136499992
99999.997000141927856
99999.997000146147911
99999.997000150571694
99999.997000155679416
99999.997000160088646
99999.997000164134079
99999.997000168878003
99999.997000174320419
99999.997000178525923
99999.997000183153432
99999.997000187708181
99999.997000192495761
99999.997000197428861
99999.99700020167802
99999.997000206203666
99999.997000211398699
99999.997000215764274
99999.997000220711925
99999.99700022538309
99999.997000229879632
99999.997000234754523
99999.997000239338377
99999.997000244387891
99999.997000248957193
99999.99700025387574
99999.997000258619664
99999.997000263625523
99999.997000268427655
99999.997000272822333
99999.997000277377083
99999.997000282484805
99999.997000287621631
99999.997000292365556
99999.997000296745682
99999.997000302057131
99999.997000306699192
99999.997000311137526
99999.997000316390768
99999.997000321556698
99999.997000326315174
99999.997000330782612
99999.997000335468329
99999.997000340619707
99999.997000345101696
99999.997000350558665
99999.99700035576825
99999.997000359799131
99999.997000364703126
99999.997000369912712
99999.997000374831259
99999.997000379560632
99999.99700038471201
99999.997000389441382
99999.997000394636416
99999.997000399293029
99999.997000404386199
99999.997000409261091
99999.997000414834474
99999.997000419214601
99999.997000423260033
99999.997000429328182
99999.997000434435904
99999.997000438903342
99999.997000444040168
99999.997000449759071
99999.997000454299268
99999.997000459508854
99999.99700046434009
99999.997000469185878
99999.997000474133529
99999.997000479401322
99999.997000484232558
99999.99700048941304
99999.997000495102839
99999.997000499643036
99999.997000504386961
99999.997000509363716
99999.99700051509717
99999.997000519855646
99999.997000524905161
99999.997000529983779
99999.997000535862753
99999.997000540199224
99999.997000545743504
99999.997000550953089
99999.997000555871637
99999.997000560702872
99999.997000564777409
99999.997000569957891
99999.997000615723664
99999.997000891453354
99999.997001003255718
99999.996997917769477
99999.996995854875422
99999.997005069279112
99999.996997468551854
99999.997004357894184
99999.997001448355149
99999.996998938862816
99999.99699968592904
99999.997000464863959
99999.997000755349291
99999.99700082684285
99999.997000842544367
99999.997000848612515
99999.997000854375074
99999.997000860181288
99999.997000864837901
99999.997000870556803
99999.99700087623205
99999.997000881950953
99999.997000887349714
99999.997000892966753
99999.997000898089027
99999.997000904520974
99999.997000909686903
99999.997000915114768
99999.997000920862774
99999.997000926814508
99999.997000932009541
99999.997000937655685
99999.997000943112653
99999.9970009487879
99999.997000954826945
99999.997000961069716
99999.997000965973712
99999.997000971285161
99999.997000977062271
99999.997000982708414
99999.997000988936634
99999.997000994801056
99999.997000999937882
99999.997001005453058
99999.997001011186512
99999.997001016672584
99999.997001023119083
99999.997001028765226
99999.997001033843844
99999.997001040523173
99999.997001045398065
99999.997001051597181
99999.997001057316083
99999.997001063151401
99999.997001068724785
99999.997001074982109
99999.99700108054094
99999.997001086347154
99999.997001091891434
99999.997001097697648
99999.997001103547518
99999.997001109804842
99999.997001115611056
99999.997001121388166
99999.997001126539544
99999.997001132927835
99999.997001139039639
99999.997001144307433
99999.997001150812139
99999.997001156763872
99999.99700116267195
99999.997001168230781
99999.997001173818717
99999.997001180337975
99999.997001186129637
99999.997001192270545
99999.997001197873033
99999.997001203955733
99999.997001209572772
99999.997001215364435
99999.997001221912797
99999.997001227282453
99999.997001233976334
99999.997001240102691
99999.997001245879801
99999.997001251787879
99999.997001257463126
99999.997001263720449
99999.997001269744942
99999.997001275987714
99999.997001281313715
99999.997001288138563
99999.997001294206711
99999.997001300260308
99999.997001306153834
99999.997001312134671
99999.997001317780814
99999.997001324460143
99999.9970013305865
99999.997001336800167
99999.997001342766453
99999.997001349183847
99999.997001355062821
99999.997001361713046
99999.997001367024495
99999.997001373500098
99999.997001379466383
99999.99700138582557
99999.997001392315724
99999.99700139851484
99999.997001404481125
99999.997001410476514
99999.997001416733838
99999.99700142313668
99999.997001429219381
99999.997001435389393
99999.997001441952307
99999.997001447714865
99999.997001454001293
99999.997001460680622
99999.997001466996153
99999.997001473122509
99999.997001479394385
99999.997001485797227
99999.997001491399715
99999.997001498413738
99999.997001504321815
99999.997001510695554
99999.997001516880118
99999.997001523617655
99999.997001530064153
99999.997001536350581
99999.997001542447833
99999.997001548981643
99999.997001555515453
99999.997001561976504
99999.997001568262931
99999.997001574985916
99999.997001581286895
99999.997001587413251
99999.997001594005269
99999.997001600160729
99999.997001606694539
99999.997001613432076
99999.997001619762159
99999.997001626179554
99999.997001632713364
99999.997001639028895
99999.997001645693672
99999.997001651994651
99999.99700165874674
99999.997001665149583
99999.997001671712496
99999.997001677795197
99999.997001684954739
99999.997001691575861
99999.997001697644009
99999.997001704396098
99999.997001710537006
99999.997001717594685
99999.997001724434085
99999.997001730633201
99999.997001737094251
99999.99700174422469
99999.997001750554773
99999.997001757248654
99999.997001763724256
99999.997001770578208
99999.997001777330297
99999.997001783543965
99999.997001790805371
99999.997001796960831
99999.997001804120373
99999.997001810901565
99999.997001817158889
99999.997001823765459
99999.997001830604859
99999.997001837124117
99999.997001844414626
99999.997001850933884
99999.997001857904252
99999.997001864438062
99999.99700187126291
99999.997001877753064
99999.997001884781639
99999.997001891460968
99999.997001898300368
99999.997001904965146
99999.997001911935513
99999.997001919095055
99999.997001925628865
99999.99700193242461
99999.997001939220354
99999.997001946510863
99999.997001953262952
99999.99700196046615
99999.997001966417884
99999.997001973999431
99999.997001980853383
99999.997001987547264
99999.997001994444872
99999.997002001444343
99999.997002008516574
99999.997002014948521
99999.997002022224478
99999.997002029718715
99999.99700203606335
99999.997002043455723
99999.997002049654839
99999.99700205733825
99999.997002064046683
99999.997002071104362
99999.997002077972866
99999.997002085350687
99999.997002092335606
99999.997002099233214
99999.997002106087166
99999.997002113464987
99999.997002120813704
99999.997002127813175
99999.997002134594368
99999.997002142001293
99999.997002148767933
99999.997002155738301
99999.997002162854187
99999.997002170566702
99999.997002177595277
99999.997002184434677
99999.997002192074433
99999.997002199292183
99999.997002206277102
99999.997002213087399
99999.997002220654394
99999.99700222730462
99999.997002234915271
99999.9970022423513
99999.997002249365323
99999.997002256510314
99999.997002264164621
99999.997002271134988
99999.99700227836729
99999.997002285599592
99999.997002293603146
99999.997002299554879
99999.99700230792223
99999.997002314572455
99999.997002322255867
99999.997002330026589
99999.997002336356672
99999.997002343952772
99999.997002351941774
99999.99700235837372
99999.997002363597858
99999.997002376374439
99999.997002514312044
99999.997002915115445
99999.997001816751435
99999.996995926849195
99999.99699690550915
99999.997008888662094
99999.996998615300981
100209.29539782401116
100228.72945741565491
100052.88461655964784
100005.53221127158031
100000.15893065751879
99999.927332333478262
99999.985870914300904
99999.99623685174447
99999.996991427193279
99999.997005721059395
99999.997000544914044
99999.996999887051061
99999.996999858572963
99999.996999862472876
99999.996999867085833
99999.996999870578293
99999.996999875642359
99999.996999879804207
99999.996999883675016
99999.996999887400307
99999.99699989205692
99999.996999896247871
99999.996999901442905
99999.996999904877157
99999.996999908806174
99999.996999913477339
99999.99699991743546
99999.996999921349925
99999.996999925133423
99999.996999930401216
99999.996999934242922
99999.996999939045054
99999.996999942930415
99999.996999946772121
99999.996999951748876
99999.996999955415959
99999.996999959825189
99999.996999965034775
99999.996999968396267
99999.996999973009224
99999.996999976923689
99999.996999981507543
99999.996999986498849
99999.996999991024495
99999.996999994094949
99999.996999998315005
99999.997000003932044
99999.997000007104361
99999.997000011673663
99999.997000016694074
99999.997000020797714
99999.997000024537556
99999.997000028612092
99999.997000034374651
99999.997000038827537
99999.997000042843865
99999.997000046481844
99999.997000050992938
99999.997000055387616
99999.997000060349819
99999.997000064584427
99999.997000069022761
99999.997000073315576
99999.997000078263227
99999.997000081842998
99999.997000086295884
99999.997000091534574
99999.997000096060219
99999.997000100513105
99999.997000104689505
99999.997000108865905
99999.997000113173272
99999.997000117713469
99999.99700012266112
99999.997000127477804
99999.997000131668756
99999.997000135394046
99999.997000140487216
99999.997000144678168
99999.997000149523956
99999.997000154049601
99999.997000158356968
99999.997000163828488
99999.997000167830265
99999.997000172079424
99999.99700017660507
99999.997000181232579
99999.99700018625299
99999.997000190793187
99999.997000195056899
99999.997000199902686
99999.997000204006326
99999.997000209186808
99999.997000213348656
99999.997000218208996
99999.997000222749193
99999.99700022743491
99999.997000232440769
99999.997000236442545
99999.997000241084606
99999.997000246090465
99999.997000251227291
99999.997000255330931
99999.997000259376364
99999.997000264425878
99999.997000269519049
99999.997000274539459
99999.997000278701307
99999.997000283372472
99999.99700028776715
99999.997000292714802
99999.997000298200874
99999.997000302057131
99999.997000307121198
99999.997000312039745
99999.997000316143385
99999.997000321032829
99999.997000326024136
99999.997000330986339
99999.997000335788471
99999.997000340430532
99999.99700034520356
99999.997000349627342
99999.997000354574993
99999.997000359173398
99999.997000364368432
99999.997000369126908
99999.997000373434275
99999.997000379386009
99999.997000384275452
99999.997000387986191
99999.997000392831978
99999.997000397983356
99999.997000402639969
99999.997000407631276
99999.997000412244233
99999.997000417657546
99999.99700042247423
99999.997000427421881
99999.997000432093046
99999.997000436487724
99999.997000441755517
99999.997000446557649
99999.99700045119971
99999.997000456176465
99999.997000461589778
99999.997000466479221
99999.997000471514184
99999.997000476316316
99999.997000480856514
99999.997000486109755
99999.997000491610379
99999.997000496281544
99999.997000500618014
99999.997000505463802
99999.997000511400984
99999.997000516363187
99999.99700052056869
99999.997000525705516
99999.99700053120614
99999.997000536197447
99999.997000541203306
99999.997000545816263
99999.997000551535166
99999.997000556468265
99999.997000561183086
99999.997000566028873
99999.997000571805984
99999.997000576739083
99999.997000581439352
99999.997000586357899
99999.997000591785763
99999.997000597009901
99999.997000601928448
99999.997000607472728
99999.997000612769625
99999.997000616946025
99999.997000622082851
99999.997000627728994
99999.997000632953132
99999.997000637682504
99999.997000642077182
99999.997000644361833
99999.997000678253244
99999.997000993593247
99999.997001358977286
99999.996997785463464
99999.996994665518287
99999.997005084063858
99999.996996993606444
99999.997004155768082
99999.997001018418814
99999.996998609873117
99999.996999660797883
99999.997000540359295
99999.997000839561224
99999.99700090555416
99999.997000919247512
99999.997000925548491
99999.99700093055435
99999.997000936520635
99999.997000941992155
99999.997000947667402
99999.997000953517272
99999.997000958697754
99999.997000964227482
99999.997000969597138
99999.997000975243282
99999.9970009810786
99999.99700098678295
99999.997000991599634
99999.997000997580471
99999.997001003590412
99999.997001008843654
99999.997001014649868
99999.997001019917661
99999.997001025694772
99999.99700103176292
99999.99700103737996
99999.997001042895135
99999.997001048177481
99999.99700105379452
99999.997001059688046
99999.997001065436052
99999.997001071707928
99999.997001076830202
99999.997001082534553
99999.997001087947865
99999.997001093899598
99999.997001099283807
99999.997001105832169
99999.997001111056306
99999.997001116964384
99999.997001122144866
99999.997001128271222
99999.997001134426682
99999.997001139374333
99999.997001146082766
99999.997001151554286
99999.99700115712767
99999.997001162744709
99999.997001168492716
99999.997001174167963
99999.997001180323423
99999.997001186187845
99999.997001191906747
99999.997001197887585
99999.997001203766558
99999.997001209747395
99999.997001215248019
99999.997001221519895
99999.997001227704459
99999.99700123303046
99999.997001239418751
99999.997001245152205
99999.997001250856556
99999.997001256764634
99999.997001262934646
99999.997001269002794
99999.997001275129151
99999.997001280658878
99999.997001286479644
99999.997001292518689
99999.997001298252144
99999.99700130445126
99999.997001310184714
99999.997001316849492
99999.99700132268481
99999.997001328578335
99999.99700133431179
99999.997001340336283
99999.997001346360776
99999.99700135285093
99999.997001358657144
99999.997001364536118
99999.997001370895305
99999.997001376847038
99999.997001383075258
99999.997001389026991
99999.997001394702238
99999.997001401265152
99999.997001407158677
99999.997001413707039
99999.997001419877051
99999.99700142526126
99999.997001431838726
99999.997001438052393
99999.997001444164198
99999.997001450130483
99999.997001456358703
99999.997001462746994
99999.99700146894611
99999.997001474956051
99999.997001481358893
99999.997001487354282
99999.9970014939463
99999.997001499970793
99999.997001505907974
99999.997001512354473
99999.997001518873731
99999.997001524461666
99999.997001531068236
99999.997001536961761
99999.997001543306396
99999.997001549883862
99999.997001556126634
99999.997001562805963
99999.997001568321139
99999.997001574884052
99999.997001581199584
99999.997001587660634
99999.997001593830646
99999.997001600568183
99999.997001606709091
99999.99700161301007
99999.997001619281946
99999.997001625801204
99999.99700163223315
99999.997001638621441
99999.997001645271666
99999.997001651339815
99999.997001657946385
99999.997001664480194
99999.997001670431928
99999.997001677111257
99999.997001684023417
99999.997001689815079
99999.997001696741791
99999.997001702693524
99999.997001709722099
99999.997001715848455
99999.997001722367713
99999.997001728916075
99999.997001735857339
99999.997001741969143
99999.997001748473849
99999.997001754527446
99999.997001761716092
99999.997001767958864
99999.997001774638193
99999.997001781288418
99999.997001787662157
99999.997001795083634
99999.997001800686121
99999.997001807932975
99999.99700181420485
99999.997001820564037
99999.997001827388885
99999.997001834140974
99999.997001840514713
99999.997001847004867
99999.997001854120754
99999.99700186031987
99999.997001867886866
99999.997001873809495
99999.997001880663447
99999.997001887531951
99999.997001893352717
99999.997001900774194
99999.997001907497179
99999.997001914700377
99999.997001920637558
99999.997001928495592
99999.997001934767468
99999.997001941286726
99999.997001947995159
99999.997001955140149
99999.99700196115009
99999.997001968295081
99999.997001975323656
99999.997001981959329
99999.997001988740521
99999.997001995521714
99999.997002002171939
99999.997002009418793
99999.997002016199986
99999.997002022879315
99999.997002030169824
99999.997002036703634
99999.997002043615794
99999.997002050324227
99999.997002057425561
99999.99700206478883
99999.997002071133466
99999.997002078365767
99999.997002085248823
99999.997002092088223
99999.997002099393285
99999.997002105883439
99999.997002112853806
99999.997002120246179
99999.997002126663574
99999.997002133968635
99999.997002141186385
99999.997002147996682
99999.997002154763322
99999.997002162519493
99999.997002169126063
99999.997002175601665
99999.99700218331418
99999.997002190299099
99999.997002197516849
99999.997002204370801
99999.997002211457584
99999.99700221826788
99999.997002225965844
99999.99700223239779
99999.997002239761059
99999.997002247066121
99999.997002253629034
99999.997002261778107
99999.997002268632059
99999.997002275355044
99999.997002282747417
99999.99700228976144
99999.997002297110157
99999.997002304458874
99999.997002311574761
99999.997002318690647
99999.997002326359507
99999.997002333024284
99999.997002340620384
99999.997002347372472
99999.997002354939468
99999.997002362782951
99999.997002369345864
99999.997002377000172
99999.997002384334337
99999.997002391479327
99999.997002399308258
99999.997002405973035
99999.997002413205337
99999.997002421092475
99999.997002428019186
99999.997002435557079
99999.997002442265511
99999.997002448129933
99999.997002473275643
99999.99700264169951
99999.997002902586246
99999.997001078067115
99999.996994789500604
99999.996997078298591
99999.997008274673135
99999.996998550370336
99831.609122022084193
100010.49678961769678
100009.23656793193368
99999.932700895806192
99999.658944118447835
99999.913442113873316
99999.988119090543478