/*--------------------------------*- C++ -*----------------------------------*\
  =========                 |
  \\      /  F ield         | OpenFOAM: The Open Source CFD Toolbox
   \\    /   O peration     | Website:  https://openfoam.org
    \\  /    A nd           | Version:  12
     \\/     M anipulation  |
\*---------------------------------------------------------------------------*/
FoamFile
{
    format      ascii;
    class       volScalarField;
    location    "1e-05";
    object      rho;
}
// * * * * * * * * * * * * * * * * * * * * * * * * * * * * * * * * * * * * * //

dimensions      [1 -3 0 0 0 0 0];

internalField   nonuniform List<scalar> 
75962
(
1.1596368259232532338
1.1600102019882638782
1.1592416445099498201
1.1587708088950756657
1.1586472398108320636
1.1586255418631559166
1.1586231476009278829
1.1586229952552649092
1.1586229927393874028
1.1586229937801932888
1.1586229939314962589
1.1586229939400054523
1.1586229939401488931
1.1586229939401240241
1.1586229939401126998
1.1586229939401027078
1.158622993940108481
1.1586229939401018196
1.1586229939400929378
1.158622993940098489
1.1586229939401007094
1.1586229939400898292
1.1586229939400878308
1.1586229939400820577
1.1586229939400800593
1.1586229939400782829
1.1586229939400722877
1.1586229939400662925
1.158622993940063628
1.1586229939400674027
1.1586229939400651823
1.1586229939400627398
1.1586229939400500832
1.1586229939400460864
1.1586229939400494171
1.1586229939400471967
1.1586229939400349842
1.1586229939400363165
1.1586229939400360944
1.1586229939400272126
1.1586229939400258804
1.1586229939400223277
1.1586229939400227718
1.1586229939400187749
1.1586229939400183309
1.1586229939400125577
1.1586229939400065625
1.1586229939400070066
1.1586229939399985689
1.1586229939399979028
1.1586229939399974587
1.1586229939399848021
1.1586229939399856903
1.158622993939989243
1.1586229939399834699
1.1586229939399688149
1.1586229939399674826
1.1586229939399697031
1.1586229939399657063
1.1586229939399597111
1.1586229939399574906
1.1586229939399503852
1.1586229939399546041
1.1586229939399503852
1.1586229939399430577
1.1586229939399397271
1.1586229939399406152
1.1586229939399326216
1.15862299393993462
1.1586229939399277367
1.1586229939399186328
1.1586229939399232958
1.1586229939399161903
1.158622993939909751
1.1586229939399090849
1.1586229939399073086
1.1586229939398937638
1.1586229939398953181
1.1586229939398935418
1.1586229939398866584
1.1586229939398893229
1.1586229939398848821
1.1586229939398733357
1.1586229939398737798
1.1586229939398726696
1.1586229939398682287
1.1586229939398660083
1.1586229939398660083
1.1586229939398557942
1.1586229939398475786
1.1586229939398493549
1.1586229939398413613
1.1586229939398413613
1.1586229939398355882
1.1586229939398320354
1.1586229939398287048
1.158622993939824708
1.1586229939398233757
1.1586229939398171584
1.158622993939809831
1.1586229939398120514
1.1586229939398069444
1.1586229939398042799
1.1586229939398007271
1.158622993939794954
1.1586229939397867383
1.1586229939397874045
1.1586229939397825195
1.158622993939775192
1.1586229939397743038
1.1586229939397705291
1.1586229939397676425
1.1586229939397632016
1.158622993939755208
1.1586229939397543198
1.1586229939397496569
1.1586229939397467703
1.1586229939397407751
1.1586229939397374444
1.1586229939397330035
1.1586229939397314492
1.1586229939397227895
1.1586229939397192368
1.1586229939397134636
1.1586229939397132416
1.1586229939397092448
1.1586229939397021393
1.1586229939396965882
1.1586229939396996969
1.1586229939396917032
1.1586229939396845978
1.1586229939396870403
1.158622993939680601
1.1586229939396719413
1.1586229939396632815
1.1586229939396632815
1.1586229939396548438
1.15862299393965551
1.1586229939396561761
1.1586229939396488486
1.158622993939640855
1.1586229939396359701
1.1586229939396333055
1.1586229939396330835
1.1586229939396224253
1.1586229939396193167
1.1586229939396186506
1.1586229939396128774
1.1586229939396086586
1.1586229939395997768
1.1586229939395993327
1.158622993939600887
1.1586229939395922273
1.1586229939395817912
1.1586229939395782385
1.1586229939395755739
1.1586229939395704669
1.1586229939395646937
1.1586229939395695787
1.1586229939395584765
1.1586229939395558119
1.1586229939395495947
1.1586229939395455979
1.158622993939541157
1.1586229939395364941
1.1586229939395300548
1.15862299393952628
1.1586229939395251698
1.1586229939395173982
1.1586229939395102928
1.1586229939395074062
1.1586229939395045196
1.1586229939394969701
1.1586229939394918631
1.1586229939394874222
1.1586229939394858679
1.1586229939394807609
1.1586229939394745436
1.1586229939394705468
1.1586229939394632193
1.1586229939394512289
1.1586229939394223631
1.1586229939396077704
1.1586229939416423651
1.1586229939440080283
1.1586229939187395743
1.1586229939105867626
1.1586229939167180802
1.1586229939713439396
1.158622993983731142
1.1586229939453511761
1.1586229939261327715
1.158622993931690548
1.1586229939369159236
1.1586229939387404642
1.1586229939391257115
1.1586229939391736732
1.1586229939391723409
1.1586229939391670118
1.1586229939391614607
1.1586229939391541333
1.1586229939391454735
1.1586229939391425869
1.1586229939391383681
1.1586229939391243793
1.1586229939391288202
1.1586229939391221588
1.1586229939391126109
1.1586229939391066157
1.1586229939391026189
1.1586229939391021748
1.1586229939390910726
1.158622993939087964
1.1586229939390773058
1.1586229939390704224
1.1586229939390728649
1.1586229939390646493
1.1586229939390564336
1.1586229939390462196
1.1586229939390368937
1.1586229939390400023
1.1586229939390326749
1.1586229939390280119
1.158622993939023349
1.1586229939390122468
1.158622993939008472
1.1586229939389995902
1.1586229939390015886
1.1586229939389889321
1.1586229939389862675
1.1586229939389793842
1.1586229939389696142
1.1586229939389642851
1.1586229939389594001
1.1586229939389574017
1.1586229939389458554
1.1586229939389414145
1.1586229939389376398
1.1586229939389267596
1.1586229939389205423
1.1586229939389143251
1.1586229939389069976
1.1586229939389012245
1.158622993938899004
1.1586229939388896781
1.1586229939388810184
1.1586229939388756893
1.1586229939388785759
1.1586229939388652532
1.1586229939388550392
1.1586229939388521526
1.158622993938844381
1.1586229939388366095
1.1586229939388283938
1.1586229939388250632
1.1586229939388175136
1.1586229939388117405
1.1586229939388010823
1.1586229939387973076
1.1586229939387917565
1.1586229939387839849
1.1586229939387788779
1.1586229939387691079
1.1586229939387668875
1.158622993938759782
1.1586229939387555632
1.1586229939387471255
1.1586229939387384658
1.1586229939387335808
1.158622993938724921
1.1586229939387235888
1.1586229939387120424
1.1586229939387051591
1.1586229939387033827
1.1586229939386945009
1.1586229939386825105
1.1586229939386738508
1.1586229939386722965
1.1586229939386640808
1.1586229939386580856
1.1586229939386527565
1.1586229939386440968
1.1586229939386356591
1.1586229939386309962
1.1586229939386258891
1.1586229939386136767
1.158622993938610124
1.1586229939386043508
1.1586229939385876975
1.1586229939385881416
1.1586229939385812582
1.1586229939385694898
1.1586229939385637167
1.158622993938560386
1.1586229939385492838
1.1586229939385421783
1.1586229939385372933
1.1586229939385275234
1.1586229939385226384
1.1586229939385110921
1.1586229939385077614
1.1586229939384971033
1.1586229939384935506
1.158622993938485779
1.1586229939384744547
1.1586229939384680154
1.1586229939384586896
1.1586229939384553589
1.1586229939384480314
1.1586229939384364851
1.1586229939384273813
1.158622993938425827
1.1586229939384176113
1.1586229939384073973
1.1586229939384056209
1.1586229939383918541
1.1586229939383898557
1.1586229939383809739
1.1586229939383667631
1.1586229939383647647
1.1586229939383503318
1.1586229939383481113
1.1586229939383394516
1.1586229939383319021
1.1586229939383270171
1.1586229939383156928
1.1586229939383119181
1.1586229939383003718
1.1586229939382932663
1.1586229939382883813
1.1586229939382777232
1.1586229939382706178
1.1586229939382592935
1.1586229939382586274
1.1586229939382430842
1.1586229939382395315
1.1586229939382275411
1.1586229939382211018
1.1586229939382091114
1.1586229939382062248
1.1586229939381937903
1.1586229939381891274
1.1586229939381851306
1.158622993938167367
1.1586229939381682552
1.1586229939381549325
1.1586229939381491594
1.1586229939381398335
1.1586229939381293974
1.1586229939381242904
1.158622993938112522
1.158622993938107637
1.1586229939380945364
1.1586229939380900955
1.1586229939380794374
1.1586229939380690013
1.1586229939380656706
1.1586229939380523479
1.1586229939380399134
1.1586229939380430221
1.1586229939380294773
1.1586229939380154885
1.1586229939380112697
1.1586229939380012777
1.1586229939379897314
1.158622993937988177
1.1586229939379741882
1.1586229939379668608
1.1586229939379601994
1.1586229939379506515
1.1586229939379428799
1.1586229939379328879
1.1586229939379248943
1.1586229939379140141
1.1586229939379049103
1.1586229939379000253
1.1586229939378853704
1.1586229939378747122
1.1586229939378762666
1.1586229939378613896
1.1586229939378509535
1.1586229939378471787
1.1586229939378378528
1.158622993937823864
1.1586229939378140941
1.1586229939378132059
1.1586229939377952203
1.1586229939377952203
1.1586229939377743481
1.1586229939377745701
1.1586229939377572506
1.1586229939377474807
1.1586229939377377107
1.1586229939377366005
1.1586229939377188369
1.1586229939377130638
1.158622993937704182
1.1586229939376961884
1.1586229939376877507
1.1586229939376746501
1.1586229939376622156
1.158622993937654444
1.1586229939376502251
1.1586229939376335718
1.1586229939376271325
1.1586229939376213594
1.1586229939376087028
1.1586229939375958242
1.1586229939375869424
1.1586229939375802811
1.158622993937570067
1.1586229939375642939
1.1586229939375485287
1.1586229939375396469
1.1586229939375245479
1.1586229939375192188
1.1586229939375083386
1.1586229939374994569
1.1586229939374927955
1.1586229939374783626
1.1586229939374708131
1.1586229939374586007
1.1586229939374483866
1.1586229939374390607
1.1586229939374264042
1.158622993937420631
1.1586229939374035336
1.1586229939373942077
1.1586229939373937636
1.1586229939373728914
1.1586229939373675624
1.1586229939373566822
1.1586229939373384745
1.1586229939373142717
1.1586229939373633435
1.1586229939384886656
1.158622993941502699
1.1586229939313310577
1.1586229938861227762
1.1586229939000494138
1.1586229940133443428
1.1586229938054990463
1.1593569765508850988
1.1573261519726156799
1.1578227030646808249
1.1584192053860509208
1.1585902503577587552
1.1586198041719799612
1.1586228485142804345
1.1586229987888811976
1.158622995801075195
1.1586229941217385253
1.1586229939467671546
1.158622993940820578
1.1586229939409951051
1.1586229939410417344
1.1586229939410306322
1.1586229939410315204
1.1586229939410312983
1.158622993941024637
1.1586229939410201961
1.1586229939410188639
1.1586229939410150891
1.1586229939410104262
1.1586229939410173095
1.1586229939410022105
1.1586229939410042089
1.1586229939410013223
1.1586229939409959933
1.1586229939409899981
1.1586229939409868894
1.1586229939409917744
1.1586229939409833367
1.1586229939409826706
1.1586229939409775636
1.1586229939409655731
1.1586229939409693479
1.1586229939409615763
1.1586229939409624645
1.158622993940960022
1.1586229939409493639
1.1586229939409502521
1.1586229939409453671
1.1586229939409404821
1.1586229939409440348
1.1586229939409422585
1.1586229939409353751
1.1586229939409329326
1.1586229939409287137
1.1586229939409253831
1.1586229939409280476
1.1586229939409191658
1.1586229939409147249
1.1586229939409076195
1.1586229939409036227
1.1586229939409118384
1.1586229939409045109
1.1586229939409005141
1.1586229939408894118
1.1586229939408967393
1.1586229939408903
1.1586229939408885237
1.1586229939408814182
1.1586229939408729805
1.1586229939408758671
1.1586229939408749789
1.1586229939408667633
1.158622993940860102
1.1586229939408612122
1.1586229939408532186
1.158622993940855439
1.1586229939408498879
1.1586229939408463352
1.1586229939408394518
1.1586229939408378975
1.1586229939408347889
1.1586229939408307921
1.1586229939408283496
1.1586229939408227985
1.1586229939408219103
1.1586229939408199119
1.1586229939408123624
1.1586229939408079215
1.1586229939408070333
1.1586229939407994838
1.158622993940795709
1.1586229939407963752
1.1586229939407914902
1.1586229939407861611
1.1586229939407848288
1.1586229939407794998
1.1586229939407690637
1.1586229939407690637
1.1586229939407681755
1.1586229939407641787
1.1586229939407577394
1.1586229939407597378
1.1586229939407539646
1.1586229939407481915
1.1586229939407468592
1.1586229939407415301
1.1586229939407335365
1.1586229939407299838
1.1586229939407319822
1.158622993940725765
1.1586229939407195477
1.1586229939407142187
1.1586229939407124423
1.1586229939407097778
1.1586229939407026723
1.158622993940695789
1.1586229939406951228
1.1586229939406906819
1.1586229939406871292
1.1586229939406815781
1.1586229939406773592
1.1586229939406740286
1.1586229939406691436
1.158622993940666257
1.1586229939406620382
1.1586229939406593736
1.1586229939406544887
1.15862299394065138
1.1586229939406491596
1.1586229939406416101
1.1586229939406356149
1.1586229939406340606
1.1586229939406320621
1.1586229939406267331
1.1586229939406198497
1.1586229939406209599
1.1586229939406136324
1.158622993940606305
1.1586229939406054168
1.158622993940606305
1.1586229939405991995
1.1586229939405909839
1.158622993940586321
1.1586229939405843226
1.1586229939405754408
1.158622993940576329
1.1586229939405736644
1.1586229939405621181
1.1586229939405587874
1.1586229939405554568
1.1586229939405539024
1.158622993940546797
1.1586229939405441325
1.1586229939405390255
1.1586229939405352507
1.1586229939405296996
1.1586229939405252587
1.1586229939405190414
1.1586229939405225942
1.1586229939405101597
1.1586229939404979472
1.1586229939405041645
1.1586229939404997236
1.1586229939404926181
1.1586229939404895095
1.1586229939404910638
1.1586229939404806277
1.1586229939404779632
1.1586229939404728562
1.1586229939404657507
1.1586229939404610878
1.1586229939404582012
1.1586229939404506517
1.1586229939404488753
1.1586229939404486533
1.1586229939404384393
1.1586229939404297795
1.1586229939404244504
1.1586229939404266709
1.1586229939404193434
1.1586229939404129041
1.1586229939404075751
1.1586229939404097955
1.1586229939403993594
1.1586229939403969169
1.1586229939403940303
1.1586229939403869249
1.1586229939403795974
1.1586229939403656086
1.1586229939403613898
1.1586229939407224343
1.1586229939430099378
1.1586229939436154535
1.1586229939161871716
1.1586229939134864431
1.158622993914033783
1.1586229939654288934
1.1586229939867769279
1.1586229939480310325
1.1586229939248025023
1.1586229939304744097
1.1586229939369538933
1.1586229939394232513
1.158622993940009005
1.1586229939400995992
1.1586229939401002653
1.1586229939400960465
1.1586229939400904954
1.1586229939400791711
1.1586229939400762845
1.158622993940068957
1.1586229939400662925
1.1586229939400598532
1.1586229939400549682
1.1586229939400427558
1.1586229939400456423
1.1586229939400376487
1.1586229939400283229
1.1586229939400249922
1.1586229939400216615
1.1586229939400123357
1.1586229939400078948
1.1586229939399994571
1.1586229939399925737
1.1586229939399925737
1.1586229939399919076
1.1586229939399781408
1.1586229939399699251
1.1586229939399663724
1.158622993939959045
1.1586229939399561584
1.1586229939399532718
1.1586229939399412814
1.15862299393993462
1.1586229939399297351
1.1586229939399190769
1.1586229939399201871
1.1586229939399128597
1.1586229939399019795
1.1586229939399039779
1.1586229939398904332
1.1586229939398879907
1.1586229939398824396
1.1586229939398768884
1.1586229939398677846
1.1586229939398653421
1.1586229939398575706
1.1586229939398509092
1.1586229939398435818
1.1586229939398369204
1.1586229939398302591
1.1586229939398284827
1.1586229939398191569
1.1586229939398131616
1.1586229939398025035
1.158622993939799839
1.1586229939397962863
1.1586229939397838518
1.1586229939397816313
1.1586229939397756361
1.1586229939397696409
1.1586229939397605371
1.1586229939397529876
1.1586229939397512112
1.1586229939397416633
1.1586229939397372224
1.1586229939397281186
1.1586229939397214572
1.1586229939397127975
1.1586229939397050259
1.1586229939397043598
1.1586229939396919253
1.158622993939690371
1.1586229939396850419
1.1586229939396768263
1.1586229939396683886
1.1586229939396586186
1.1586229939396541777
1.1586229939396464061
1.1586229939396430755
1.1586229939396304189
1.1586229939396295308
1.1586229939396224253
1.1586229939396148758
1.158622993939605772
1.1586229939395999988
1.1586229939395893407
1.1586229939395862321
1.1586229939395797928
1.1586229939395744637
1.1586229939395664701
1.1586229939395618072
1.1586229939395507049
1.1586229939395493727
1.1586229939395333854
1.158622993939531165
1.1586229939395216171
1.1586229939395171762
1.1586229939395125133
1.1586229939395042976
1.1586229939394954158
1.1586229939394872002
1.1586229939394789845
1.1586229939394743216
1.1586229939394647737
1.1586229939394556698
1.1586229939394521171
1.1586229939394423472
1.1586229939394352417
1.1586229939394299127
1.1586229939394219191
1.1586229939394148136
1.1586229939394077082
1.1586229939394010469
1.158622993939386836
1.1586229939393857258
1.1586229939393735133
1.1586229939393677402
1.1586229939393579702
1.1586229939393528632
1.1586229939393466459
1.1586229939393379862
1.1586229939393299926
1.1586229939393233312
1.158622993939316892
1.1586229939393108967
1.1586229939393000166
1.1586229939392964639
1.1586229939392869159
1.1586229939392782562
1.1586229939392715949
1.1586229939392611588
1.1586229939392533872
1.1586229939392482802
1.1586229939392387323
1.1586229939392305166
1.1586229939392236332
1.1586229939392151955
1.158622993939207646
1.1586229939391980981
1.1586229939391914368
1.1586229939391821109
1.1586229939391763377
1.1586229939391619048
1.1586229939391587962
1.1586229939391532451
1.1586229939391394783
1.1586229939391337052
1.1586229939391226029
1.1586229939391188282
1.1586229939391123889
1.1586229939391008426
1.1586229939390888521
1.1586229939390866317
1.1586229939390753074
1.1586229939390686461
1.158622993939058432
1.1586229939390539911
1.1586229939390448873
1.1586229939390322308
1.1586229939390289001
1.1586229939390160215
1.1586229939390131349
1.1586229939390040311
1.1586229939389911525
1.1586229939389824928
1.1586229939389749433
1.1586229939389649513
1.1586229939389607324
1.1586229939389502963
1.1586229939389431909
1.1586229939389320887
1.158622993938923873
1.1586229939389132149
1.1586229939389065535
1.1586229939388963395
1.1586229939388876797
1.1586229939388772436
1.1586229939388701382
1.1586229939388661414
1.1586229939388534849
1.1586229939388439369
1.1586229939388346111
1.15862299393882906
1.1586229939388190679
1.1586229939388135168
1.1586229939387973076
1.1586229939387924226
1.1586229939387830967
1.1586229939387719945
1.1586229939387631127
1.1586229939387557852
1.1586229939387477916
1.1586229939387338028
1.1586229939387273635
1.1586229939387224785
1.1586229939387076016
1.1586229939387009402
1.1586229939386856191
1.1586229939386831767
1.1586229939386711862
1.1586229939386605281
1.1586229939386520904
1.1586229939386454291
1.1586229939386332166
1.1586229939386225585
1.1586229939386116783
1.1586229939386056831
1.1586229939385994658
1.1586229939385876975
1.1586229939385763732
1.1586229939385710441
1.1586229939385583876
1.158622993938545509
1.1586229939385352949
1.1586229939385330745
1.1586229939385226384
1.1586229939385068732
1.1586229939385024323
1.1586229939384939946
1.1586229939384831145
1.1586229939384700138
1.1586229939384626864
1.1586229939384486975
1.1586229939384407039
1.1586229939384340426
1.1586229939384218302
1.1586229939384093957
1.1586229939384049548
1.1586229939383920762
1.1586229939383796417
1.1586229939383705378
1.1586229939383656529
1.1586229939383456689
1.1586229939383436705
1.1586229939383285714
1.1586229939383210219
1.1586229939383148047
1.1586229939382954868
1.1586229939382874932
1.1586229939382823861
1.1586229939382632903
1.1586229939382350906
1.1586229939382823861
1.1586229939394392385
1.1586229939426380131
1.1586229939321959215
1.1586229938831777986
1.1586229938930623362
1.1586229940166474783
1.1586229938092635905
1.1605362341739176024
1.160525488073097522
1.1590843045815397705
1.1586751810360738091
1.1586249834844652984
1.1586224205679551691
1.158622894200879383
1.1586229864025403558
1.1586229937829775061
1.1586229939907337627
1.1586229939481416107
1.1586229939420231716
1.1586229939416734513
1.1586229939416654577
1.1586229939416674561
1.1586229939416563539
1.1586229939416612389
1.1586229939416583523
1.1586229939416539114
1.1586229939416461399
1.1586229939416459178
1.1586229939416434753
1.1586229939416474721
1.1586229939416394785
1.158622993941631707
1.1586229939416330392
1.158622993941627044
1.1586229939416199386
1.1586229939416148316
1.1586229939416206047
1.1586229939416128332
1.1586229939416139434
1.1586229939416075041
1.1586229939415999546
1.1586229939416061718
1.1586229939415955137
1.1586229939415935153
1.1586229939415961798
1.1586229939415864099
1.1586229939415868539
1.1586229939415806367
1.1586229939415793044
1.1586229939415808587
1.1586229939415795265
1.1586229939415646495
1.1586229939415597645
1.1586229939415677581
1.1586229939415551016
1.1586229939415526591
1.1586229939415548795
1.1586229939415497725
1.1586229939415415569
1.1586229939415362278
1.1586229939415433332
1.1586229939415388923
1.1586229939415326751
1.1586229939415246815
1.1586229939415215728
1.1586229939415153556
1.1586229939415169099
1.158622993941512247
1.1586229939415100265
1.1586229939415044754
1.158622993941507584
1.1586229939414951495
1.1586229939414913748
1.1586229939414944834
1.1586229939414915968
1.1586229939414884882
1.158622993941482715
1.1586229939414771639
1.1586229939414696144
1.1586229939414667278
1.1586229939414665058
1.1586229939414685042
1.1586229939414591783
1.1586229939414491863
1.1586229939414498524
1.1586229939414436352
1.158622993941442969
1.1586229939414407486
1.1586229939414331991
1.158622993941437862
1.1586229939414287582
1.1586229939414216528
1.1586229939414200985
1.1586229939414163237
1.1586229939414161016
1.1586229939414125489
1.1586229939414065537
1.1586229939414041112
1.1586229939413952295
1.1586229939413954515
1.158622993941388124
1.1586229939413863477
1.158622993941383017
1.1586229939413801304
1.1586229939413792422
1.1586229939413696943
1.1586229939413654755
1.1586229939413643653
1.1586229939413641432
1.1586229939413559276
1.1586229939413454915
1.1586229939413454915
1.1586229939413441592
1.1586229939413441592
1.1586229939413363876
1.1586229939413321688
1.1586229939413248413
1.1586229939413243972
1.1586229939413243972
1.158622993941313295
1.1586229939413128509
1.1586229939413092982
1.1586229939413021928
1.1586229939412975298
1.1586229939412964196
1.158622993941293311
1.1586229939412895362
1.1586229939412837631
1.1586229939412815426
1.1586229939412739931
1.1586229939412708845
1.1586229939412648893
1.158622993941263557
1.15862299394125845
1.1586229939412506784
1.1586229939412557854
1.1586229939412524548
1.1586229939412382439
1.1586229939412340251
1.1586229939412329148
1.1586229939412260315
1.1586229939412231449
1.1586229939412171497
1.1586229939412180379
1.1586229939412115986
1.1586229939412091561
1.1586229939412029388
1.1586229939411945011
1.1586229939411931689
1.1586229939411878398
1.1586229939411791801
1.1586229939411765155
1.1586229939411751833
1.1586229939411709644
1.158622993941168744
1.1586229939411618606
1.1586229939411545331
1.1586229939411529788
1.1586229939411529788
1.1586229939411460954
1.1586229939411361034
1.1586229939411303302
1.1586229939411332168
1.1586229939411267775
1.1586229939411187839
1.1586229939411123446
1.158622993941114121
1.1586229939411096801
1.158622993941104351
1.1586229939410954692
1.1586229939410974676
1.1586229939410912504
1.158622993941084367
1.1586229939410779277
1.1586229939410799261
1.1586229939410732648
1.1586229939410654932
1.1586229939410597201
1.1586229939410583878
1.158622993941054391
1.1586229939410483958
1.1586229939410479517
1.1586229939410426226
1.1586229939410315204
1.1586229939410253031
1.158622993941024415
1.1586229939410184198
1.1586229939410124246
1.1586229939410024325
1.1586229939409715683
1.1586229939412326928
1.1586229939438876801
1.1586229939465946259
1.1586229939148420254
1.1586229939032293146
1.1586229939166394765
1.1586229939630632302
1.1586229939857108917
1.1586229939446179849
1.1586229939219816476
1.1586229939301948555
1.1586229939375640718
1.1586229939401189171
1.1586229939406582634
1.1586229939407299838
1.15862299394073065
1.1586229939407224343
1.1586229939407179934
1.1586229939407146627
1.1586229939407102218
1.1586229939407071132
1.1586229939406980094
1.1586229939406920142
1.1586229939406851308
1.1586229939406766931
1.1586229939406746947
1.1586229939406718081
1.1586229939406582634
1.158622993940656043
1.1586229939406527123
1.1586229939406453848
1.1586229939406407219
1.1586229939406307299
1.1586229939406280653
1.1586229939406238465
1.1586229939406180733
1.1586229939406127443
1.1586229939406029743
1.1586229939405949807
1.1586229939405927603
1.1586229939405872091
1.1586229939405872091
1.1586229939405752187
1.1586229939405692235
1.1586229939405596756
1.1586229939405572331
1.1586229939405459088
1.1586229939405479072
1.158622993940536583
1.158622993940531698
1.1586229939405212619
1.1586229939405188194
1.1586229939405141565
1.158622993940501944
1.1586229939405034983
1.1586229939404955047
1.1586229939404855127
1.1586229939404781852
1.1586229939404706357
1.1586229939404639744
1.1586229939404599776
1.1586229939404539824
1.1586229939404464329
1.1586229939404417699
1.1586229939404366629
1.1586229939404313338
1.1586229939404215639
1.1586229939404188993
1.1586229939404153466
1.158622993940402468
1.1586229939404015798
1.1586229939403949185
1.1586229939403851485
1.1586229939403784872
1.1586229939403756006
1.1586229939403682732
1.1586229939403644984
1.1586229939403536182
1.1586229939403462907
1.1586229939403382971
1.1586229939403309697
1.1586229939403256406
1.1586229939403187572
1.1586229939403160927
1.158622993940307877
1.1586229939403003275
1.1586229939402923339
1.1586229939402845623
1.158622993940277901
1.158622993940273016
1.1586229939402659106
1.1586229939402590272
1.1586229939402532541
1.1586229939402443723
1.1586229939402412636
1.1586229939402312716
1.1586229939402208355
1.1586229939402192812
1.1586229939402090672
1.1586229939402064026
1.1586229939401997413
1.1586229939401877509
1.1586229939401826439
1.1586229939401766487
1.158622993940168211
1.1586229939401604394
1.1586229939401544442
1.1586229939401495592
1.1586229939401420097
1.1586229939401344602
1.1586229939401277989
1.1586229939401171407
1.15862299394011381
1.1586229939401064826
1.1586229939400953803
1.1586229939400911615
1.1586229939400851663
1.1586229939400725097
1.1586229939400669586
1.158622993940058743
1.1586229939400498612
1.1586229939400445321
1.1586229939400367606
1.158622993940033874
1.1586229939400194411
1.1586229939400145561
1.1586229939400070066
1.1586229939399999012
1.1586229939399916855
1.1586229939399868005
1.1586229939399774747
1.1586229939399705913
1.1586229939399612654
1.1586229939399546041
1.1586229939399472766
1.1586229939399399491
1.1586229939399350641
1.1586229939399235178
1.1586229939399173006
1.1586229939399119715
1.1586229939399004252
1.1586229939398939859
1.1586229939398906552
1.1586229939398753341
1.1586229939398722255
1.1586229939398589028
1.1586229939398571265
1.1586229939398462463
1.1586229939398380306
1.1586229939398289268
1.1586229939398264843
1.158622993939814716
1.1586229939398065003
1.1586229939397936217
1.1586229939397916233
1.1586229939397811872
1.1586229939397738598
1.1586229939397676425
1.1586229939397574284
1.158622993939755208
1.1586229939397381106
1.1586229939397365563
1.1586229939397267863
1.1586229939397147959
1.1586229939397076905
1.158622993939700585
1.1586229939396912592
1.1586229939396810451
1.1586229939396768263
1.1586229939396632815
1.1586229939396639477
1.1586229939396466282
1.1586229939396426314
1.1586229939396328614
1.1586229939396182065
1.1586229939396153199
1.1586229939396077704
1.1586229939396035515
1.1586229939395871202
1.1586229939395884525
1.1586229939395775723
1.1586229939395649158
1.1586229939395558119
1.1586229939395515931
1.1586229939395353838
1.1586229939395276123
1.158622993939521173
1.1586229939395096267
1.1586229939395020772
1.1586229939394925292
1.1586229939394827593
1.1586229939394772082
1.1586229939394678823
1.1586229939394578903
1.1586229939394530053
1.1586229939394401267
1.158622993939431467
1.1586229939394208088
1.1586229939394145916
1.1586229939394092625
1.1586229939393934973
1.1586229939393863919
1.1586229939393788424
1.1586229939393690724
1.1586229939393621891
1.1586229939393477562
1.1586229939393408728
1.1586229939393335453
1.1586229939393191124
1.1586229939393133392
1.1586229939393077881
1.1586229939392957977
1.1586229939392815869
1.1586229939392795885
1.1586229939392662658
1.158622993939252277
1.158622993939247614
1.1586229939392389543
1.1586229939392294064
1.1586229939392167498
1.1586229939392085342
1.1586229939391969879
1.158622993939192547
1.1586229939391763377
1.1586229939391685662
1.1586229939391603505
1.1586229939391461397
1.1586229939391459176
1.1586229939391314847
1.1586229939391190502
1.1586229939391115007
1.158622993939098178
1.1586229939390926269
1.1586229939390824129
1.1586229939390713106
1.1586229939390602084
1.1586229939390539911
1.1586229939390406685
1.1586229939390328969
1.1586229939390164656
1.1586229939390102484
1.1586229939390053634
1.15862299393898871
1.158622993938983825
1.1586229939389727228
1.1586229939389625088
1.1586229939389534049
1.158622993938938972
1.1586229939389269816
1.1586229939389212085
1.1586229939389072197
1.1586229939389001142
1.1586229939388827948
1.1586229939388601462
1.1586229939390213506
1.1586229939404260048
1.1586229939423207114
1.1586229939256760257
1.158622993873876128
1.1586229938944940798
1.1586229940123016213
1.1586229938049614763
1.1572914370810878371
1.1586931878538138108
1.1587003806199558387
1.1586233802008378824
1.1586201983762192125
1.1586222591972719087
1.1586229113100887655
1.1586229901035132173