/*--------------------------------*- C++ -*----------------------------------*\
  =========                 |
  \\      /  F ield         | OpenFOAM: The Open Source CFD Toolbox
   \\    /   O peration     | Website:  https://openfoam.org
    \\  /    A nd           | Version:  12
     \\/     M anipulation  |
\*---------------------------------------------------------------------------*/
FoamFile
{
    format      ascii;
    class       volScalarField;
    location    "1e-05";
    object      T;
}
// * * * * * * * * * * * * * * * * * * * * * * * * * * * * * * * * * * * * * //

dimensions      [0 0 0 1 0 0 0];

internalField   nonuniform List<scalar> 
75962
(
300.0471946547669404
300.14723875532848751
300.06558580553695492
300.01498861569223209
300.00238465476820693
300.0002315407388096
300.00000289507158868
299.99999080042402966
299.99999086896895051
299.99999098491667837
299.99999100015929798
299.99999100089024751
299.99999100089740978
299.99999100090866477
299.99999100092162507
299.99999100093327797
299.99999100094811411
299.99999100096061966
299.99999100097357996
299.99999100098744975
299.99999100100200167
299.99999100101393879
299.99999100102792227
299.99999100104093941
299.99999100105458183
299.99999100106890637
299.99999100108209404
299.99999100109437222
299.99999100110812833
299.99999100112279393
299.99999100113643635
299.99999100115019246
299.99999100116275486
299.99999100117622675
299.99999100118998285
299.99999100120436424
299.99999100121738138
299.99999100123159224
299.99999100124608731
299.99999100125859286
299.99999100127234897
299.9999910012858777
299.99999100130008856
299.9999910013144131
299.99999100132805552
299.99999100134175478
299.99999100135551089
299.99999100136960806
299.99999100138313679
299.99999100139712027
299.99999100141178587
299.99999100142474617
299.99999100143867281
299.99999100145453212
299.9999910014677198
299.99999100148045272
299.99999100149506148
299.99999100150944287
299.99999100152399478
299.99999100153786458
299.99999100155184806
299.99999100156588838
299.99999100158066767
299.99999100159521959
299.99999100160835042
299.99999100162256127
299.99999100163734056
299.99999100165143773
299.99999100166530752
299.99999100167957522
299.99999100169452504
299.99999100170902011
299.99999100172300359
299.99999100173704392
299.9999910017523348
299.99999100176660249
299.99999100178024491
299.99999100179496736
299.99999100180968981
299.99999100182446909
299.9999910018391347
299.99999100185345924
299.99999100186721535
299.99999100188239254
299.99999100189762657
299.99999100191132584
299.99999100192627566
299.9999910019419076
299.99999100195560686
299.99999100197061352
299.99999100198562019
299.99999100199983104
299.9999910020144398
299.99999100202995805
299.99999100204456681
299.99999100205923241
299.9999910020740117
299.99999100208901837
299.99999100210362712
299.9999910021185201
299.99999100213364045
299.99999100214864711
299.99999100216354009
299.99999100217877412
299.99999100219343973
299.99999100220873061
299.99999100222368043
299.99999100223925552
299.99999100225312532
299.99999100226926885
299.99999100228382076
299.99999100229956639
299.99999100231468674
299.99999100232957971
299.99999100234470006
299.999991002360332
299.99999100237499761
299.99999100239091376
299.9999910024061478
299.99999100242126815
299.99999100243690009
299.99999100245219097
299.99999100246742501
299.99999100248282957
299.99999100249846151
299.99999100251409345
299.99999100252966855
299.99999100254450468
299.9999910025598524
299.9999910025754275
299.99999100259111628
299.99999100260680507
299.99999100262289176
299.9999910026385237
299.99999100265330298
299.99999100266950336
299.99999100268496477
299.99999100270088093
299.99999100271713814
299.99999100273271324
299.999991002747322
299.99999100276431818
299.99999100277989328
299.99999100279609365
299.99999100281132769
299.999991002827187
299.99999100284316
299.99999100285930353
299.99999100287476494
299.99999100289079479
299.99999100290688148
299.99999100292382082
299.99999100293922538
299.9999910029545731
299.99999100297071664
299.99999100298759913
299.99999100300294685
299.99999100301982935
299.99999100303602972
299.9999910030522301
299.99999100306757782
299.99999100308434663
299.99999100310060385
299.99999100311725897
299.99999100313294775
299.99999100314954603
299.99999100316568956
299.99999100318206047
299.99999100319814715
299.99999100321508649
299.99999100323151424
299.99999100324856727
299.99999100326454027
299.99999100328079749
299.9999910032970547
299.99999100331370983
299.99999100333099022
299.99999100334713376
299.99999100336378888
299.99999100338033031
299.99999100339624647
299.99999100341045732
299.99999100344757608
299.99999100368040672
299.99999100391084994
299.99999100163506682
299.99999099670390024
299.99999102333680412
299.99999098788146057
299.99999100195026358
299.99999100436758681
299.99999100289085163
299.99999100347406511
299.99999100404124874
299.99999100424969356
299.99999100430738963
299.99999100433080912
299.99999100434848742
299.99999100436667732
299.99999100438509458
299.9999910044030571
299.99999100442073541
299.99999100443903899
299.99999100445734257
299.99999100447530509
299.99999100449332445
299.99999100451242384
299.99999100452953371
299.99999100454738254
299.99999100456602719
299.99999100458467183
299.99999100460303225
299.9999910046211653
299.99999100463912782
299.99999100465760193
299.99999100467607605
299.99999100469528912
299.99999100471353586
299.99999100473110047
299.99999100474974512
299.99999100476907188
299.99999100478720493
299.99999100480613379
299.99999100482443737
299.99999100484251358
299.99999100486149928
299.9999910048798597
299.99999100489890225
299.99999100491788795
299.99999100493704418
299.99999100495529092
299.99999100497370819
299.99999100499269389
299.99999100501185012
299.99999100503083582
299.99999100504948046
299.99999100506846617
299.99999100508728134
299.99999100510603967
299.99999100512513905
299.99999100514435213
299.99999100516367889
299.99999100518266459
299.99999100520176398
299.99999100522097706
299.99999100523956486
299.99999100525900531
299.99999100527861629
299.9999910052974883
299.99999100531681506
299.9999910053363692
299.99999100535592333
299.99999100537530694
299.99999100539389474
299.99999100541350572
299.99999100543294617
299.99999100545261399
299.9999910054719976
299.9999910054913812
299.99999100551139009
299.99999100553054632
299.99999100554998677
299.99999100556976828
299.99999100558977716
299.9999910056093313
299.99999100562860121
299.99999100564849641
299.99999100566782317
299.99999100568777521
299.99999100570744304
299.99999100572779298
299.9999910057474608
299.99999100576769706
299.99999100578736488
299.99999100580686218
299.9999910058269279
299.99999100584693679
299.99999100586683198
299.99999100588695455
299.99999100590719081
299.99999100592748391
299.99999100594743595
299.99999100596738799
299.99999100598756741
299.99999100600831525
299.99999100602860835
299.99999100604816249
299.99999100606885349
299.99999100608891922
299.99999100610926916
299.99999100612978964
299.99999100614979852
299.99999100617037584
299.99999100619118053
299.99999100621147363
299.99999100623227832
299.99999100625274195
299.99999100627269399
299.9999910062937829
299.99999100631379179
299.99999100633522175
299.99999100635579907
299.9999910063762627
299.9999910063974653
299.99999100641792893
299.99999100643884731
299.99999100645914041
299.99999100648045669
299.99999100650092032
299.99999100652178186
299.99999100654292761
299.99999100656447126
299.99999100658521911
299.99999100660591012
299.99999100662705587
299.99999100664780372
299.99999100666894947
299.99999100669026575
299.99999100671089991
299.99999100673255725
299.99999100675381669
299.99999100677592878
299.99999100679656294
299.99999100681770869
299.99999100683908182
299.99999100686056863
299.99999100688216913
299.9999910069032012
299.99999100692451748
299.9999910069458906
299.9999910069674911
299.99999100698931898
299.99999100701018051
299.9999910070326905
299.99999100705412047
299.99999100707640309
299.99999100709771938
299.99999100711886513
299.99999100714086353
299.99999100716217981
299.99999100718400769
299.99999100720634715
299.99999100722834555
299.99999100724920709
299.99999100727228551
299.99999100729337442
299.9999910073159981
299.99999100733776913
299.99999100735993807
299.99999100738176594
299.99999100740365066
299.99999100742650171
299.99999100744804537
299.99999100747101011
299.99999100749226955
299.9999910075147227
299.99999100753774428
299.99999100755979953
299.99999100758191162
299.99999100760447845
299.9999910076265337
299.99999100764858895
299.99999100767189475
299.99999100769389315
299.99999100771640315
299.99999100773931104
299.99999100776119576
299.99999100778461525
299.99999100780695471
299.99999100782974892
299.99999100785208839
299.99999100787493944
299.99999100789790418
299.99999100792041418
299.99999100794366313
299.99999100796611629
299.9999910079897063
299.99999100801176155
299.99999100803540841
299.99999100805734997
299.99999100808093999
299.99999100810424579
299.99999100812681263
299.99999100815051634
299.99999100817319686
299.99999100819667319
299.99999100821997899
299.9999910082436827
299.99999100826607901
299.99999100828995324
299.99999100831269061
299.99999100833593957
299.99999100835952959
299.99999100838351751
299.99999100840676647
299.99999100843018596
299.99999100845411704
299.99999100847691125
299.99999100850112654
299.99999100852403444
299.99999100854819289
299.99999100857161238
299.99999100859548662
299.99999100861907664
299.99999100864278034
299.99999100866654089
299.99999100869104041
299.99999100871377777
299.99999100873804991
299.99999100876266311
299.99999100878659419
299.99999100881058212
299.99999100883474057
299.99999100885850112
299.9999910088824322
299.99999100890619275
299.99999100893063542
299.99999100895473703
299.99999100897963444
299.99999100900282656
299.99999100902812188
299.99999100905182559
299.99999100907649563
299.99999100910110883
299.9999910091251536
299.99999100915039207
299.99999100917409578
299.99999100919916373
299.99999100922383377
299.99999100924725326
299.99999100927271911
299.999991009297446
299.99999100932177498
299.99999100934445551
299.99999100937594676
299.99999100952101116
299.99999100985763789
299.99999100880262404
299.99999100400157204
299.99999100692627962
299.99999100840472011
299.99999103080017449
300.13261286559850305
299.86432881209822199
299.91483628469541145
299.97914340529337096
299.99675948998964259
299.99969380856185808
299.99998127922276581
299.99999189121916743
299.99999119242386314
299.99999101717742178
299.9999910003754735
299.99999099999638474
299.99999100004970387
299.99999100006749586
299.99999100008045616
299.99999100009443964
299.99999100010757047
299.99999100012047393
299.9999910001336616
299.99999100014753139
299.99999100016037801
299.99999100017436149
299.99999100018834497
299.99999100020067999
299.9999910002144361
299.99999100022830589
299.99999100024149357
299.99999100025451071
299.9999910002679826
299.99999100028253451
299.99999100029566534
299.99999100031021726
299.99999100032317756
299.99999100033608102
299.99999100034938238
299.99999100036404798
299.99999100037780408
299.99999100039173072
299.99999100040503208
299.99999100041907241
299.99999100043265798
299.99999100044664146
299.99999100046045442
299.99999100047409684
299.99999100048790979
299.99999100050155221
299.99999100051530831
299.99999100052963286
299.99999100054338896
299.99999100055777035
299.99999100057107171
299.99999100058431623
299.99999100059903867
299.99999100061415902
299.99999100062740354
299.99999100064138702
299.99999100065514313
299.99999100066986557
299.99999100068379221
299.99999100069788938
299.99999100071136127
299.99999100072534475
299.99999100074035141
299.99999100075530123
299.999991000768091
299.99999100078241554
299.99999100079776326
299.99999100081106462
299.99999100082567338
299.99999100083999792
299.99999100085426562
299.99999100086853332
299.99999100088308523
299.99999100089740978
299.99999100091224591
299.99999100092657045
299.99999100094061077
299.99999100095556059
299.99999100096948723
299.99999100098415283
299.9999910009991595
299.99999100101371141
299.9999910010271833
299.99999100104281524
299.99999100105713978
299.99999100107243066
299.99999100108584571
299.99999100110125028
299.99999100111648431
299.99999100113052464
299.99999100114547446
299.99999100116008321
299.99999100117480566
299.99999100118930073
299.99999100120516005
299.99999100121914353
299.99999100123397966
299.99999100124949791
299.99999100126416351
299.99999100127831753
299.99999100129360841
299.9999910013091835
299.99999100132350804
299.99999100133885577
299.99999100135397612
299.99999100136881225
299.99999100138415997
299.99999100139882557
299.99999100141411645
299.99999100142986208
299.99999100144412978
299.99999100145970488
299.99999100147510944
299.99999100148977504
299.99999100150517961
299.99999100152024312
299.9999910015359319
299.99999100155099541
299.99999100156622944
299.99999100158169085
299.99999100159743648
299.99999100161249999
299.99999100162750665
299.99999100164285437
299.99999100165842947
299.99999100167440247
299.99999100168992072
299.99999100170487054
299.99999100172044564
299.99999100173624811
299.9999910017514253
299.9999910017673983
299.99999100178263234
299.99999100179877587
299.99999100181429412
299.99999100182952816
299.99999100184533063
299.99999100186107626
299.99999100187727663
299.99999100189342016
299.9999910019086542
299.99999100192417245
299.99999100194048651
299.99999100195566371
299.99999100197169355
299.99999100198789392
299.99999100200324165
299.99999100201972624
299.99999100203524449
299.99999100205150171
299.99999100206792946
299.99999100208350455
299.99999100209987546
299.99999100211516634
299.99999100213165093
299.99999100214819236
299.99999100216336956
299.99999100217951309
299.99999100219633874
299.99999100221253912
299.99999100222902371
299.99999100224465565
299.99999100226085602
299.9999910022770564
299.99999100229354099
299.99999100230996874
299.99999100232605542
299.99999100234288107
299.99999100235908145
299.99999100237573657
299.99999100239205063
299.99999100240859207
299.99999100242456507
299.99999100244150441
299.99999100245804584
299.99999100247509887
299.99999100249084449
299.99999100250795436
299.99999100252432527
299.9999910025408667
299.99999100255729445
299.99999100257292639
299.99999100259014995
299.99999100264540175
299.99999100290415299
299.9999910029481498
299.99999100047079992
299.99999099592042739
299.9999910230778255
299.99999098684583032
299.99999100152871279
299.99999100372082239
299.99999100179559264
299.99999100239108429
299.99999100309258893
299.99999100336782476
299.99999100344609815
299.9999910034728714
299.99999100349140235
299.99999100350970593
299.99999100352857795
299.9999910035454036
299.99999100356342296
299.99999100358223814
299.99999100360008697
299.99999100361787896
299.99999100363606885
299.99999100365448612
299.99999100367296023
299.99999100369041116
299.9999910037090558
299.99999100372713201
299.99999100374589034
299.99999100376385286
299.99999100378198591
299.99999100380034633
299.99999100381899098
299.99999100383723771
299.99999100385599604
299.99999100387418594
299.99999100389243267
299.99999100391050888
299.99999100392932405
299.99999100394882134
299.99999100396712493
299.99999100398542851
299.99999100400367524
299.99999100402214935
299.99999100404136243
299.99999100406034813
299.99999100407922015
299.99999100409706898
299.99999100411662312
299.99999100413475617
299.99999100415396924
299.99999100417232967
299.99999100419131537
299.99999100421035791
299.99999100422974152
299.99999100424849985
299.99999100426748555
299.99999100428607335
299.99999100430511589
299.99999100432432897
299.99999100434354204
299.9999910043633804
299.99999100438208188
299.99999100440044231
299.99999100442011013
299.99999100443926636
299.99999100445825206
299.99999100447837463
299.99999100449775824
299.99999100451691447
299.99999100453584333
299.9999910045546585
299.9999910045745537
299.99999100459439205
299.99999100461388934
299.99999100463304558
299.99999100465305446
299.99999100467221069
299.99999100469125324
299.99999100471126212
299.99999100473036151
299.99999100475082514
299.99999100477054981
299.99999100479010394
299.99999100480988545
299.99999100482926906
299.99999100484939163
299.99999100486922998
299.99999100488878412
299.99999100490799719
299.99999100492880189
299.99999100494852655
299.99999100496870597
299.99999100498871485
299.9999910050081553
299.99999100502776628
299.99999100504857097
299.9999910050686367
299.99999100508858874
299.99999100510842709
299.99999100512894756
299.99999100514935435
299.99999100516953376
299.99999100518965633
299.99999100520955153
299.99999100522995832
299.99999100525002405
299.99999100527071505
299.99999100529140605
299.99999100531164231
299.99999100533159435
299.99999100535251273
299.99999100537280583
299.99999100539355368
299.99999100541435837
299.99999100543493569
299.99999100545466035
299.99999100547535136
299.99999100549649711
299.99999100551764286
299.99999100553793596
299.99999100555834275
299.99999100557931797
299.9999910055997816
299.99999100562109788
299.99999100564195942
299.99999100566247989
299.99999100568345511
299.99999100570505561
299.99999100572574662
299.99999100574694921
299.99999100576729916
299.99999100578838807
299.99999100580976119
299.99999100583062273
299.99999100585228007
299.99999100587336898
299.99999100589457157
299.99999100591509205
299.99999100593657886
299.99999100595772461
299.99999100597915458
299.99999100600075508
299.99999100602224189
299.99999100604361502
299.99999100606481761
299.99999100608590652
299.99999100610790492
299.99999100612916436
299.99999100615104908
299.99999100617259273
299.9999910061936248
299.99999100621568004
299.99999100623779213
299.99999100625910842
299.99999100628076576
299.99999100630247995
299.99999100632373938
299.99999100634590832
299.99999100636802041
299.99999100638950722
299.99999100641207406
299.99999100643395877
299.99999100645584349
299.99999100647761452
299.99999100649944239
299.99999100652127026
299.9999910065438371
299.99999100656555129
299.99999100658823181
299.99999100660988915
299.99999100663205809
299.99999100665479546
299.9999910066768507
299.99999100669879226
299.99999100672118857
299.99999100674330066
299.9999910067662654
299.99999100678860486
299.99999100681100117
299.99999100683356801
299.99999100685596432
299.99999100687830378
299.99999100690109799
299.99999100692366483
299.99999100694628851
299.99999100696908272
299.99999100699164956
299.99999100701410271
299.9999910070370106
299.99999100705969113
299.99999100708259903
299.99999100710550692
299.99999100712858535
299.99999100715155009
299.9999910071735485
299.99999100719736589
299.99999100722044432
299.999991007243068
299.99999100726614643
299.99999100728916801
299.99999100731218959
299.99999100733504065
299.99999100735846014
299.99999100738233437
299.9999910074050149
299.99999100742900282
299.99999100745134228
299.99999100747510283
299.9999910074982381
299.99999100752188497
299.9999910075449634
299.99999100756855341
299.99999100759265502
299.99999100761601767
299.99999100763926663
299.99999100766314086
299.99999100768650351
299.99999100771043459
299.99999100773379723
299.99999100775733041
299.99999100778092043
299.99999100780496519
299.99999100782883943
299.99999100785254313
299.99999100787630368
299.99999100790091688
299.99999100792462059
299.99999100794877904
299.99999100797231222
299.99999100799607277
299.99999100802051544
299.99999100804393493
299.99999100806905972
299.99999100809282027
299.99999100811709241
299.99999100814170561
299.999991008165523
299.99999100818979514
299.99999100821469256
299.99999100823879417
299.99999100826374843
299.99999100828682685
299.99999100831246324
299.9999910083361101
299.99999100836117805
299.99999100838596178
299.9999910084099497
299.99999100843467659
299.99999100845991507
299.99999100848384614
299.99999100850664036
299.99999100853796108
299.99999100868603819
299.99999100904142324
299.99999100795656659
299.99999100275618957
299.99999100526787288
299.999991007848962
299.99999103005194456
300.13256206573993268
300.20380068959667597
300.04857119588257319
300.00481617850226712
300.00012030850029987
299.99992630036149421
299.99998063174689378
299.99999034579877843
299.9999909983392854
299.99999100577156241
299.99999100073932823
299.99999100013144471
299.99999100011854125
299.99999100013189945
299.99999100014520081
299.99999100015850217
299.9999910001725425
299.99999100018567333
299.9999910001984631
299.99999100021165077
299.99999100022563425
299.99999100023887877
299.99999100025314647
299.99999100026570886
299.99999100027935128
299.99999100029310739
299.99999100030657928
299.99999100032005117
299.9999910003327841
299.99999100034710864
299.99999100036046684
299.99999100037456401
299.99999100038780853
299.99999100040128042
299.99999100041480915
299.9999910004282242
299.99999100044226452
299.99999100045704381
299.99999100046960621
299.99999100048324863
299.99999100049677736
299.99999100051076084
299.99999100052525591
299.99999100053918255
299.99999100055225654
299.99999100056612633
299.99999100058096246
299.99999100059386592
299.99999100060796309
299.99999100062245816
299.99999100063593005
299.99999100064951563
299.99999100066287383
299.99999100067856261
299.99999100069283031
299.99999100070658642
299.99999100071954672
299.99999100073370073
299.99999100074842318
299.9999910007628614
299.9999910007767312
299.99999100079082837
299.99999100080509606
299.99999100081907955
299.99999100083294934
299.99999100084721704
299.9999910008622237
299.99999100087626402
299.99999100089070225
299.99999100090468573
299.99999100091855553
299.99999100093339166
299.99999100094782989
299.99999100096266602
299.9999910009766495
299.99999100099142879
299.99999100100535543
299.99999100102002103
299.99999100103440242
299.99999100104912486
299.99999100106339256
299.99999100107805816
299.99999100109334904
299.99999100110767358
299.99999100112233918
299.99999100113615214
299.9999910011511588
299.99999100116593809
299.99999100118054685
299.9999910011947577
299.99999100121016227
299.99999100122477103
299.99999100124006191
299.99999100125450013
299.99999100126944995
299.99999100128394502
299.99999100129872431
299.99999100131395835
299.99999100132845342
299.99999100134340324
299.99999100135875096
299.99999100137415553
299.99999100138848007
299.9999910014033162
299.99999100141843655
299.99999100143401165
299.99999100144901831
299.99999100146351338
299.99999100147869058
299.9999910014936404
299.99999100150876075
299.99999100152501796
299.99999100153939935
299.99999100155480392
299.99999100157032217
299.99999100158458987
299.99999100160033549
299.99999100161551269
299.99999100163131516
299.99999100164677657
299.99999100166195376
299.99999100167684674
299.99999100169202393
299.99999100170771271
299.99999100172306044
299.99999100173891975
299.999991001754438
299.99999100176944467
299.9999910017859861
299.99999100180122014
299.99999100181628364
299.99999100183174505
299.99999100184760437
299.99999100186323631
299.9999910018788114
299.99999100189427281
299.99999100191024581
299.99999100192627566
299.99999100194179391
299.99999100195736901
299.99999100197283042
299.99999100198874658
299.99999100200454905
299.99999100202091995
299.99999100203632452
299.99999100205292279
299.99999100206866842
299.99999100208418668
299.99999100210033021
299.9999910021159053
299.99999100213210568
299.99999100214847658
299.99999100216410852
299.99999100218002468
299.99999100219588399
299.99999100221282333
299.99999100222936477
299.99999100224414406
299.99999100226108339
299.9999910022770564
299.99999100229319993
299.99999100230962767
299.99999100232548699
299.9999910023422558
299.99999100235851301
299.99999100237454286
299.99999100239074323
299.99999100240751204
299.99999100242388295
299.99999100244008332
299.99999100245634054
299.99999100247288197
299.9999910024895371
299.999991002505908
299.99999100252261997
299.99999100253978668
299.9999910025551344
299.99999100257224427
299.99999100258918361
299.99999100260629348
299.99999100262209595
299.99999100263778473
299.99999100265256402
299.99999100269707242
299.99999100299578458
299.99999100325817381
299.99999100030612453
299.99999099501422961
299.99999102246601979
299.99999098602967251
299.99999100120999174
299.99999100334645163
299.99999100149688047
299.99999100236146887
299.99999100315523037
299.99999100343950431
299.9999910035125481
299.99999100353778658
299.99999100355682913
299.99999100357399584
299.99999100359303839
299.9999910036102051
299.99999100362833815
299.99999100364658489
299.99999100366443372
299.99999100368262361
299.99999100370052929
299.99999100371940131
299.9999910037375912
299.9999910037552695
299.99999100377328887
299.99999100379176298
299.99999100381046446
299.99999100382819961
299.99999100384673056
299.99999100386526152
299.9999910038831672
299.99999100390232343
299.99999100392068385
299.99999100393847584
299.99999100395689311
299.99999100397570828
299.99999100399401186
299.9999910040126565
299.99999100403147168
299.9999910040498321
299.99999100406853358
299.99999100408706454
299.99999100410570918
299.99999100412463804
299.99999100414368058
299.99999100416232523
299.99999100418119724
299.99999100419933029
299.99999100421848652
299.99999100423792697
299.99999100425606002
299.999991004275671
299.99999100429403143
299.99999100431335819
299.99999100433205967
299.99999100435121591
299.99999100436991739
299.99999100438941468
299.99999100440857092
299.99999100442761346
299.99999100444671285
299.99999100446558487
299.99999100448491163
299.99999100450389733
299.99999100452345147
299.99999100454283507
299.99999100456204815
299.99999100458137491
299.99999100460024692
299.9999910046198579
299.9999910046393552
299.99999100465851143
299.99999100467846347
299.99999100469790392
299.99999100471723068
299.99999100473655744
299.99999100475668001
299.9999910047757794
299.9999910047956746
299.99999100481454661
299.99999100483523762
299.99999100485490544
299.99999100487451642
299.99999100489367265
299.99999100491368154
299.99999100493346305
299.99999100495409721
299.99999100497348081
299.99999100499275073
299.99999100501327121
299.99999100503328009
299.99999100505277738
299.99999100507324101
299.99999100509273831
299.99999100511286088
299.99999100513326766
299.99999100515356076
299.99999100517379702
299.99999100519283957
299.99999100521381479
299.99999100523410789
299.99999100525440099
299.99999100527435303
299.99999100529464613
299.99999100531488239
299.99999100533540286
299.99999100535541174
299.99999100537638697
299.99999100539690744
299.99999100541742791
299.99999100543760733
299.9999910054581278
299.99999100547853459
299.9999910054996235
299.99999100551946185
299.99999100554094866
299.99999100556038911
299.99999100558176224
299.9999910056027943
299.99999100562348531
299.99999100564440369
299.99999100566441257
299.99999100568538779
299.99999100570630617
299.99999100572745192
299.99999100574802924
299.99999100576951605
299.99999100579009337
299.99999100581089806
299.99999100583210065
299.99999100585318956
299.999991005874449
299.99999100589542422
299.99999100591662682
299.99999100593777257
299.99999100595897517
299.99999100598006407
299.99999100600092561
299.99999100602246926
299.99999100604406976
299.9999910060653292
299.99999100608675917
299.99999100610818914
299.99999100612961911
299.99999100615070802
299.99999100617247905
299.99999100619430692
299.99999100621573689
299.99999100623699633
299.99999100625865367
299.99999100628014048
299.99999100630213889
299.99999100632356885
299.99999100634539673
299.99999100636699723
299.99999100638842719
299.99999100641144878
299.99999100643259453
299.99999100645464978
299.99999100647596606
299.99999100649813499
299.99999100652030393
299.99999100654230233
299.99999100656401652
299.99999100658590123
299.99999100660835438
299.99999100663046647
299.99999100665280594
299.99999100667497487
299.99999100669663221
299.99999100671959695
299.99999100674085639
299.99999100676387798
299.99999100678581954
299.9999910068085569
299.99999100683049846
299.99999100685369058
299.99999100687540476
299.99999100689808529
299.99999100692042475
299.99999100694299159
299.99999100696498999
299.99999100698858001
299.99999100701103316
299.99999100703416843
299.99999100705616684
299.99999100707901789
299.99999100710152788
299.99999100712460631
299.99999100714728684
299.99999100716991052
299.9999910071929321
299.99999100721578316
299.99999100723869105
299.99999100726154211
299.99999100728450685
299.99999100730786949
299.99999100733077739
299.99999100735431057
299.99999100737682056
299.99999100740001268
299.9999910074236027
299.99999100744668112
299.99999100746919112
299.9999910074935201
299.99999100751608694
299.99999100753962011
299.99999100756252801
299.99999100758606119
299.99999100760993542
299.99999100763363913
299.99999100765700177
299.99999100767985283
299.99999100770418181
299.9999910077272034
299.99999100775130501
299.9999910077751224
299.9999910077984282
299.99999100782179084
299.9999910078459493
299.99999100786948247
299.9999910078934704
299.99999100791757201
299.99999100794093465
299.99999100796514995
299.9999910079893084
299.99999100801267105
299.99999100803705687
299.99999100806127217
299.9999910080847485
299.9999910081093617
299.99999100813340647
299.99999100815773545
299.99999100818217812
299.99999100820559761
299.99999100823015397
299.99999100825465348
299.99999100827886878
299.99999100830370935
299.99999100832775412
299.99999100835185573
299.9999910083766963
299.99999100840062738
299.99999100842637745
299.99999100845008115
299.99999100847497857
299.99999100849970546
299.99999100852409128
299.99999100854864764
299.99999100857291978
299.99999100859633927
299.99999100863936974
299.99999100881342429
299.99999100902965665
299.99999100729775137
299.9999910018145215
299.99999100549899822
299.9999910069999487
299.999991031098034
299.8622146433555713
300.00583681158047966
300.00863666957394571
299.99991679216066132
299.9996806917939125
299.99991561171265175
299.99998301358129993
299.99999073370497626
299.99999103189264815