/*--------------------------------*- C++ -*----------------------------------*\
  =========                 |
  \\      /  F ield         | OpenFOAM: The Open Source CFD Toolbox
   \\    /   O peration     | Website:  https://openfoam.org
    \\  /    A nd           | Version:  12
     \\/     M anipulation  |
\*---------------------------------------------------------------------------*/
FoamFile
{
    format      ascii;
    class       volScalarField;
    location    "0.0062";
    object      k;
}
// * * * * * * * * * * * * * * * * * * * * * * * * * * * * * * * * * * * * * //

dimensions      [0 2 -2 0 0 0 0];

internalField   nonuniform List<scalar> 
75962
(
3.3502171355034584762e-05
4.8978402410821012339e-05
6.0042227415237058323e-05
7.4365487075868865635e-05
0.00010875872265638939146
0.00015456936367087527806
0.00018089101600904684418
0.00019066319749992650208
0.0002001468093507423004
0.00022194894102996843644
0.00027927978459428196662
0.00034162218249257072719
0.00037894507489329723677
0.00040312656727440753131
0.00044827811786793235341
0.00053035683792028638119
0.00061069349257992600142
0.00065989291081271380084
0.00067842699878783996326
0.00068660334000811762065
0.0007011652683076008679
0.00073755018661702902421
0.00079119250199817428137
0.00083582542515547213549
0.00086552719246690726189
0.00089317339878378922916
0.00094470619123247041513
0.0010535425141751137042
0.0012014304278712710419
0.0013449086146687784602
0.0014535905638384646801
0.0015327131705272381643
0.0016034093483836945899
0.0016712299372214744608
0.0017239176573760723547
0.0017541739878517835938
0.0017774140238625666006
0.0018228016133382638365
0.0019054974563556884015
0.0020047056727547935689
0.0020931628355166016255
0.0021523001802429297426
0.0021849992443044728881
0.0022179577258852516478
0.0022872530026162257548
0.0024775162128234237344
0.0027622194849474300885
0.002990470982067129288
0.003123664813555264777
0.0031754601044798155991
0.0031882501839383260538
0.003196861090949677537
0.0032165359947634998387
0.0032702832388630241091
0.0033861163045374089581
0.0035236907861884805317
0.00367069135751035662
0.0038111610745784636062
0.0039226326991916877357
0.0039890109937226652173
0.0040180591931817475487
0.0040420884658578298473
0.0040960838643893963604
0.0042639994631002335959
0.0046362430494549505128
0.004948781129642864339
0.0051433401193322521305
0.0052384266023734141898
0.0052778549735560337589
0.0052965700925541037147
0.0053103573981880163382
0.0053253541062184099608
0.0053487675068785330013
0.0053962717470238197662
0.0055144902981129556921
0.0058143650847616570529
0.0061307405894376167457
0.0063380629143614886437
0.0064261224316848200924
0.0064602546144359061439
0.006519670414109278965
0.0067063972567561096552
0.0072251911387716917859
0.0077263526613963835407
0.0080512346308284164081
0.0082285574363770985773
0.0083125463195771048808
0.0083481704531758720716
0.0083599869068165574143
0.0083614547582677323928
0.0083636810489137129038
0.0083813438799320242462
0.0084776432934575689931
0.008774114126603747843
0.0090093048212775365263
0.0090961240515724500061
0.0091026794032693977149
0.0090724407713916339208
0.0089716577665303626904
0.0089131375273249491276
0.008906505667189956385
0.0089340518756245608512
0.0090889365179346020412
0.0095881752395630959196
0.010146317265542320954
0.010525817310161814447
0.01072502892957444276
0.010808453370615336148
0.010887085205646327563
0.011066691008377520927
0.011603706244148789817
0.012392017177509026538
0.0129651001233819195
0.013251140726775434767
0.013320649876624360286
0.013300095941991106271
0.013168092429930210521
0.013056642682522809351
0.013055222287952776214
0.013175465743756900605
0.013757731880641712804
0.014579248248210947836
0.015019543635136163931
0.015164518930631448734
0.01517766518075657628
0.015172979568077504808
0.015185614599699975499
0.015241487888918598195
0.015260566596670608469
0.0152333520219294586
0.015053455166649788027
0.014647747015625028205
0.014409070476991654025
0.014336989781483806122
0.014340345439539272168
0.014407804608075582692
0.014615235542005838507
0.014776818907054982064
0.014861726411272044648
0.014897716165032675109
0.014906539839650310986
0.01490581353790253194
0.01489859440737855388
0.014866326484114152431
0.014770863079793535022
0.014672142989679004543
0.014601787547432989317
0.014559229184426465339
0.014538498072373166881
0.014533151558442621368
0.014534480485486138066
0.01454816677751909898
0.014602704776310627965
0.014757861268762786922
0.014950067456574794508
0.015130427714873086187
0.015286507151580603497
0.015406213261698904066
0.01548525830703596784
0.015527419546294288222
0.015547281767411295569
0.015560104536322377083
0.015582617080405536392
0.015635599757559074524
0.015765076695655893396
0.015919781752966596228
0.016066330831457472511
0.016198435701352601607
0.016319451709446427395
0.016438832716944028894
0.016566268713415256003
0.016707349343974952499
0.016857060736318624228
0.017006438393946311793
0.017141854237308802589
0.017250617018210782916
0.017326701148975852396
0.017371804455729476097
0.017397563920078375904
0.017420885143723550958
0.017460785036942379211
0.017532074564227680125
0.017640672291726378768
0.017786458836010470702
0.017958574524331197969
0.018144382253187488901
0.01832584604207974574
0.018490272151644431692
0.021781116734902950666
0.02178024049781769958
0.021776433742182133013
0.021772329819288865904
0.021768544728172991437
0.021763936573233909344
0.021754614141399238048
0.021731070816458076395
0.021696087853067789336
0.021660080991886952739
0.021622992650984156071
0.021586795973805177756
0.021551115102760625558
0.021517682530920245049
0.021485909467379382676
0.02145720935491123374
0.021430174798164329519
0.021405406153292876742
0.021381314557491898354
0.021359303503950925751
0.021338345913550889332
0.021319785865909598316
0.021301799593849719133
0.021285383861574108666
0.02126886045619197016
0.021253519286924996146
0.021237603919025984517
0.021222369173546355714
0.021206257349930070222
0.021191033315923705344
0.021175130136644335077
0.021159941048780144673
0.021143386118142478564
0.021126617647870882255
0.021107701671494973755
0.021088021422097511653
0.021066081655890633861
0.021043869673304477913
0.021020531124553758218
0.020998273715374229931
0.020975931925811930334
0.020954926681951240724
0.020933691888286701938
0.020913295363307209118
0.020892211228099755171
0.020871429690094721321
0.020849744993207030425
0.020828497382000141225
0.020806614159221321209
0.020785171411064111424
0.020762608488103333898
0.020740003269592067331
0.02071613295932353202
0.020692801577950069997
0.020668961557046588995
0.020646269593816313909
0.020623094011818915439
0.02060081973740020625
0.020577733969416721338
0.020555541416597621074
0.020532652433691258448
0.020510728822658207821
0.02048776440621772818
0.02046489722599184255
0.02044023449579132623
0.020415415900931741661
0.020389457991363716532
0.020364399152505641838
0.020339304574202372172
0.020315890783892440186
0.02029299005091955016
0.020271827946791522862
0.020250723504136813879
0.02023019544575789877
0.020208467687520000056
0.020186401639281051357
0.020163215630871752365
0.020140349999744185105
0.020117278830578295967
0.020094849610148166064
0.020072083978874950827
0.020049360678946370057
0.020025811479826783473
0.020001911465483881297
0.019977206206559641744
0.019952385353666338835
0.019927226697993193766
0.019902390495627024503
0.019877348242580784865
0.019852768258402951618
0.019827865270341332726
0.019803846211738532906
0.019779720199814165849
0.019756633868778700897
0.019733004142738652664
0.019709662853727057119
0.01968539226879042689
0.019661511552217830062
0.019637280730887961278
0.019613635636616642138
0.019589630671414944713
0.019565844354838681646
0.019542036256513847098
0.019518954499227171573
0.019496596107170940243
0.019475082497996114295
0.019453769277302433716
0.019432619521254062417
0.019410662141805857389
0.019388752837367632248
0.019365768998060282208
0.0193432124496861306
0.019319947130234341182
0.019297217932954656427
0.019274302685860899426
0.019251441352014498493
0.019228555314545585364
0.019205336737670275493
0.019182373939166406929
0.019159698095637927445
0.01913772572962437607
0.019116564773058258853
0.019096099349774162818
0.019075771780376470088
0.019055561619262022244
0.019033981100211486842
0.019012127674314927006
0.018988434519625348174
0.018964900512241717606
0.01894034037116772845
0.018916654803260185558
0.018892738125056495607
0.018870409997451126349
0.018847722617219220959
0.018826583978572508649
0.018804400469491628495
0.018783527678126476362
0.01876170111096965229
0.018741470203725980187
0.018720060052392482886
0.018700403179088623262
0.018678467605190471335
0.01865835062373297909
0.01863558607076833476
0.018614638386511776769
0.018591782606697106889
0.018571073150278567809
0.018549199711319824813
0.01853005963325865188
0.018509428064161403266
0.018491389585463618994
0.018471357997604243018
0.018453156391754935856
0.01843252327084528297
0.01841324744625062737
0.018390991101096099136
0.018370695818942409799
0.018347751411853921444
0.018327512041000776355
0.018304986329482592772
0.018285604452766852229
0.01826365417315931744
0.018245121127235607028
0.018223538351780241284
0.0182050956064316663
0.018183218667914030631
0.018164208649339944057
0.018141874249644845268
0.018122283837683040436
0.018099601123953680537
0.018079737327512210299
0.018056942217523363342
0.018037104579187050735
0.018014490073256082814
0.017995093956819880471
0.017973109551335433171
0.017954856179336703415
0.017933712461809511729
0.017916263728115829762
0.01789531365840918084
0.017877477924572400536
0.017856044439818811315
0.017838006464294318271
0.017816205874411062543
0.01779846025598515874
0.017777066145971937017
0.017759670186537766107
0.017738721903197043894
0.017721545231490783145
0.017700810436395878616
0.017683797428942195362
0.017663357601004337633
0.01764678862494026626
0.017626894321280901778
0.01761094371570442324
0.017591844821794315468
0.017576586640855235144
0.017558085821428336126
0.017543146656053609789
0.017524546563472510191
0.017509120187302915778
0.017489897591113749004
0.017473753463429841232
0.017453926988577356944
0.01743754983327987923
0.017417577130957241638
0.017401478195512389002
0.017381841094535718101
0.017366370329705185793
0.017346949810796732233
0.017332241351372814492
0.017313116090437584427
0.017298834535535878576
0.017280016642019089407
0.017265337624257609539
0.017246110441620381148
0.017230473227595168029
0.017210567181038360918
0.017194319200167618167
0.017174216686594693387
0.017158308820654034899
0.017138806271284119653
0.017124168456137942029
0.017106232753285686293
0.017093334937530599987
0.017076771648239768425
0.017064856062810631471
0.017048736607115071856
0.017036154801798389369
0.017019321397679709057
0.017005393633260392633
0.016987476671319560323
0.016972633471969027219
0.016954213236520188079
0.016940020722693720917
0.016922019078242759443
0.016908750950805618435
0.016891422253666934367
0.016878634530914839867
0.01686182082850558317
0.016849432466107587547
0.016833498529158916895
0.016821874285849146985
0.01680599944248994948
0.016794843913146544762
0.016779188245988448797
0.016768092384129729827
0.01675359229685564541
0.016743391855843406391
0.016729840092077938318
0.016720633501237723573
0.0167073448515027978
0.016698240084010888135
0.016684752631419150215
4.0260642232436832119e-05
6.1242171853498819233e-05
7.3735569499109150865e-05
8.3060343415148295537e-05
0.00010343281007431290839
0.00014913593799167370029
0.00017925747539631047434
0.00019194812931230663009
0.00020875009125125663771
0.00024736235847801874791
0.00031338337438342023884
0.00038055718448283380349
0.00042548890931738827604
0.00044681088489029673842
0.00047147494698165486873
0.00053205030382524767883
0.00061515761213382666537
0.00067272490376774519028
0.00069860021247973786481
0.000710853582313337529
0.00073194090927469659513
0.00078561390923139590419
0.00084156234139621329156
0.00087329408971961004163
0.00089698854337558068042
0.00094091733894722802238
0.0010307359720085711424
0.0011489828499702322163
0.0012703292543302519002
0.0013804521243158485253
0.0014822317561751792003
0.0015781173515883335084
0.0016601765931596912558
0.0017187599737176347762
0.0017570257890291893742
0.0017915065190992817898
0.0018414928649160187089
0.001916950117973122104
0.0020113694149941950887
0.0021064596519222242993
0.0021829391042470728396
0.0022310490654512760492
0.0022575812085903479431
0.0022864810997657060432
0.0023486551242837398236
0.0025285539230119596227
0.0028812116479980300759
0.0031775870807995202326
0.0033575213917836897216
0.0034320184527308864215
0.0034492876857705767092
0.0034507490469962999978
0.0034529649650930404128
0.0034637176102023641694
0.0035054626595700986123
0.0036358713502715467314
0.0038165363542802866782
0.0039769620598217305871
0.0040996238276764284184
0.0041721994550873667956
0.0042024021820900921836
0.0042190351708530204194
0.0042525641852262513476
0.0043548188905793913661
0.0046744858895673467927
0.0050585723322372098607
0.0053198935478085945111
0.0054627151671104460726
0.005524083587546309293
0.0055461571689271686042
0.0055554360357152323888
0.0055646402556721952584
0.0055826698232869405303
0.0056241582311238351097
0.0057398502284759268799
0.0060679505824095727323
0.0064492843399774849728
0.0067095475005955100903
0.0068306211501624912105
0.0068690172866802609586
0.0069085225998750344686
0.0070191274522880689815
0.0073843412236739300672
0.0078806096049021528982
0.0082348819356021681071
0.0084477861832733171926
0.0085584856930645773071
0.0086084554191631183773
0.0086267692482384743247
0.0086329008095675455886
0.0086421904846556013569
0.0086726113245282707848
0.0087936705032024640311
0.0091129693601886951199
0.0093632906727132148017
0.0094745961790845319855
0.0094955626903376801756
0.0094834898140240299347
0.009419384258408734778
0.0093586285499540605021
0.0093463291721709446103
0.0093600464641357145751
0.0094562711125543361113
0.0098594368219323321595
0.010550151171140654399
0.011037486497781386421
0.011295459499911147949
0.011406633709833725876
0.011512634650589902152
0.01175097331499152728
0.012354102989622283912
0.013032488739906733163
0.013526929534307672795
0.013770499140116954778
0.01382404815609005258
0.013797347303583069877
0.013655294025784241174
0.013550738945337571784
0.013554379963626992517
0.013698215765182790091
0.014362013130739885794
0.015254826644905919442
0.015724196022516852278
0.015880914014413362312
0.01591555859038765175
0.015968115215370851101
0.016128795895490592727
0.016298280550587181809
0.016352742370601320437
0.016335403726213060249
0.016176321195187942648
0.015729661811768137769
0.015433875148144114708
0.015339757690334687723
0.015340170310514265536
0.015408361162264830671
0.015617136059391868372
0.015768676954515777749
0.01584042712685613391
0.015863317216269882254
0.015865707479460203905
0.015861578156868602618
0.015840022631849123846
0.015758359586449447592
0.01563033001129220112
0.015533697412537359264
0.015470590209920228111
0.015436471104518109665
0.015421727549126745468
0.015418566709786519359
0.01542048785867542772
0.015434619901457988234
0.015491272928727761737
0.015658398994307654029
0.015852974617417650571
0.016010906122526289558
0.016124428003964914879
0.016191747150077550471
0.016224839904649575317
0.016242701857941663907
0.016268560406075074226
0.016327140567922338033
0.016430912923714888207
0.016556765997996648193
0.016689443704608172142
0.016819138300017143911
0.016938673537296354554
0.017050868116593922291
0.017162242480332354916
0.017283247419611114798
0.017421778466647646483
0.017580041011879109919
0.01775095005652135155
0.017920422771893387837
0.018072053443280111651
0.018193238784455986745
0.018277665594204520888
0.018327595698195118384
0.018352105890237020019
0.018365475783013028577
0.018381866726125985906
0.018415947755943719299
0.018496120305990692428
0.018645976879291970701
0.018839648887360224
0.019059809059010137527
0.01928465537644551836
0.019488173487084994862
0.019653724938331708361
0.022960820263322499063
0.022962832881254040956
0.022962815998718962701
0.02296067898532908047
0.022957106604053680032
0.022952683430013696292
0.022945791299067389013
0.02293090226696232331
0.022896798219840416161
0.02285573732259188473
0.022814697835409705057
0.022773846354651954005
0.0227342874625269184
0.022695860776898561101
0.022659678590001293419
0.022625595047136022597
0.022594454825473703208
0.022565657128918191476
0.022539444812331003304
0.022514813598730223226
0.022491899628268766098
0.022469936100476369661
0.022449374894898850574
0.022429580018992735513
0.022410972557913966252
0.02239292595935125571
0.022375660997207776765
0.022358467783047911159
0.022341498590292593884
0.022324312372696299839
0.022307355701875607179
0.022290236225444546442
0.022273206401907646307
0.022255666206822205533
0.022237541626857922766
0.02221804905870397584
0.022197128027620631474
0.02217468591368952982
0.022151583562324547033
0.022128357996731816415
0.022105712142105649748
0.022083418175525549448
0.022061523973881381339
0.022039571387490897864
0.022017629353836717238
0.021995337073681960061
0.021972836032875649181
0.021950180397514767322
0.021927701784279194502
0.021905360842086982198
0.0218829541294535794
0.021859894724573256802
0.021835989197957476893
0.02181117556277525904
0.021786040164955486342
0.021760890952716910318
0.021736168146619858771
0.021711689003412169147
0.021687464187317546938
0.021663145099061274779
0.02163889186986575966
0.021614600380956097703
0.021590539095969273065
0.021566264911793600612
0.021541595579394237636
0.021516019437173690421
0.021489669740107731483
0.021462846906597714269
0.021436045329356230582
0.02140981788428710994
0.021384418991399797849
0.021360082780149489134
0.02133658990167945288
0.021313696001720203871
0.021290867284716848834
0.021267870949369514777
0.02124431697874200331
0.021220407756014744022
0.021196094564063121257
0.021171875906539808221
0.021147631891684354893
0.021123646329875817029
0.02109924987758344736
0.021074552369096104243
0.021048827933773210652
0.021022667485349092603
0.020995794315257308021
0.020968998457057887175
0.020941933839116480542
0.020915210127614120711
0.020888616595042059504
0.02086268851792523818
0.020837441741399970879
0.0208129711751168546
0.020788938992657421401
0.020765008699137787324
0.020740640769819941591
0.020715905862016992245
0.020690605451727898945
0.020665328826587538169
0.020639678763247158028
0.020614334406779982745
0.02058860907411500657
0.020563704090632524413
0.020539083626416973494
0.020515946564143437009
0.020493277342358121734
0.020471382562588014142
0.020449002590005850577
0.020426269547183330266
0.020402826636799095
0.020379085963648513324
0.020355149230181127096
0.020331399734468194596
0.020307410234676376987
0.020283931644214471535
0.020259623246974781813
0.020235764461814950699
0.02021068066730149701
0.02018646128145418564
0.020161925587300729562
0.020139162758578899731
0.020116726253577996847
0.020095854880660526942
0.020074287415625436531
0.020053350657092260112
0.020030113469293956557
0.020007169745725316562
0.019981535612050651401
0.019956788235282740818
0.019930216467635958333
0.019905447131360550633
0.019879914541470044415
0.019856984333183894803
0.019833376064835699093
0.019812133203112491237
0.019789248160862197429
0.019768270387164558338
0.019745345023650891225
0.019724647467785200866
0.019701832912283650384
0.019681498038860378852
0.019658153535273614754
0.019637170145580796349
0.019612788323242986988
0.019590837323423541255
0.019566233164855374727
0.019544647320564687704
0.019521119898470443849
0.01950110488804130543
0.01947887186849787608
0.019459942482352485249
0.019438382502000806085
0.019419428180789045923
0.019397413404155971345
0.019377517217437110336
0.019353967250368305647
0.019333088035886878547
0.019308845364401593797
0.019288010215764882921
0.019264252391907574907
0.019244393942839412709
0.01922129479661945084
0.019202323435696149606
0.019179457525745704366
0.019160243569804821795
0.01913677513926443155
0.01911667541035155099
0.019092421834774081502
0.019071635567094746139
0.019046812434342700465
0.019025702278001762474
0.019000892124042628728
0.018980182470053362509
0.018956106425323707154
0.018936247948561368143
0.018913095853495726778
0.018894416943470319914
0.018872052287155646755
0.018854204479951643808
0.018831964459346827584
0.018813617589591370011
0.018790542224947970329
0.018771494895626059107
0.018747854801713582235
0.0187290103183996616
0.018705911395702445182
0.018687766687996921339
0.018665431823240537929
0.018647804577934499332
0.01862588811824307175
0.01860859487443894747
0.018587055549729489257
0.018570128838564167739
0.018549015498667182494
0.018532766548554617525
0.018512321284923232562
0.018496781119857259867
0.01847694152718934793
0.01846160334404997605
0.018441645580734817439
0.018425781459199132295
0.018404962784933399933
0.018388072477587735082
0.018366228322307019682
0.018348698752533483536
0.018326583470361580003
0.018309470234694869006
0.018288010780205487399
0.018271802257664674501
0.018250794129712616387
0.01823534912412941647
0.018214551822347414822
0.018199309426112992433
0.018178783999846358926
0.018163427537420298585
0.018142701679774816959
0.018126683610977536998
0.018105438149309566187
0.018088881766297245507
0.018067256731164903216
0.0180507911830730082
0.018029733461843396036
0.018014551173871153761
0.017995045899077105611
0.017981620850451712768
0.017963587102733900858
0.017951081553667497942
0.017933314767934627892
0.0179202253827523382
0.017901659074101902019
0.017887104015374757915
0.0178673027955605912
0.017851743914860825763
0.01783140129777455174
0.017816360863580297386
0.017796649117996599793
0.017782800331766161067
0.017763876138818742584
0.017750536179777353513
0.017732155037176317025
0.017719111344368911054
0.017701414604191695323
0.017689003899608181369
0.017671484331629128128
0.017659543105581487765
0.017642207866704246594
0.017630406220162889164
0.017614118083261534609
0.017603151542804198332
0.017587777341891208671
0.017577808718644859221
0.017562851304363163996
0.017553114197051328249
0.017538101417459091985
4.0475074896206533943e-05
5.5403890689804183572e-05
6.5075173817060933171e-05
7.9916452172147108652e-05
0.00011443952096692618071
0.00016390633138336585615
0.00020038592580620472961
0.00021889612571165880132
0.00023067926290524427856
0.0002498621478087753112
0.0002976906162921123724
0.00038209528331518201761
0.00044380931649684823934
0.00047196228448263436795
0.0005006952605067764182
0.00056761495652273279578
0.00064886208946265044525
0.00070261794937567518659
0.00072536256288069833522
0.0007367007659525295557
0.00075636265114621182605
0.00080956820184168831311
0.00089946657194121966937
0.00096376916446621566526
0.00099823293901924663001
0.0010202720259314748685
0.0010545197342865777947
0.001132339533207199966
0.0012937705867452902343
0.0014608726493936330468
0.0015999725897827472322
0.0017086594086557068892
0.0017965822133790133701
0.0018637245752599633421
0.0019046103376140393129
0.0019262623244897328096
0.001951049768115884972
0.0020069534523151112693
0.002113603475039547118
0.0022185683412402688701
0.00229551014249027149
0.002338487306086650154
0.0023617886454549773083
0.0023920901484911255737
0.002461110544118430294
0.0026641981404561831427
0.0030002243388891703182
0.003275712944652740214
0.0034461542167039467717
0.0035212543506237237688
0.0035450118339495589707
0.0035600484994794045698
0.00358988643015567023
0.003660111453465026126
0.0037779064156114143536
0.0039234867688909590491
0.0040804142374777111965
0.0042216388254601748195
0.0043218162563181438188
0.0043721598685078971389
0.0043898513067798456203
0.0044069667529690274149
0.0044535502282097225168
0.0046237590245598557404
0.0050966021157757947571
0.005525230859424926956
0.0057688642981539332497
0.0058641331308254916049
0.0058823829665353303056
0.0058798396419625443068
0.0058732309977479078486
0.0058733733006391085352
0.0058859800738597376282
0.0059478328979668832616
0.0061783731488216468708
0.0065735799697615960799
0.006875188995887005633
0.0070527963613591683478
0.007121835820644756114
0.0071373052569193712324
0.0071559472690464823175
0.0072317645562057332811
0.007542433968937368137
0.0080420195825787708921
0.0083831097986095462482
0.0085754214288270708133
0.0086679247138422670094
0.0087067505544522923178
0.0087245635717899863021
0.0087466323431821171169
0.0087969913170894524501
0.008953669141757988198
0.0093151303780368323315
0.0096144863272189552694
0.0097804132578761960454
0.0098330210640623499918
0.0098316442510577948394
0.0097954291216270292231
0.0097165478903719765258
0.0096886442179360144494
0.0096936573000095879737
0.0097537079881955101451
0.010028589444229341759
0.010766409991807670068
0.011441397975282222021
0.011870160833274268422
0.012074566785362934526
0.012151264502508068305
0.012226068339059620316
0.012407372521145827726
0.012977951305607698593
0.013793617229596152191
0.014327586396466697807
0.014549142100622814919
0.014575492772699333993
0.014510303498623658425
0.014266557663820636503
0.014132600123833879285
0.01413855776173822236
0.014319860181390127105
0.015127804047283519018
0.016154200124701454527
0.016680695937808538015
0.016848857257301268903
0.016878466863969095874
0.016920630818978581872
0.017080948684926836045
0.017328084099199062701
0.017423020381568374987
0.017414977075469871559
0.017273001490569452748
0.016782088319713679703
0.016377493241354120629
0.016213566084435970804
0.016185311736745543881
0.016200012253184684768
0.016287909003820190412
0.016448691554789389435
0.016574250488373288431
0.016669221429043333538
0.01673644904345148593
0.016770020947172916553
0.016778225822678904944
0.016772938056903895915
0.016729976200180275703
0.016592422292394545108
0.016470986471822723213
0.016407705651183560058
0.016384996797872770219
0.016382453697841546647
0.016386597534222089451
0.016399567061666522894
0.016416258097988856157
0.016448937152273360868
0.016528637353135165744
0.016649072267413321524
0.016776459540293643669
0.016895951576189838228
0.017004998331137520517
0.017110259982916823512
0.017221600920411469365
0.017348318106018310175
0.017487246490094407458
0.017629656383131103725
0.017761648587570452035
0.017874321832531250842
0.017966496869150326565
0.018048308330976127467
0.018132719913277119128
0.018233004249164904559
0.018353699035498823727
0.018494266243805571742
0.018647964948006651859
0.018800793228709269944
0.018944799885388316496
0.019073267071545711715
0.019185830278723021297
0.019284562526034321889
0.019377877990208850628
0.019476415443953176698
0.019585962446934990916
0.019712502793791133321
0.019852159278176802204
0.019999832910962894034
0.020148000959672871663
0.020288531725636653469
0.020417507610675428298
0.020530025376496285894
0.020626575751241618684
0.024185526742943875417
0.024202014799726681571
0.024211401445606524352
0.024215312043227851108
0.024215682190334111845
0.024214555935700265987
0.024211976914388026738
0.024208270607575223254
0.024199746168606171837
0.024173691363974014745
0.024121545634118852358
0.024069710373767372324
0.024018491314689662669
0.023970258763657912443
0.023923932687757429316
0.023881478758780598504
0.023841576671535462395
0.023806264822922054009
0.023773811826777020706
0.023745305195150948757
0.023717930255197281625
0.023692632376214120549
0.023667263344659635049
0.023643883232083898194
0.023620830782277675575
0.023600070182653982986
0.023579238943555812236
0.023559942727888878028
0.023539741008751641216
0.023520649574817857619
0.023500415903806675527
0.023481313565467155924
0.023461185156216927267
0.023442319911268178628
0.023422011384352181551
0.023401802907247207242
0.02337875970907946771
0.023355442441257843328
0.023330271277933040813
0.023306603373255425221
0.023282219918242801071
0.023259468403017683619
0.023235494382940941743
0.023212553518150449983
0.023187990041127721358
0.02316434601961405923
0.023139185988204913347
0.023115552097474914572
0.023091101584251351453
0.023068502466094962383
0.023044482863136987044
0.023021166588363457806
0.022995241415599977641
0.022969878133242402352
0.022942384893771768095
0.022916423363134454799
0.022889050411474830965
0.022863571244730186705
0.02283668544754787269
0.022811558381873743573
0.02278479755238950466
0.022759769700078855137
0.02273305656454581089
0.022707905448900882195
0.022680663306962594444
0.022654585260966548371
0.022626249835773545177
0.022599290711049442593
0.022570467370081784969
0.022543551605216153449
0.02251538420536951246
0.022489489054447611011
0.022462547275046002709
0.022437647850962642165
0.022411506967569067711
0.022387152465848832172
0.022361241580467372536
0.022336519312790823616
0.022309829125046570092
0.022284308549274437633
0.022257399287341057825
0.022232243677837736084
0.022205583745860773409
0.022179944985843864924
0.022151907297151583048
0.022124706567190816076
0.022095391426003072044
0.022067451056907168294
0.022037751711257342474
0.022009819306396099375
0.021980875137658874297
0.021954587622746112724
0.021927794714283448813
0.021903540814437984924
0.021878136952908740914
0.021854257739262607924
0.021828491874409858969
0.021803579328908834212
0.021776444589553377307
0.021750179410107799843
0.021722049568844156026
0.02169530839922471574
0.021667310668780741245
0.021641352171188735914
0.021614872580501237609
0.021591067019120776388
0.021566782807942004585
0.021544681959440425967
0.021520478543901763041
0.021497744527533859532
0.021471895825022627863
0.021448336673472668396
0.021421962764646713256
0.021398505152604468948
0.021372322102546359446
0.021348649752398654589
0.021322283777005093114
0.021297691331958121252
0.021270523750512127653
0.021245435513212472534
0.021218668658004778693
0.021195442622008613121
0.021170722445643320314
0.021149609408451158082
0.021125627851606144231
0.021104133318402870656
0.02107864136101607333
0.021055041339977938197
0.021027274028521350524
0.021002070816306943335
0.020973123196598685014
0.02094815733392163537
0.020920405940599053063
0.020897525994418832129
0.020872386364969977568
0.020851472011752494179
0.020827481848058278235