/*--------------------------------*- C++ -*----------------------------------*\
  =========                 |
  \\      /  F ield         | OpenFOAM: The Open Source CFD Toolbox
   \\    /   O peration     | Website:  https://openfoam.org
    \\  /    A nd           | Version:  12
     \\/     M anipulation  |
\*---------------------------------------------------------------------------*/
FoamFile
{
    format      ascii;
    class       volScalarField;
    location    "0.0062";
    object      k_0;
}
// * * * * * * * * * * * * * * * * * * * * * * * * * * * * * * * * * * * * * //

dimensions      [0 2 -2 0 0 0 0];

internalField   nonuniform List<scalar> 
75962
(
3.3517157642554837251e-05
4.8975618871038228638e-05
6.0030968951854102029e-05
7.4373070493305868593e-05
0.00010882323008264317568
0.00015460625828470181647
0.00018086652057458356153
0.000190609595921482981
0.00020010475837788804267
0.0002219665314589726508
0.00027939122397158811092
0.00034166446350243943279
0.00037891270200685848047
0.0004031013175427684489
0.00044834355136013644789
0.00053047194730705346261
0.00061074631119869811444
0.00065983629116618753088
0.00067830103052597321128
0.00068647748683419091472
0.00070107776401445254331
0.00073754189414775863341
0.00079117502760610064656
0.00083576966771505836144
0.00086544400746227140471
0.00089311669937407905419
0.00094475907782950346078
0.0010537673080930080784
0.0012016921952232137612
0.0013450700174435783422
0.0014536201034152571292
0.0015326869026579224842
0.0016033844081826992452
0.0016711842774393722948
0.0017238053786866678729
0.0017540071005903768754
0.0017772721988540539795
0.0018227625883639264961
0.0019055510321103338259
0.0020047728403838286498
0.0020931666980696624417
0.0021522047863665356993
0.0021848413540686514346
0.0022178383958742190103
0.0022873248250526679801
0.0024781189744606580729
0.0027627725757763147915
0.0029907265483784251092
0.0031235957139222969917
0.0031752044043771442301
0.0031879542271394771535
0.0031965888654828080243
0.0032163266720857553588
0.0032702678222593711474
0.0033862441901877089571
0.0035238587687154558116
0.0036708663453837516062
0.0038112625654189761192
0.0039225681994184856058
0.0039887636916021255995
0.004017736851915770617
0.0040418331305116256963
0.0040960277349457408988
0.0042646324143256553532
0.0046370973728560140395
0.0049492203468085374518
0.0051433903047552456331
0.0052382189331186632814
0.0052775280102167988414
0.0052961980874491340968
0.0053099658962821203942
0.0053249646953059254217
0.005348429456204792723
0.0053960775158902090157
0.0055147404976521267189
0.0058151657748653478447
0.0061312460088305941602
0.0063381224465469806692
0.0064258440720474079705
0.0064599371987902592246
0.0065195428970279585557
0.0067070940300292206798
0.0072268100761985511193
0.0077273192178069138522
0.0080515985123869281137
0.0082284916312963946039
0.0083122325495980191323
0.0083477267904489577816
0.0083594813627489855667
0.0083609466046198031852
0.0083632082873363929737
0.008381004551096280647
0.0084778199434752104374
0.0087747743029135318732
0.0090093711178714369625
0.0090957813568131266196
0.0091022081497186633353
0.0090717707562772698093
0.0089708809186582524203
0.0089126339018361280114
0.0089061249447512369493
0.0089338779777618001349
0.0090895593703431299543
0.0095900161669420901783
0.010147551057073333353
0.010526345691365505963
0.010724964713046901063
0.010808146777259280621
0.010886945744988420215
0.011067217080275325303
0.011606019987272973848
0.012394043133029873996
0.012966120869705872673
0.013251156314412480472
0.013320117547764780824
0.01329933187004486185
0.013166956181724346134
0.013056016788167069953
0.013054850727114779632
0.013175981166730034097
0.013760538442951093449
0.014581010108349855281
0.015019932015670912212
0.015164103705888895904
0.015177066927134764268
0.015172436196108562631
0.015185212935008542828
0.015241151390151103789
0.015260028762043967993
0.015232582785794233221
0.015051680439591968302
0.014646002770033451912
0.014408085991886941668
0.014336458625905336081
0.014339948503212639891
0.0144078624302580241
0.014615626163328539547
0.014776833547840111452
0.014861486325891409485
0.014897306527520848968
0.014906050042274840428
0.01490531433590923556
0.014898070929762273484
0.014865643500336082894
0.014769955589442553337
0.014671320901065655964
0.014601057358720819293
0.01455858919556810363
0.014537940925966190073
0.014532652024123939027
0.014534016356585473251
0.014547803221293700154
0.014602618725815454115
0.01475817269535344145
0.014950333980501537279
0.015130615261719838546
0.01528656584133449188
0.015406113964468859737
0.01548500819408277912
0.015527064840011700966
0.015546885007673798967
0.015559726015723652701
0.015582310782157958451
0.015635502538432041048
0.015765278841779559876
0.015919998613517914732
0.016066527454189176438
0.016198591055176153608
0.016319568500826258511
0.016438929815918754129
0.016566365424866492245
0.016707453501752698999
0.016857170600485412576
0.017006539264273125289
0.017141908479524400194
0.017250581141935693308
0.01732654662318718064
0.0173715419679390283
0.017397252150510373464
0.017420613272826752232
0.017460638837861492539
0.017532096859351968543
0.017640856766317786902
0.017786754649650605986
0.01795891317150156985
0.018144697691625730207
0.018326090525013605248
0.018490421306577461275
0.021780737392233701782
0.02177983714044837496
0.021776004618175914818
0.021771906355267076766
0.021768140827338702814
0.021763557872013363642
0.02175424193930039149
0.021730642433389971147
0.021695639238698626039
0.021659597684291258257
0.021622462927998641752
0.021586223969932510913
0.02155051767392243342
0.021517079753447979074
0.021485316688954734371
0.02145663340232742064
0.021429613791545103901
0.021404855598793202931
0.021380774408303979128
0.021358779404269601782
0.021337844586018235582
0.021319310246453913871
0.021301347990105024
0.021284951201434799267
0.021268440614330814953
0.021253105812729447543
0.021237192248425015156
0.021221957180093592443
0.021205847170772083865
0.021190628836138675206
0.021174732770957091499
0.02115954622829749332
0.021142980703780879514
0.021126183133938714054
0.021107220666609791127
0.021087485590870386903
0.021065500206276774331
0.021043269658094700125
0.021019947521523772715
0.020997733885191730008
0.020975444202112104169
0.020954482375979008313
0.020933273500660379979
0.020912886120049739569
0.020891800467572017863
0.02087101568239445662
0.020849332047772332899
0.0208280889463392134
0.020806207199129504726
0.020784756716005034494
0.020762176500238826299
0.020739548945212848974
0.020715659746140400316
0.020692319279768538881
0.020668482381731939634
0.020645802667998133795
0.020622643183703166792
0.020600384082975875533
0.02057730964015672126
0.020555121882186631888
0.020532229314798734754
0.020510292839883759175
0.020487306488447605546
0.020464411606702488655
0.020439721145562118887
0.020414883252617269105
0.020388922522718698482
0.020363881930780709795
0.020338823980290431093
0.020315456124604468202
0.020292597831909012923
0.020271463579084686435
0.020250366117601212301
0.020229825790127414775
0.02020807454056929367
0.020185985743126265424
0.02016278703434252334
0.020139921894946333919
0.020116859340927079058
0.020094438600293001995
0.020071673150722807444
0.020048937777112016412
0.020025364319334958141
0.020001432827565800154
0.019976696284498173667
0.019951852637618436304
0.019926684938322697382
0.01990185353316889505
0.019876826354904873068
0.01985226493054828914
0.01982737933383106263
0.019803372424622388975
0.019779252534519231599
0.019756166307940799948
0.019732531921168347533
0.019709183534725571024
0.01968490509703162139
0.019661016709754609161
0.019636777940754315819
0.019613126418124189609
0.019589119615026288901
0.019565341551592688174
0.019541552931776416668
0.019518498330277325031
0.019496165985532769305
0.019474668471264711817
0.019453356631875137056
0.019432193026673736519
0.019410213076418787043
0.019388278874144491276
0.019365275899003078081
0.019342708483576356165
0.019319438076605324056
0.01929670688148764357
0.019273787413657393619
0.019250921794779149443
0.019228033683918788199
0.019204821780964182604
0.019181877980081869783
0.019159231455250360504
0.019137292538975298611
0.019116159011854483296
0.019095705551444821374
0.019075370696882115729
0.019055132200528533681
0.019033510368605871532
0.019011611075423890532
0.018987879453365986288
0.018964322680378183084
0.01893975781675848874
0.01891608386031655431
0.018892190198002572349
0.018869889318615933049
0.018847229697524725545
0.018826114906489672951
0.018803950003834467297
0.018783089315507029565
0.018761267571711742058
0.01874103318177784
0.018719613833451980572
0.018699941835780071325
0.018677991887446843133
0.018657863910684812508
0.018635095090282237373
0.018614152573206393937
0.018591309186851402713
0.018570618531840995397
0.018548766889136317909
0.01852964659020611346
0.018509030516266979788
0.018491000075076251263
0.018470967137439460448
0.018452755709414819796
0.018432105559290343916
0.018412807812284080061
0.018390530591644256575
0.018370218201159430049
0.018347264131189467556
0.018327023319176818233
0.018304504710112814991
0.018285134984675394804
0.018263200220137554286
0.018244680370745360726
0.018223105505078395633
0.018204662813769735552
0.018182777493032809685
0.018163752890028674047
0.018141399884076130772
0.018121792110211334265
0.018099097213781761145
0.018079229883500455567
0.018056440074189914619
0.018036614564163465368
0.018014015603681699657
0.01799463487949348392
0.0179726641514082984
0.017954420014483555429
0.017933282528766750913
0.017915837093045460654
0.017894888540911094849
0.01787705419560254097
0.017855621890890925607
0.017837582293095802233
0.017815778247683558555
0.017798026084759478727
0.017776623722306619108
0.017759221672641690992
0.017738271611674034239
0.01772110019865178257
0.017700377625881853066
0.017683382783472929856
0.017662963535310167995
0.01764641389248318773
0.017626534789634086542
0.01761059443739148439
0.017591499932414791235
0.017576241162714889565
0.017557735027668271849
0.017542786561420282976
0.01752417403287815853
0.017508733613255805794
0.017489495975176551357
0.017473338086640095856
0.017453502101155288218
0.017437121328873136927
0.017417152927500227644
0.017401065089360505389
0.017381444630910181104
0.017365991459069623354
0.0173465887681696386
0.017331892307052620961
0.017312772527307760534
0.01729848919326839457
0.01727966150128936243
0.017264968694521085069
0.017245724850119378141
0.017230074091499857775
0.017210159960177582456
0.017193912425010407508
0.017173819223328501415
0.017157927995585405684
0.017138448783466452008
0.017123837537506361728
0.01710592751158408753
0.017093049462383783088
0.017076497293786539744
0.017064582796694670319
0.017048452180527091937
0.017035850937734110799
0.01701899044069146022
0.017005034917932329575
0.016987093778698062613
0.016972234810638239799
0.016953811385499593239
0.016939624090695628439
0.016921635350660473723
0.01690838199310850179
0.016891066364206574341
0.016878288891008143974
0.016861482025579514754
0.016849100381887839595
0.016833172766210782734
0.016821554522988047681
0.016805689468792611024
0.01679454562023561387
0.016778901678140393378
0.016767819142205410421
0.016753328309298994026
0.016743134097160754931
0.016729585757654555356
0.016720378564302581376
0.016707087838480419451
0.01669797989537386701
0.016684489531518950645
4.0299858244337755141e-05
6.1239410776788629496e-05
7.370916399844325219e-05
8.3042916278433385113e-05
0.00010346824251041563151
0.00014918636764234846723
0.00017923307731841365805
0.00019190255088580478052
0.00020874089689895059994
0.00024744089461933925066
0.0003134881816416116955
0.00038061245232832194123
0.00042544577642446046754
0.00044672569185759012853
0.0004714374718957648207
0.00053213980912274238058
0.00061521804892982682837
0.00067268831731285758362
0.00069848484440190861371
0.00071073451495480045609
0.00073187600124148186314
0.00078563897191660022213
0.00084152189031897882843
0.00087319763115038633028
0.00089691494737638769157
0.00094095011687474747804
0.0010308894357552720374
0.0011491700679647773916
0.0012704759772994313454
0.0013805386793656125415
0.001482284347756347969
0.0015781463123647168807
0.0016601558983794196481
0.0017186707077147241138
0.0017568894250142620423
0.0017913805440832098782
0.0018414319304940771158
0.0019169644659769932704
0.0020114190404898258692
0.0021064814107269861677
0.0021828832892765307264
0.0022309043708484913721
0.0022573887466026142969
0.0022863306915249181038
0.0023486898195635612721
0.0025292665053607008355
0.0028820085693407244444
0.0031780461780590183937
0.0033575667746872611512
0.0034317945777634830534
0.0034489653990232263699
0.0034504158386291631545
0.0034526383881247715325
0.0034634434003445470872
0.0035053729253880041607
0.0036361524870617417671
0.0038167910657667821449
0.0039771088167186476048
0.0040995885716010697919
0.0041719681005449602354
0.0042020671451688529352
0.0042187254087858424081
0.0042523624033678989603
0.004355030561318057325
0.0046754928133872714416
0.0050592477227957826508
0.0053201352521799090411
0.0054626065417314158615
0.005523769746316272225
0.0055457536665490204594
0.0055550025838876637696
0.005564218650445770277
0.0055823081543673724186
0.0056239530866553739605
0.0057401062957027956107
0.0060689651178580999655
0.0064499859058264807574
0.0067097462918362087841
0.0068303924073407169468
0.0068686454825409417116
0.0069082533325545850481
0.0070193191940960495551
0.0073856672618369785879
0.0078816228193972388827
0.0082353643288726012528
0.008447830549612215037
0.0085582489094840289573
0.0086080639294704129616
0.0086263087451102001685
0.008632434310087583676
0.0086417635282945385461
0.0086723336624012683366
0.0087939622388836669736
0.0091136258185602128656
0.0093633933744698850249
0.0094742839589468021838
0.0094950867348041617655
0.009482935586030005401
0.0094186565646184015888
0.0093580952226229481561
0.0093459153890312757218
0.0093597465376527039932
0.0094565078616676429002
0.0098613889887977038834
0.010551823219785264746
0.011038297015074563859
0.011295522894563021429
0.011406406684536702506
0.011512639170189221949
0.011751832982981736189
0.012356218203883745366
0.013034145973652440376
0.013527702387144050281
0.013770373772161293921
0.013823441199641442814
0.013796490861330456407
0.01365412147109362935
0.013550118044379668228
0.013554044996825616309
0.013698896395135870541
0.014365156775471113124
0.015256716176058260012
0.015724581978387632691
0.01588050442744695992
0.015915074279953894676
0.015967878105156096957
0.016129014451179226469
0.016298134517951440997
0.016352214985225696497
0.016334643458991549014
0.016174611763570125728
0.015727529417511570964
0.015432703357444746417
0.015339141147279801783
0.01533970084489440569
0.015408388038901071893
0.015617466402712273238
0.015768607679470112576
0.01584009795377337021
0.015862835498407983764
0.015865178801863343699
0.015861033540358990268
0.015839383277879426348
0.015757397229603099797
0.015629399655043511169
0.015532876542913182441
0.015469879463730242322
0.015435857705522327069
0.015421178019479481192
0.015418052919481058799
0.015419999417119243865
0.015434219812613617778
0.015491157845568761034
0.015658709328969011576
0.015853160932650840059
0.016010934589111642384
0.016124279968641266197
0.016191442497611591156
0.016224439394601559983
0.016242291620069453095
0.016268222721020571958
0.016326989381662805612
0.016430885559984908378
0.016556806078919995839
0.016689515066938390847
0.016819215878666343017
0.016938744439282265447
0.017050931904721622345
0.017162308127102364474
0.017283330029453442683
0.017421893944258869807
0.017580193828240626291
0.01775112588833715338
0.017920586932085182108
0.018072157742070528441
0.018193235474430243664
0.018277526663307206573
0.018327329238192469063
0.018351759098597795333
0.018365118272602506261
0.018381566615513485891
0.018415778289784027338
0.018496240999748395778
0.018646290792409227904
0.018840073810666733978
0.019060261734868653993
0.019285050249952598311
0.019488440837127057881
0.019653824325625495612
0.022960452798474306757
0.022962440238908480433
0.022962400086294045692
0.022960227558505845458
0.022956645263985088479
0.022952226628242668877
0.022945344412439550724
0.022930436618994212011
0.022896284546359356449
0.022855221550998991442
0.022814160019005474273
0.022773271361688926517
0.022733674055054324536
0.022695222542468286575
0.022659039611694908878
0.022624978193547164856
0.022593870468668030005
0.022565102897958398687
0.02253891100155120536
0.02251428951838720105
0.022491378919636758477
0.022469419441252080905
0.022448868365413907761
0.022429089570470420179
0.022410501906227387608
0.022392475611535941904
0.022375227593814519395
0.022358044484947277308
0.022341079528767088941
0.022323895239649112904
0.022306942432301666429
0.022289827915497908289
0.022272797930023111035
0.022255244144887127017
0.022237085854264055512
0.02221754099131793142
0.022196563943004777447
0.022174082095729876624
0.022150972767326283785
0.02212777439049292208
0.022105174855512124688
0.022082926706431492414
0.022061064378851292372
0.022039126058059396729
0.022017186409976352568
0.021994894802785394661
0.021972400622999290615
0.021949757068348622197
0.021927287737275889812
0.021904944912173544141
0.021882522293898337695
0.021859436551612251853
0.02183550371890822378
0.021810672631572939478
0.021785535349164622532
0.021760397944219828092
0.021735693591244460016
0.021711232191021466453
0.02168702014072489484
0.021662707512872646926
0.021638454560517564329
0.021614157101538016004
0.021590082622203386059
0.021565787298475268263
0.021541090979847632436
0.021515486915723847777
0.021489116425925356563
0.021462287166919818276
0.021435498042177359573
0.021409300485698404271
0.021383942069104260042
0.021359646197556925173
0.021336182987155134089
0.021313301875420360976
0.021290469141547693072
0.021267457109496352985
0.021243884053673674217
0.021219959652250718757
0.021195639133919211283
0.021171419663013980872
0.021147176305010534358
0.021123185743608614839
0.021098773908006459438
0.021074049410519341691
0.021048290620452794059
0.021022096133877718471
0.020995198080860918294
0.020968393000010895899
0.020941336588864111617
0.02091463547056590308
0.020888071525249126553
0.020862172748336398065
0.020836948412245325651
0.020812490300124136811
0.020788459799195042194
0.020764521692565048039
0.020740139709531826839
0.020715387422684049257
0.020690069435508984946
0.020664776956135690739
0.020639116732023152917
0.0206137716676320637
0.020588059672865997862
0.020563181745601358252
0.020538595921929296562
0.020515490971471071063
0.020492841120300961388
0.020470948207776781119
0.02044855339167429148
0.020425796782192567197
0.020402330187439504661
0.020378572843673614656
0.020354627785152703406
0.020330873452729714135
0.020306878593384897203
0.020283389269521685111
0.020259068418802539391
0.020235201020902832819
0.020210121817225819296
0.020185924811010586
0.020161426127718016371
0.020138705010252166971
0.020116301521864467933
0.020095443178674822493
0.02007386478258516363
0.020052892820851438149
0.020029606416357752241
0.020006610278070244974
0.01998093493174471838
0.019956166573697548677
0.019929596110023511946
0.019904847032119626221
0.019879346169449266246
0.019856450311050110463
0.019832873325971878825
0.01981165425201314792
0.019788785725562411943
0.019767816754251786582
0.019744893796413458958
0.019724191451913827833
0.019701367383170066
0.019681017517140894646
0.019657657495571231876
0.019636660340686798443
0.019612269903943470306
0.01959031862469811161
0.019565722269251083903
0.019544151963209289297
0.019520645509910426046
0.019500652246232555442
0.019478438931428438546
0.019459523552652138734
0.019437969043939851144
0.019419011548752196372
0.019396985690575688915
0.019377072530093283897
0.019353505679156769032
0.019332612171913357568
0.019308361926180198087
0.019287526850911163728
0.01926377713399784336
0.019243930803068569346
0.019220845784912399257
0.019201884059627881418
0.019179019973185027631
0.019159798363174294911
0.019136313252172743038
0.019116191359761530721
0.019091914714725280455
0.01907110994253750913
0.019046277694476781983
0.019025170279321934608
0.019000373534450602786
0.01897968383057544936
0.018955628917526293198
0.018935788807632344954
0.01891265094269299965
0.018893980507172700861
0.01887162131848993743
0.018853775909842749453
0.018831536736839227936
0.018813190001609487317
0.018790113992553592048
0.018771063398130748145
0.018747417800555419426
0.018728564584710522684
0.018705455453700670088
0.018687303025166315806
0.018664966162222469681
0.018647345385901618886
0.018625443378803091532
0.018608170389280458829
0.018586653257148217505
0.01856974692368099436
0.018548649503909532543
0.018532409754954383418
0.018511967163880576476
0.018496424004353112513
0.018476576144573261112
0.018461225597987841046
0.018441251868344409048
0.018425369473034563378
0.018404531934607618743
0.018387624479094283325
0.018365768357079096523
0.018348234459691869364
0.018326124963598457163
0.018309026373542043598
0.0182875877899787119
0.018271400239986201192
0.018250411377697315501
0.018234978711092541398
0.018214186067877440045
0.018198940504601950757
0.018178404635775625292
0.018163034658456908566
0.018142294047282337549
0.018126264557544822381
0.018105013021037341669
0.018088458421633358403
0.018066844208733449234
0.01805039731280648832
0.018029364466460418015
0.018014209596376198202
0.017994730833150993088
0.017981326254434520928
0.017963302774193414674
0.01795079553095390093
0.017933014478802682123
0.017919901433228708348
0.017901303579119717813
0.017886716656544551785
0.017866888535279599332
0.017851312683663859288
0.017830966805620473287
0.017815933601926726287
0.017796237805222409056
0.017782406770101552573
0.017763498597052382322
0.017750171531136369613
0.017731798503357158042
0.017718761663334893497
0.017701071571973734514
0.017688668068005463513
0.017671158991394965432
0.01765922974559164596
0.017641907473910801302
0.017630120661313506553
0.017613843447477791487
0.01760288361009995986
0.017587512078707893959
0.017577541222828192008
0.017562579234930399824
0.017552836276889603739
0.017537818122865880821
4.0464155085385164565e-05
5.5387427561590167309e-05
6.5059571883365250157e-05
7.9922984647251115852e-05
0.00011449270448396125296
0.00016394272108734351916
0.00020037749974366217908
0.0002188508158965319294
0.00023062913979985207773
0.00024985171762794859207
0.00029780631815589205446
0.00038219530606008531156
0.00044377989064597265752
0.00047186110822758923133
0.0005006584244592347582
0.00056770001836581318599
0.00064890168772553939898
0.00070255560235882796253
0.00072523102804766727963
0.00073657135628089215069
0.00075628447665193913527
0.00080964772821366616171
0.00089952957526435095223
0.00096373169742006604011
0.0009981265669672483281
0.0010201684391055066293
0.001054487027380526451
0.0011325205259793587331
0.001294078207319650101
0.0014611174880307278671
0.0016001130853944228825
0.0017087109594864210906
0.0017965660443389963249
0.0018636324567312477062
0.0019044391273627134329
0.0019260581108793677768
0.001950885447646344981
0.0020069459469953540923
0.0021136681072562099604
0.0022185862946716926845
0.0022954253294867350138
0.0023383064946241871596
0.0023615758563777845304
0.0023919416162695491396
0.0024611917263755371359
0.002664939899833787193
0.0030009444816238638014
0.003276098257710237556
0.0034461623269771094608
0.0035210235517482177219
0.0035447084036087706839
0.0035597719405868880928
0.0035896845974460085682
0.0036600868236709217275
0.0037779855382583590884
0.0039236373531114816793
0.0040805670007967422344
0.0042216923188419571561
0.0043216883467368212915
0.0043718579411482407643
0.0043894868890010079604
0.0044066500529968515021
0.0044534218535605511746
0.0046243806239744450134
0.0050979650255785846982
0.0055259245932905726867
0.0057689520052196588407
0.0058638227135890882979
0.0058819176718061449635
0.0058793384343362592448
0.0058727409854081773569
0.0058729061840928362473
0.0058856165308457343219
0.0059477904810271370675
0.00617923099677072582
0.0065743570472520307044
0.0068755555910320143367
0.0070527249045449985979
0.0071214625241069117942
0.0071368527286288126199
0.0071555639459876009545
0.0072317755609180283533
0.0075436917764592718166
0.0080430087700743245482
0.0083835314982708929177
0.0085754065561467873041
0.0086676586803358292993
0.0087063677761310704489
0.0087241533148133196263
0.008746263685512544947
0.0087967906372075910237
0.0089541453123793222219
0.0093159129243495959749
0.0096147774760398894978
0.009780208117438418669
0.0098325159028773319314
0.0098310856853828128277
0.0097946892833762275177
0.0097159137422717697236
0.0096881868164228057694
0.0096932846730892318482
0.0097537053481939074012
0.010029951843396266511
0.010768885759445573011
0.011442887530807393376
0.011870710328719624033
0.012074421198078775716
0.012150895799917181203
0.01222590024444048136
0.01240791978583544522
0.012980423791554437929
0.013795557317624525598
0.014328334294963251602
0.014548885765246518179
0.014574812549738622169
0.014509140665457359587
0.014265094449134773508
0.014131940241721393722
0.014138261838922097646
0.014320818607263188435
0.015131571313411761731
0.016156369121933258914
0.016681107486051224148
0.016848366950035130463
0.016877888114469032088
0.016920292074768066709
0.017081330001829042597
0.017328143772539602446
0.017422537226324055076
0.017414240754491081692
0.017271337644585573606
0.016779460965429836283
0.01637592088790334327
0.016212694965320410129
0.016184722999645097946
0.016199582488622209231
0.016287964401783951857
0.016448712969412224855
0.016574139185181906153
0.016668992343538503731
0.016736110325162829177
0.016769587456444551288
0.016777741363463619106
0.016772393730822926505
0.016729142107121990762
0.016591289813096651157
0.016470099492898696014
0.016407017152461907117
0.016384429190362800877
0.016381924558846669426
0.016386099712927065797
0.016399097130981251519
0.016415809891951078925
0.016448580341083349904
0.016528513353611294645
0.016649023843714715054
0.016776421981478738255
0.016895887923877309783
0.017004910057083117564
0.017110175591454147848
0.017221558329617855237
0.017348327349293982819
0.017487288298281045834
0.017629692408969586254
0.017761644117156385331
0.017874265287425486481
0.017966399918684199111
0.018048199083449623092
0.018132631640106061655
0.018232961862201427228
0.018353712052311847019
0.018494334727077864355
0.018648067102314112853
0.018800898858835644878
0.018944882593371726448
0.019073305468445930083
0.019185817891041047345
0.019284514903193494817
0.019377834780903623046
0.01947641421951900112
0.019586029014278097393
0.01971263806284163228
0.019852333021939123914
0.020000005117572047103
0.020148129242382396137
0.020288593031654686416
0.020417498693479547295
0.020529956279870996416
0.020626458706094110557
0.024185214805950348144
0.024201657469250015264
0.024210997168257038237
0.024214861598249353553
0.024215201982336752307
0.024214059763795283547
0.02421149172573715258
0.024207807590155429323
0.024199282660863137562
0.024173112952693510957
0.024120926650833988264
0.024069066833119736465
0.024017817721330530362
0.023969564488657699869
0.023923239938186031256
0.023880813302476440463
0.023840956074686267541
0.023805690941843614394
0.02377327282084036944
0.023744781291593460709
0.023717402357902921117
0.023692091156495165977
0.023666714497750686308
0.023643341569327770701
0.023620309688607850351
0.023599575157193963815
0.023578768451898365899
0.023559489003071185098
0.023539296372343775088
0.023520209725921767396
0.023499981620262743592
0.023480886233378937128
0.023460759822165666577
0.023441881241781221262
0.023421537105812854224
0.023401274516751485039
0.023378176012787830335
0.023354825969792936124
0.023329657948738372758
0.023306022950591365195
0.023281683908755394785
0.023258968558948326516
0.023235011422770242284
0.023212071541151273885
0.023187506044309160597
0.023163868615979153753
0.023138726607589404222
0.023115114672718879707
0.023090678123775115055
0.023068075079555751261
0.023044032092521392341
0.023020681605047839391
0.022994727375652109641
0.022969352026188962629
0.022941866181812167746
0.022915924255175645213
0.022888572700624287143
0.022863108923884843671
0.022836229945301982081
0.022811102657367122309
0.022784337532001968513
0.022759302177126766731
0.022732576767807658596
0.022707407160010642522
0.0226801414677940405
0.022654038984092354087
0.022625683985557351607
0.022598715311671235817
0.022569895632474367558
0.022542997352616268164
0.022514857790968338669
0.022488994594237469993
0.022462080518599061851
0.022437198972396675545
0.022411063920724748344
0.022386704383802601137
0.022360780579813430147
0.022336042323373890561
0.022309337851476880588
0.022283807669567824022
0.022256892138990128777
0.022231728100670714032
0.022205051927712205623
0.022179386582979354614
0.022151315361198426618
0.022124081006348529643
0.02209474101753151204
0.022066792007100464318
0.022037103819095009427
0.022009200580424687077
0.021980296193049791292
0.02195404899262926729
0.021927287688427350015
0.021903051138344717397
0.021877648599430300075
0.021853757133479485841
0.021827968828839930393
0.021803028237752295621
0.02177586453733547367
0.021749574954431513674
0.02172143105609444097
0.021694691584138184326
0.021666713768062048628
0.021640790674121536397
0.02161435366772629374
0.021590586082547651159
0.021566325274581524957
0.021544226812014396349
0.021520009074374898267
0.021497250228508225228
0.021471379100886475028
0.021447804448040581199
0.02142142308374244547
0.021397960268464844696
0.021371767266873578639
0.021348079547501595116
0.021321694567663473929
0.021297089831562993761
0.021269925439237991754
0.021244860967004203234
0.021218135570864021799
0.021194954784672960513
0.021170270347555451146
0.021149169737805558617
0.021125173497225785413
0.021103639636988018313
0.021078093836062860439
0.021054439804047989093
0.021026633783326878491
0.021001415045498753043
0.020972478205140854951
0.020947542204346872308
0.020919830199831089546
0.020896989664244438462
0.020871880756694927844
0.020850986699481644654