/*--------------------------------*- C++ -*----------------------------------*\
  =========                 |
  \\      /  F ield         | OpenFOAM: The Open Source CFD Toolbox
   \\    /   O peration     | Website:  https://openfoam.org
    \\  /    A nd           | Version:  12
     \\/     M anipulation  |
\*---------------------------------------------------------------------------*/
FoamFile
{
    format      ascii;
    class       volScalarField;
    location    "0.0062";
    object      p;
}
// * * * * * * * * * * * * * * * * * * * * * * * * * * * * * * * * * * * * * //

dimensions      [1 -1 -2 0 0 0 0];

internalField   nonuniform List<scalar> 
75962
(
98940.595899660285795
98965.39343225263292
98858.396974763134494
98885.420860276251915
98813.184132033318747
98830.21521417410986
98928.959729038062505
98943.738833334631636
98910.358721070369938
98902.601461967307841
98938.06721070560161
99032.119051949601271
99136.762426988352672
99154.392548111922224
99084.293973413427011
99005.28275988632231
98953.378432770681684
98927.320038226767792
98940.688564388343366
99016.858945205691271
99110.947275154656381
99137.159805061208317
99094.309801241222885
99062.400352109354571
99079.375780934336944
99109.372226359933848
99122.953605555041577
99119.825429689706652
99099.006249786500121
99066.101879407317028
99040.081898852018639
99025.470829719721223
99020.79433309842716
99028.875546900337213
99043.556818310360541
99052.059417266165838
99050.10124362942588
99051.114540899419808
99068.857869384170044
99116.459261065072496
99204.392324837579508
99311.077376115514198
99378.147514646218042
99372.596464138987358
99330.675732971241814
99310.367161481990479
99325.174094764093752
99337.471337156239315
99325.878488770060358
99307.611431157012703
99305.068245535643655
99318.849965486224391
99341.045083224991686
99364.611041411757469
99387.631811038285377
99416.879283936243155
99461.616317475170945
99508.568736374509172
99522.870579347407329
99493.509878822442261
99453.364338428946212
99442.049502792302519
99454.180659638950601
99455.67864767559513
99434.720382501327549
99407.263567203553976
99389.556550639346824
99383.406949419659213
99382.447066217369866
99378.722693437550333
99360.31559088396898
99328.139711029405589
99293.449741746226209
99276.108963969061733
99284.030486361123621
99306.250094507005997
99330.437702461029403
99349.727882242324995
99362.032860104649444
99363.87670627006446
99355.376986396178836
99337.863078112262883
99313.823354926236789
99286.795492480479879
99262.143868455503252
99246.062037349140155
99238.713095210929168
99230.783510118257254
99213.588639399691601
99190.316364463360514
99172.949341336250654
99168.963417919629137
99174.552828101397608
99181.602797531188116
99187.133972539391834
99192.525041774424608
99199.621572086107335
99210.189486532908631
99228.511156071268488
99258.268827051302651
99295.424175236548763
99327.457996670811553
99340.618162564293016
99333.353589222679147
99316.505511221912457
99301.216185640791082
99293.615201533015352
99290.428610039016348
99286.802564764453564
99283.269586510359659
99287.884064535741345
99305.22387332690414
99327.557677902645082
99340.01104381539335
99335.864251651495579
99323.394041329869651
99319.205691841823864
99333.129776546382345
99360.520559751574183
99385.918889726468478
99393.472869905381231
99379.24667611309269
99352.685396565619158
99330.953228306258097
99325.980992383600096
99337.323369379009819
99354.405236594626331
99366.797191576319165
99373.211143036402063
99380.588831749759265
99394.217872716064448
99410.821003912846209
99420.607261099328753
99415.685041900214856
99398.430631702387473
99380.821734495577402
99373.892956720766961
99378.112887210503686
99383.199311824602773
99377.821077514061471
99361.114034210710088
99342.430700207129121
99331.728652891280944
99329.565588297700742
99326.642489281031885
99314.894540981273167
99291.664035333058564
99263.347505335244932
99236.721057040413143
99218.150821737974184
99208.745660421904176
99206.218618680504733
99207.89435783996305
99211.475562714040279
99214.855023396521574
99216.005086561432108
99213.424877604295034
99207.49147909374733
99200.823076736167422
99197.274718671687879
99199.084711526957108
99205.13674941334466
99212.898679335965426
99221.380019182601245
99233.338532016117824
99253.124133826670004
99282.494469559038407
99317.822268460033229
99351.048325890486012
99372.85136874881573
99376.821411401266232
99362.222124073610757
99335.874661590714823
99309.00834657222731
99290.493073617879418
99282.549070402033976
99280.68203364618239
99278.116894081002101
99271.959394535399042
99265.816980436531594
99266.450196694320766
99277.989235140572418
99297.338819915734348
99314.922620977333281
99321.022075354529079
99311.9551172676438
99291.319985920359613
99267.015488144243136
99133.940833252956509
99127.828968262285343
99117.051558643797762
99103.16614079248393
99090.416419399349252
99084.613679512753151
99089.701409299712395
99105.602902555343462
99127.781291353036067
99149.009613344140234
99162.882437871972797
99166.904166791209718
99162.891920491034398
99154.784145130775869
99146.149284153842018
99138.907890731148655
99133.019638340279926
99127.437120350063196
99121.577991602636757
99116.211372974910773
99113.032910109992372
99113.871842123335227
99119.720824505740893
99130.564209924239549
99145.706004602616304
99164.074060416271095
99184.455805585050257
99205.94869728613412
99228.097148904314963
99251.073957366228569
99275.205865929732681
99299.975559898346546
99323.258823486976326
99340.893641070390004
99348.344287760439329
99342.597564511976088
99324.087300013023196
99297.289538956945762
99269.327395187210641
99247.403401467498043
99235.847350999465561
99234.843033245095285
99241.359322968084598
99251.262125605178881
99261.451222171846894
99271.02890788546938
99280.910568568957387
99292.34106978654745
99305.217494948097738
99317.556550115565187
99326.536025768757099
99329.878810164693277
99326.980246842635097
99319.199769815153559
99309.223012970920536
99299.99362459454278
99293.737467041180935
99291.558473547716858
99293.450250037974911
99298.327454695550841
99304.182961559228715
99308.504658053789171
99308.700814774594619
99302.620960785803618
99289.066247658309294
99268.347354665776948
99242.771203043914284
99216.54465984046692
99194.727613745621056
99181.46862633562705
99178.439630825261702
99184.121769185658195
99194.396737473114626
99204.201547547534574
99209.524697201675735
99208.84014228041633
99203.324368038214743
99195.863793650976731
99189.427828574334853
99185.607164870700217
99183.971793710268685
99182.37258963919885
99177.86725013780233
99167.945049677771749
99151.57834492654365
99129.755319487798261
99105.203568208642537
99081.46207753730414
99061.638470796315232
99047.400417523007491
99038.506469686981291
99033.153357729039271
99028.976412686388358
99024.043532795360079
99017.442610741243698
99009.172390910302056
98999.635190937886364
98989.135918265354121
98977.766843193938257
98965.704660507515655
98953.747585416145739
98943.630669406164088
98937.69986528584559
98938.007425367439282
98945.258577070213505
98958.128968565142713
98973.479050767942681
98987.488303673875635
98997.101727456611115
99001.019580941210734
98999.86369248261326
98995.445420960022602
98989.567906520867837
98983.044050891607185
98975.67239710247668
98966.822642614686629
98956.46719303795544
98945.909194516367279
98937.778809758849093
98935.198313006141689
98940.464792560291244
98953.8307924875553
98972.949867889503366
98993.308958756344509
99009.607024203942274
99017.43607610030449
99014.637699051789241
99001.787359224239481
98981.715418783351197
98958.404238107817946
98935.877253386890516
98917.384443921211641
98905.02723020465055
98899.705144482562901
98901.269552954530809
98908.598785894268076
98919.70026689619408
98932.017134637426352
98942.978826578313601
98950.489332057841239
98953.388694729161216
98951.603759165809606
98946.103072847472504
98938.657518576466828
98931.419628257819568
98926.421432228176855
98925.250508843921125
98928.820414045534562
98937.293057885355665
98950.033228837361094
98965.64661705220351
98982.21412730839802
98997.553994510133634
99009.623924432846252
99016.979306709690718
99018.989606599643594
99015.98299930828216
99009.186366800102405
99000.431441691500368
98991.803193740255665
98985.175049263198161
98981.737792251718929
98981.737216180277755
98984.429568284249399
98988.253187631853507
98991.166373825020855
98991.143410849908832
98986.757401236260193
98977.614434727598564
98964.471715619743918
98949.03553380149242
98933.445242190879071
98919.606789822064457
98908.70660602429416
98901.032631750495057
98896.121739970185445
98893.107974961138098
98891.183931882784236
98889.921170662812074
98889.27799538106774
98889.375501968199387
98890.215843893238343
98891.482013523942442
98892.551890327085857
98892.721848172179307
98891.508466340936138
98888.877236314496258
98885.336456358651049
98881.874833287161891
98879.682519048277754
98879.851638789274148
98883.143543934449553
98889.825853557136725
98899.576880839886144
98911.511113959379145
98924.467730919524911
98937.352411715008202
98949.277902140573133
98959.468782628813642
98967.160562514560297
98971.691309656423982
98972.721658024951466
98970.364946558620431
98965.210513470301521
98958.306762450898532
98951.048203458194621
98944.947166896497947
98941.373918564786436
98941.238108082674444
98944.69852161455492
98951.123628555607866
98959.222955566860037
98967.268612884508912
98973.458338862488745
98976.407447535937536
98975.514699589839438
98970.98786494282831
98963.706055638700491
98955.066534356257762
98946.806322359247133
98940.796799813237158
98938.644429152380326
98941.308612209788407
98948.962047021181206
98960.981297166785225
98975.968681711019599
98991.835018756639329
99006.2120475036063
99017.055559084910783
99022.993889723016764
99023.481907420165953
99018.883407358007389
99010.362502689662506
98999.550863409633166
98988.049047408305341
98977.091667967004469
98967.463343463678029
98959.582131131493952
98953.657373520632973
98949.743839354734519
98947.803253001067787
98947.853139032464242
98950.001456504134694
98954.348947303704335
98960.853771361304098
98969.38127984352468
98979.837492462538648
98992.099935539110447
99005.867383589808014
99020.657953325222479
99035.917221160401823
99051.09803969184577
99065.768679955464904
99079.690312395090587
99029.313069643307244
99087.330640343905543
98892.15065774100367
98747.19619254443387
98770.166818532932666
98846.058602745804819
98862.448101236266666
98871.034519871900557
98925.386193722544704
98998.842131261815666
99054.089683490456082
99118.989069604329416
99208.638958051902591
99249.452010549066472
99196.554814981544041
99072.809082780382596
98961.807769309220021
98925.713589302860782
98955.769437486931565
99017.563093157368712
99085.52870893815998
99117.684567840056843
99101.720046251226449
99072.248139781760983
99066.580870180172496
99098.815904524395592
99143.051114008791046
99147.058047661994351
99101.503597624541726
99050.738487263850402
99031.54867800923239
99037.179303536147927
99055.240634070825763
99080.48348192962294
99097.661713868714287
99095.866314294820768
99088.656637251246138
99095.525682066378067
99121.070496760570677
99165.697182801857707
99232.82781708042603
99303.828896570397774
99333.724569304380566
99307.104523804504424
99270.693204621959012
99274.0490057431889
99307.844183649911429
99327.25204407358251
99322.652033028702135
99322.021260358567815
99338.058936232831911
99358.888132995605702
99378.307569789685658
99394.035475391880027
99409.229048720357241
99432.479986330523388
99473.025395299482625
99518.247817313444102
99536.445534689439228
99514.306669673678698
99481.247978466344648
99465.782368512445828
99459.867943647346692
99442.254951505354256
99411.292342076820205
99384.391309393729898
99370.597326249000616
99365.701947313689743
99361.185784227520344
99352.145879501229501
99331.672031727241119
99298.124085637173266
99269.090774001902901
99265.350840724320733
99287.725494050668203
99319.827208925300511
99344.876464223008952
99360.335169883896015
99366.843038299033651
99365.742792888369877
99354.039912637555972
99334.167054814708536
99309.388001649567741
99281.033747741908883
99253.143354679647018
99231.016429195500677
99219.663164410507306
99214.059256319218548
99207.395453023622395
99196.926235022794572
99188.162443558045197
99189.122561520402087
99195.501785227912478
99196.661448577680858
99187.649824937689118
99173.08148674252152
99167.189047505511553
99179.823421476452495
99210.418187133778702
99250.841998362739105
99292.058885161270155
99324.416906303653377
99339.730322500457987
99337.587228976379265
99324.456106589772389
99306.350153950377717
99289.018154497534852
99277.189076754482812
99273.120678775056149
99278.133088661910733
99292.985413402522681
99313.711983022280037
99330.226800211035879
99331.570672392103006
99316.701735266760807
99298.921381700056372
99297.316292760937358
99322.155294606782263
99367.083694310669671
99409.996853191070841
99427.136149983693031
99410.245125664951047
99372.255582888639765
99337.413020376829081
99324.425063997070538
99335.050811464650906
99356.370550693303812
99373.529085752918036
99383.099659304614761
99393.191210221775691
99410.946897400630405
99431.520425240480108
99441.47320434206631
99431.311704289953923
99405.819424555607839
99381.047718829868245
99370.270610202540411
99373.100507516603102
99377.675037597946357
99372.646058942904347
99358.595817841647658
99344.627008270588703
99338.459223517449573
99338.239996863296255
99335.240379187758663
99323.486693670100067
99303.742383046017494
99283.11757520660467
99265.296948837974924
99252.23759853298543
99244.478257993381703
99240.024551148235332
99236.666842365899356
99233.077959615169675
99229.095013533602469
99225.423499769021873
99222.220333597826539
99219.410346803837456
99216.927109809053945
99215.342358718000469
99215.64961179405509
99216.978114182405989
99218.458510170617956
99220.749139269275474
99227.775905267742928
99244.74034419261443
99272.699646440072684
99306.344984467839822
99336.410578245107899
99353.727402409858769
99354.016294131361065
99339.384214317818987
99317.275622011104133
99296.956577785604168
99285.136124750817544
99282.503634882450569
99284.605505571642425
99285.749390010358184
99283.627439444244374
99280.757776615733746
99282.195616729994072
99291.047743421266205
99305.257055612601107
99317.73006625805283
99320.644156058013323
99310.54081117399619
99290.422329180699307
99266.780401717289351
99245.069375421517179
99156.645752796393936
99156.397792794086854
99152.120152540155686
99142.234364378004102
99127.389893097759341
99111.334954336460214
99099.79950885483413
99097.46236711119127
99105.900807796686422
99122.195315814926289
99139.94782873846998
99152.481479803216644
99156.159287881411728
99151.40382978899288
99141.973321129553369
99132.906298363974201
99127.634426966993487
99126.803198844500002
99129.037636160792317
99132.275292361649917
99134.97626588937419
99136.967456524464069
99139.423622282236465
99144.107589497114532
99152.542445113125723
99165.495973112992942
99183.009675915323896
99204.167700114659965
99227.413382305006962
99251.529665783498785
99276.221647060403484
99301.745180339057697
99327.537522250029724
99351.182456030699541
99368.48258176681702
99374.655070008011535
99367.303395708862809
99348.155137225941871
99322.748380791017553
99298.481937744581955
99281.413643649444566
99273.920571169714094
99274.448117014966556
99279.14783366562915
99284.519726366255782
99289.435354768880643
99295.264396447091713
99304.052734228549525
99316.299047410007915
99330.051066267245915
99341.857207486900734
99348.386603059218032
99347.899116027561831
99341.119125942452229
99330.765990006591892
99320.166106497970759
99311.910062141207163
99307.255474515026435
99306.304913509055041
99308.408513606278575
99312.445091315981699
99316.94749842643796
99320.044828453697846
99319.578539090362028
99313.543455527076731
99300.694736686113174
99281.169074118719436
99256.869206244504312
99231.281214583956171
99208.664561072146171
99192.792934983619489
99185.67627444001846
99186.749694168713177
99193.074174590728944
99200.568986155165476
99205.572309506489546
99206.106204136434826
99202.238247810528264
99195.610934414959047
99188.287524272309383
99181.661708081650431
99175.754687677530455
99169.174611230380833
99159.659928394117742
99145.062749432603596
99124.410242782352725
99098.561401683356962
99070.185632183041889
99042.9978355797939
99020.547452826853259
99005.037958279586746
98996.669510267733131
98993.772457027094788
98993.637429769398295
98993.553549318952719
98991.590317713591503
98986.780803763613221
98978.837931045651203
98967.840069567173487
98954.131944630469661
98938.566931887660758
98922.849249455117388
98909.527714971263777
98901.507335136746406
98901.055414318398107
98908.659329133282881
98922.475371720545809
98938.852233980680467
98953.655484392991639
98963.90480105477036
98968.715573016874259
98969.117368947467185
98967.08030190669524
98964.10213794450101
98960.316154866028228
98954.672633980750106
98945.954190659685992
98934.064800643463968
98920.842550399713218
98909.797726792050526
98904.853003867377993
98908.733941345257335
98921.616718158635194
98940.671885911084246
98960.725408069672994
98975.965253291098634
98981.836086642419104
98976.457371919052093
98961.012882716575405
98939.049912937596673
98915.180390048320987
98893.728714470576961
98877.882951014820719
98869.310435137784225
98868.273341462117969
98873.943625642074039
98884.761529637369676
98898.664002155142953
98913.309111646129168
98926.40454149035213
98936.083134622866055
98941.19055031213793
98941.481698767223861
98937.553344593325164
98930.742878793942509
98922.85117813560646
98915.802612533647334
98911.366926370756119
98910.940656513557769
98915.281942150453688
98924.356761195871513
98937.274412186408881
98952.39695037851925
98967.636819881212432
98980.852462830123841
98990.377274765400216
98995.337524395261426
98995.796444304171018
98992.723650968546281
98987.730880860603065
98982.693766400683671
98979.320078623073641
98978.628622098753112
98980.641482641163748
98984.262325871502981
98987.58692750694172
98988.437330635628314
98984.95273470711254
98976.166875211230945
98962.416836404867354
98945.286254650825867
98927.129141228651861
98910.419027604963048
98897.048905754432781
98887.907423756390926
98882.838096981184208
98880.945343149098335
98881.030829611234367
98882.043792089345516
98883.441501965498901
98885.183312864755862
98887.41003742950852
98890.067804061429342
98892.724353692639852
98894.631419687531888
98894.995856586989248
98893.378908491678885
98890.01447481213836
98885.823587066683103
98882.188544600852765
98880.577679401932983
98882.143743813940091
98887.498476608088822
98896.627146585844457
98908.929987629147945
98923.358101089048432
98938.606793471422861
98953.37280177368666
98966.574494944041362
98977.395643891970394
98985.135652649798431
98989.109563513135072
98988.839064353727736
98984.365655954417889
98976.437538182741264
98966.495419291648432
98956.396241814771201
98947.983440088064526
98942.747789199333056
98941.626131758835982
98944.735952739210916
98951.21944057289511
98959.48458162228053
98967.69634528712777
98974.12143627491605
98977.397179158724612
98976.892413666399079
98972.876005156183965
98966.342732768913265
98958.699872876968584
98951.57104494520172
98946.684696997981519
98945.638821215106873
98949.478561648269533
98958.355801063313265
98971.513695288260351
98987.447142326680478
99004.033722291889717
99018.784313792348257
99029.415711769353948
99034.449317181002698
99033.450873183552176
99027.018464832901373
99016.573812612419715
99003.960334789182525
98990.948334780623554
98978.835674850590294
98968.355328901161556
98959.763797261781292
98953.047046343839611
98948.179675339328242
98945.20567441212188
98944.229298422855209
98945.473325386512442
98949.252226837328635
98955.786824497539783
98964.996139092167141
98976.524415340914857
98989.917902065848466
99004.690367098737624
99020.301190907965065
99036.186686887260294
99051.849766668339726
99066.90869541351276
99081.121192714155768
98733.986460885906126
98819.312203109948314
98996.397683902439894
99071.601000777620357
98891.873126923819655
98682.508328873256687
98639.770113631981076
98721.394527184471372
98887.049665341692162
99067.335567208050634
99160.232651872254792
99176.964246041505248
99201.70941727211175
99231.993208980304189
99206.233881081469008
99094.953493206485291
98976.340187373338267
98947.68123905955872
98986.799784218412242
99021.975141465343768
99047.842462237749714
99073.286687351399451
99086.020631291248719
99079.710484362949501
99070.496146021265304
99096.675584866301506
99148.91624458336446
99157.900806400226429
99109.439680688010412
99066.145601921991329
99065.14282793457096
99086.13308080798015
99109.994776312232716
99137.246136128640501
99157.422671431311755
99162.641006265213946
99165.330939666193444
99171.154572478844784
99181.467471203650348
99202.480314616375836
99243.293165041264729
99285.093675529889879
99287.69778519650572
99252.560941312796785
99233.191658703479334
99266.560486603004392
99320.283114878082415
99340.565412931478932
99327.646077057768707
99323.898803989854059
99346.099340380169451
99378.604334974996164
99406.390325325439335
99423.861331829219125
99433.199301013315562
99446.094354735148954
99475.005489206043421
99512.581314688752173
99530.081117768786498
99514.630845322550158
99484.05921754045994
99457.958041700869217
99433.191731006911141
99400.423242893855786
99367.564907397623756
99348.96305837437103
99344.01257587033615
99342.661991466811742
99340.465619687936851
99334.636035428047762
99319.221992518228944
99293.82368942478206
99273.840268956933869
99275.998216580308508
99300.265824881615117
99329.173494748800294
99348.028474671707954
99357.153809158495278
99360.283322651841445
99356.44416045336402
99342.6326868069591
99321.272638279129751
99297.817648446929525
99274.429148120092577
99251.773738957141177
99232.445999068513629
99224.207101983964094
99227.113463199479156
99231.702149692282546
99227.216354275849881
99217.353647172203637
99213.58054961830203
99216.477723589661764
99213.484255494768149
99195.013041247846559
99168.486305744430865
99154.416909456733265
99167.759830185954343
99203.874205107378657
99244.701734829897759
99277.137149385627708
99299.036646755484981
99312.807434326357907
99320.137259318828001
99319.648091210256098
99309.332253418877372
99292.328357049060287
99277.744246350586764
99274.901445796960616
99283.594087856065016
99296.881073854019633
99307.129916055171634
99309.381591077137273
99302.206092540393001
99288.726246173173422
99278.86562048237829
99285.0918561101862
99317.339098042124533
99370.103136465593707
99421.77687352988869
99446.297481287707342
99431.441575188524439
99389.275859976609354
99346.225816976497299
99324.808310898341006
99330.106764829324675
99350.77628516315599
99371.943221378212911
99389.067599565212731
99407.530287037428934
99431.171331898571225
99452.414909428567626
99456.565308184101013
99437.712248716561589
99405.412205789034488
99376.80706522888795
99363.602891326270765
99362.819288624319597
99362.871034889962175
99355.76326795850764
99344.532092144072521
99336.913786412886111
99336.585900446647429
99339.160896492394386
99337.414933269654284
99328.217806527711218
99315.192574501066701
99301.979788066848414
99291.967651835046127
99284.037017068912974
99277.91062185112969
99273.241956328856759
99267.540675368290977
99259.028096554102376
99248.896909728544415
99239.74259450797399
99234.070364653496654
99232.377171720407205
99233.329119969028397
99234.674115068162791
99235.485751119602355
99234.883871127298335
99232.824697949297843
99231.956559950340306
99235.986959672722151
99249.239403649116866
99271.889226154613425
99297.631540570480865
99317.844167691378971
99326.898317522005527
99323.824693532980746
99312.074464911609539
99297.509673356165877
99285.650405253982171
99279.330483594894758
99277.983214001797023
99279.22740722366143
99280.874016232744907
99282.400847990385955
99285.019501449569361
99290.252305249363417
99298.794718877325067
99308.687442828973872
99315.623650646506576
99314.724628876167117
99303.855819979289663
99285.471357522110338
99265.404592921069707
99248.725202674395405
99179.813498604140477
99181.358568016265053
99179.392001260101097
99171.541911342792446
99156.887271967018023
99138.068649630149594
99119.808619303337764
99107.878400706293178
99106.432074282129179
99115.209514253743691
99129.692624260496814
99143.015317639292334
99149.355546231250628
99147.125772562692873
99139.108130343884113
99130.466520203917753
99126.037637554909452
99128.135918956017122
99136.037740820887848
99146.979713807391818
99157.50083692240878
99165.114142331134644
99169.635008060082328
99173.29760223023186
99179.080386681569507
99189.213295103356359
99204.390776037340402
99223.919825509059592
99246.199790567043237
99269.806072626626701
99294.297106763740885
99319.899805387249216
99346.055044974913471
99370.100576688622823
99387.475839564358466
99393.679769090973423
99386.838741770829074
99369.523157883086242
99348.038576224804274
99329.278945689540706
99317.797745323827257
99314.180440424344852
99315.219545412997832
99316.565764563347329
99316.103647899668431
99315.172607134067221
99316.963434605830116
99323.895812835660763
99335.679560199801927
99349.147348041384248
99359.645553443493554
99363.36684784690442
99359.342255227165879
99349.734778128287871
99338.345750783235417
99328.597346296010073
99322.30531238974072
99319.557272240461316
99319.389694155848701
99320.682957119119237
99322.659385184568237
99324.672062740661204
99325.681784556829371
99324.073686125630047
99318.104708264523651
99306.606542365887435
99289.544074882200221
99268.189061197059345
99244.946487481574877
99222.856886562440195
99204.906862050760537
99193.143611663981574
99187.980339774454478
99188.048424836742925
99190.799656165152555
99193.411926139728166
99193.680445061021601
99190.570107525796629
99184.276002181155491
99175.808260685807909
99166.278798690575059
99156.213863802302512
99145.090077627974097
99131.486966267912067
99113.719831336813513
99090.826266412448604
99063.368759982520714
99033.693530754491803
99005.393738776649116
98982.194649160010158
98966.716300244675949
98959.651522704865783
98959.605999341816641
98963.639005297591211
98968.327689022597042
98970.752371977519942
98969.001927896752022
98962.174423521049903
98950.179188028021599
98933.673488653526874
98914.238575835668598
98894.493059573171195
98877.841121461096918
98867.691027676468366
98866.405191820609616
98874.188693548188894
98888.749782032173243
98906.001962013135199
98921.609811006768723
98932.657192443250096
98938.481143586235703
98940.348892517591594
98940.216792877108674
98939.292753569126944
98937.226031852827873
98932.477276963443728
98923.621068072679918
98910.688996234355727
98895.85396412773116
98882.988356718531577
98876.310573577400646
98878.628748929113499
98890.0178826048068
98907.360501789094997
98925.236523763902369
98937.75045741602662
98940.606737453214009
98932.451276052903268
98915.124225188716082
98892.784943447535625
98870.449121995654423
98852.513972737098811
98841.820868549519219
98839.285149461080437
98844.189249555260176
98854.814913089838228
98869.142931302747456
98885.291006122482941
98901.557681503618369
98916.343966504849959
98928.216615154859028
98936.038087992666988
98939.104766497548553
98937.325427097035572
98931.363751090990263
98922.602792272315128
98912.970804380645859
98904.54251609572384
98899.216551943958621
98898.324854705715552
98902.354455958062317
98910.905102954508038
98922.745513051413582
98936.150279889159719
98949.212843425120809
98960.262063684451277
98968.22466528377845
98972.735997594616492
98974.236654372041812
98973.819819390177145
98972.901622090197634
98972.893254369846545
98974.69321042347292
98978.280525465335813
98982.55123441129399
98985.498292140604462
98984.879488763515837
98978.961120183841558
98967.076671250877553
98949.960483513772488
98929.668611248373054
98908.994299975907779
98890.736883010613383
98876.973462273177574
98868.623169790225802
98865.40229148081562
98866.194246223880327
98869.591793294501258
98874.310889752261573
98879.454866926913382
98884.630272418406093
98889.737477910763118
98894.614918903069338
98898.796093905650196
98901.592368582394556
98902.37078253357322
98900.892609644375625
98897.595539822097635
98893.641565772792092
98890.623126312537352
98890.107034661603393
98893.149726414325414
98900.069967205359717
98910.50444725388661
98923.571593851054786
98938.084534805573639
98952.800729275331832
98966.592780648090411
98978.564672853011871
98988.028965244608116
98994.415169758052798
98997.188353086370626
98995.952192088487209
98990.71697102910548
98982.128030276770005
98971.528426848715753
98960.804619529604679
98951.916300348064397
98946.34936771253706
98944.840850164808217
98947.383341215958353
98953.257011713067186
98961.058346700257971
98969.044542037518113
98975.649869985907571
98979.753039867151529
98980.742143576586386
98978.64433909393847
98974.208336000228883
98968.708154097897932
98963.582205407336005
98960.201230059014051
98959.835357228992507
98963.512511507302406
98971.644904456959921
98983.713467300694901
98998.317706925881794
99013.517439643095713
99027.120222521480173
99037.025398222540389
99041.744423833035398
99040.788397541531594
99034.657961686258204
99024.603447093293653
99012.262610990612302
98999.266301323790685
98986.880987746844767
98975.859699477266986
98966.521909604882239
98958.908528341766214
98952.980453779397067
98948.837448024234618
98946.787855114976992
98947.234902582378709
98950.525542830961058
98956.822044386339257
98966.006125526531832
98977.627811262747855
98990.990368607963319
99005.334622781141661
99020.02681594027672
99034.659323382453294
99049.044700181751978
99063.138324546540389
99076.923610630794428
99090.319974681013264
99078.671759399003349
99033.739685704320436
99012.293561065365793
98985.7590441735083
99005.242528901129845
98975.981141615964589
98856.352031745729619
98762.75698768752045