/*--------------------------------*- C++ -*----------------------------------*\
  =========                 |
  \\      /  F ield         | OpenFOAM: The Open Source CFD Toolbox
   \\    /   O peration     | Website:  https://openfoam.org
    \\  /    A nd           | Version:  12
     \\/     M anipulation  |
\*---------------------------------------------------------------------------*/
FoamFile
{
    format      ascii;
    class       volScalarField;
    location    "0.0064";
    object      alphat;
}
// * * * * * * * * * * * * * * * * * * * * * * * * * * * * * * * * * * * * * //

dimensions      [1 -1 -1 0 0 0 0];

internalField   nonuniform List<scalar> 
106891
(
8.4756455454835348415e-06
8.4683982779650827553e-06
8.4603417591335767665e-06
8.4538609253060906993e-06
8.4464433620360019651e-06
8.4404298322632700312e-06
8.433143949491295904e-06
8.4269694421294273363e-06
8.4192341464828119457e-06
8.4124888631753454252e-06
8.4033533811316086571e-06
1.1323145626626834211e-05
1.1336607698290168699e-05
1.1361422273264812127e-05
1.1396240268273978105e-05
1.1437938695595114839e-05
1.1482217684265949004e-05
1.152486310826907863e-05
1.1563126161337049461e-05
1.1595101025688411595e-05
1.162023575698126463e-05
1.1638693663984665255e-05
1.1651452035058131794e-05
1.1660514990303142032e-05
1.1668629893632296847e-05
1.1678459235691257353e-05
1.1691616147882832186e-05
1.1708832936879078391e-05
1.1728767047906895989e-05
1.1749975648918358962e-05
1.1770838668645667067e-05
1.1790217997626105747e-05
1.180701652228823451e-05
1.1821150488328054556e-05
1.1832713282259870472e-05
1.1841965958511570467e-05
1.1849660265279382369e-05
1.1857145129120452386e-05
1.1865869590420700285e-05
1.1876557083961657887e-05
1.1890745939747763462e-05
1.190841269019411482e-05
1.1929998068325567596e-05
1.1954765421850038336e-05
1.1982870445877248641e-05
1.201275980191446415e-05
1.2042929748978795963e-05
1.2071623777747531912e-05
1.2097015828593547112e-05
9.0008294769256935714e-06
8.9903875797199105379e-06
8.9812155813501085358e-06
8.9705001126037264451e-06
8.9611840934949404768e-06
8.9504915488036228748e-06
8.9413853609876420042e-06
8.9311030977203647148e-06
8.9226703708709684211e-06
8.9131081916286373731e-06
8.9055507591939245021e-06
8.8968474206900834139e-06
8.8900267955159416506e-06
8.8819912178757097254e-06
8.8755990864761033038e-06
8.8675992917582559445e-06
8.8609566990439738213e-06
8.8523235372905891309e-06
8.8449296183328249559e-06
8.8345280023852039121e-06
1.1921360278480170293e-05
1.193235081817812043e-05
1.1968431136624046356e-05
1.2019546341804528133e-05
1.2075196143335916441e-05
1.2129946736974151232e-05
1.2178907027553977077e-05
1.2218359788041777375e-05
1.2246621402435790097e-05
1.2263916355970075225e-05
1.2271701026235133679e-05
1.2273768058641319222e-05
1.2274471065257371312e-05
1.2278159304686800783e-05
1.2287415380895743878e-05
1.2303290586563745272e-05
1.2324340345117568198e-05
1.2348309240921043783e-05
1.2372818600419408433e-05
1.239593325838805917e-05
1.2416171667624759271e-05
1.2433221207668386269e-05
1.2447325763869067442e-05
1.2458924661177144913e-05
1.2468856673055998214e-05
1.2478618843602189714e-05
1.248967067404812096e-05
1.2503140681313155134e-05
1.2519486342039040549e-05
1.2539909766512089074e-05
1.2563342051295160306e-05
1.2590276680244380522e-05
1.2619993435647088584e-05
1.2651458067967654198e-05
1.2683333709626752248e-05
1.2713468039787563732e-05
9.4692282441603732736e-06
9.4578215307713550669e-06
9.4479408769213832136e-06
9.4361953005355931885e-06
9.4260513836772449653e-06
9.4143380939731856111e-06
9.4044182412752311859e-06
9.393168317496814753e-06
9.3840848317216883764e-06
9.3736570422196394071e-06
9.3656282969664771939e-06
9.3561313649994784839e-06
9.3488643378419093385e-06
9.3400380463251967951e-06
9.3330985546514040146e-06
9.3242036624785672264e-06
9.3169087378070465709e-06
9.3072308614098932673e-06
9.2990975036108221226e-06
9.2873373538130545122e-06
1.2650778541791572667e-05
1.2684988424752094988e-05
1.2720183740497438397e-05
1.2753438046117297858e-05
1.2783190766980596093e-05
1.2808675140401407959e-05
1.2830363178199101929e-05
1.2848865618646929384e-05
1.2864879054866991474e-05
1.2878695343212565228e-05
1.2890778935372884895e-05
1.2903100949133326501e-05
1.291810805622296833e-05
1.2937879684114195959e-05
1.2964018105173400158e-05
1.299516836885807416e-05
1.3028903671192518913e-05
1.306168139901638987e-05
1.3090637747487301757e-05
1.3114043220453905272e-05
1.313134963422460795e-05
1.3143450323881834916e-05
1.3151324114755105093e-05
1.3156830538529989781e-05
1.3161381030420958333e-05
1.3167419802068195433e-05
1.3175325285419805634e-05
1.3186607004098432514e-05
1.3200813596158557446e-05
1.3218835075794319376e-05
1.3239672721925558929e-05
1.326346931193755991e-05
1.3289727350387646644e-05
1.331778477424176928e-05
1.3346487390095126277e-05
1.3374007663304541947e-05
9.9499248502806867663e-06
9.9394180670171410579e-06
9.9267072781327399164e-06
9.9158284488498712095e-06
9.9031028019302407982e-06
9.8923789967071572895e-06
9.8800220684713859734e-06
9.8701392926274425911e-06
9.8586692268444487688e-06
9.849970483001070122e-06
9.8395073076082551199e-06
9.8315775623947755332e-06
9.8217404591623209856e-06
9.8140810320463051693e-06
9.8041180542793526586e-06
9.7960467034564715664e-06
9.7852097604895432948e-06
9.7762513392202468658e-06
9.763047144340189051e-06
1.3352023500889456946e-05
1.337644298482254228e-05
1.340264772622498627e-05
1.342856441053135385e-05
1.3452552363883098606e-05
1.3474515868561003345e-05
1.3495015782327344605e-05
1.3514835785912461452e-05
1.3535566947216533075e-05
1.3558004615995558427e-05
1.3582872887510927324e-05
1.3611220617738887961e-05
1.3643318616968571239e-05
1.3679049442746172728e-05
1.3716875890772734935e-05
1.3754848894005334314e-05
1.3789857357072905921e-05
1.3819537576538887795e-05
1.3841944186208042693e-05
1.3856536372688772922e-05
1.3863845802902035093e-05
1.3865960179601997712e-05
1.3864947848101284754e-05
1.3863223600867540197e-05
1.3862299984720319546e-05
1.3865003134538007333e-05
1.3871489364737390508e-05
1.3882939646047748648e-05
1.3899180286156829535e-05
1.3920533918712883645e-05
1.3946996951355931815e-05
1.3978314328546259966e-05
1.4014575502964909341e-05
1.4053434109795402002e-05
1.0480861628711011347e-05
1.0467667335529424758e-05
1.0456594347371860068e-05
1.0443021252864492221e-05
1.0431503857352757782e-05
1.0417735423761848192e-05
1.0406254133981098102e-05
1.0392756586297455636e-05
1.0382009080735695323e-05
1.0369307952477495365e-05
1.0359707614556515874e-05
1.0348002876746741408e-05
1.0339229278964307782e-05
1.0328222716535796077e-05
1.0319725567328773882e-05
1.030853938522461249e-05
1.0299547929883950807e-05
1.0287432271386918539e-05
1.0277595192180606057e-05
1.0262969139684164396e-05
1.4039776039498040797e-05
1.4079152321277526078e-05
1.4120802551449478047e-05
1.4160754897998939185e-05
1.4196134216253763387e-05
1.4224452569204822021e-05
1.4244954777913462087e-05
1.4258521054518702941e-05
1.4266271562780262258e-05
1.427132593572068338e-05
1.4277336331693858316e-05
1.4287495066455234996e-05
1.4304926204207937921e-05
1.4330821162228724706e-05
1.4364831884914301894e-05
1.4404629677294759934e-05
1.4446648980012957169e-05
1.4486594214571712412e-05
1.4521229941484974712e-05
1.4548117104718878443e-05
1.4567185395037530877e-05
1.4578826242112007591e-05
1.4585821093987635688e-05
1.4589813289489897473e-05
1.4593863827225874371e-05
1.4599076579645897743e-05
1.4607236202180596231e-05
1.4619243706909636812e-05
1.4635194118440903648e-05
1.4655291165222814696e-05
1.4679522301344577367e-05
1.4708597435671466093e-05
1.4741469233416048932e-05
1.1012265189662125907e-05
1.100062094994298044e-05
1.0986179672981849999e-05
1.0974063014669437641e-05
1.0959301128143977079e-05
1.0947122526441904237e-05
1.0932435848249265863e-05
1.0920802656315519783e-05
1.0906779272259897344e-05
1.0896137141244710894e-05
1.0883054903444774067e-05
1.0873243056499395215e-05
1.0860914875878924926e-05
1.085143537771716828e-05
1.0838914767911113945e-05
1.0828986969684602999e-05
1.0815545368933731293e-05
1.0804758941226319906e-05
1.0788664691689381974e-05
1.4823375586183250055e-05
1.4855294703026060497e-05
1.4885216031926802737e-05
1.4911557088144886539e-05
1.4933243382281355174e-05
1.494957406834537296e-05
1.4961505624565589199e-05
1.4970817837967037291e-05
1.4980238517615056051e-05
1.4993021075217699079e-05
1.5011583842768577392e-05
1.5037550201473176228e-05
1.5071460095778304922e-05
1.5111981983134956784e-05
1.5156738486159185584e-05
1.5202428722866375923e-05
1.5245157721383395495e-05
1.5281735985976507158e-05
1.5309847027045432263e-05
1.5330139094508149169e-05
1.5342866598935782786e-05
1.5351153787652997869e-05
1.5356291473445694048e-05
1.5361570092607914646e-05
1.5367885930952053449e-05
1.5376844675914966954e-05
1.5389302729982976052e-05
1.540553115176097372e-05
1.5425863951501182802e-05
1.5449895632330809054e-05
1.5478590963982827425e-05
1.5511086490268137956e-05
1.1585464376672110294e-05
1.1573129013348768671e-05
1.1557773763919729042e-05
1.154503505678381772e-05
1.1529322839603611174e-05
1.1516440128064428983e-05
1.1500609686574267412e-05
1.1488049675013904731e-05
1.1472686648442302951e-05
1.1460984979667544843e-05
1.1446531153728249541e-05
1.1435645572184024654e-05
1.1421946443358915689e-05
1.1411397773713830231e-05
1.1397487852588843028e-05
1.1386497935998263036e-05
1.1371621363023191962e-05
1.1359851904936414709e-05
1.1342302330770919839e-05
1.5659901035412185957e-05
1.5678650399160064325e-05
1.5694137282011360132e-05
1.5707045793948220473e-05
1.5718191807026615629e-05
1.5728474428792535948e-05
1.5740047608197330699e-05
1.5755086626580614529e-05
1.5775932727636294368e-05
1.5804140394586113562e-05
1.5839900910642232105e-05
1.5882305406163691537e-05
1.5929424122922968975e-05
1.5978635538488882592e-05
1.602609677431315752e-05
1.6069322021342711838e-05
1.6104904322961760137e-05
1.6132247349927690831e-05
1.6150810792528849034e-05
1.6163109149387723756e-05
1.6170825976849334792e-05
1.6176067389789511135e-05
1.6180905001529551643e-05
1.6187327728769397936e-05
1.6196245319937973585e-05
1.6208059943670556115e-05
1.6224089169385389202e-05
1.624396589141626404e-05
1.6268290972513384577e-05
1.6296234834306945976e-05
1.217697941409883574e-05
1.216063875053144821e-05
1.2147207531225217414e-05
1.213059924426320338e-05
1.2117041784621731653e-05
1.2100185028075117531e-05
1.208682061060016695e-05
1.2070286808793194558e-05
1.2057661660365213529e-05
1.2041970191715921606e-05
1.2030158178496158173e-05
1.2015154592063274414e-05
1.200355664821987537e-05
1.1988283827177072182e-05
1.1976191598108430395e-05
1.1959908314094633831e-05
1.1947177634447074697e-05
1.1928585531050947072e-05
1.6466432814258643452e-05
1.6483851739190212479e-05
1.6500750328225459706e-05
1.6518219426431519708e-05
1.6536889732118014172e-05
1.6558604252791272684e-05
1.6584202376171216392e-05
1.6614278031955575918e-05
1.6648874418656962263e-05
1.6687348926497773426e-05
1.6728374630403691119e-05
1.6772073723387422256e-05
1.681635091197313748e-05
1.6860544205148367058e-05
1.6901475113533269624e-05
1.6938035620355751626e-05
1.6967268455165946225e-05
1.6989111860654985096e-05
1.7004290305267023603e-05
1.701415441414870394e-05
1.7020162469350489764e-05
1.7023891851869519078e-05
1.702807739882947907e-05
1.7033817075382008124e-05
1.7042863721915014883e-05
1.7055987338017135758e-05
1.7074237844408044141e-05
1.7097324253711072693e-05
1.2830121249697793036e-05
1.2813333012039529861e-05
1.279915012482189991e-05
1.2782293845647535522e-05
1.2768190633934323297e-05
1.2751052495224379798e-05
1.2737184936946826331e-05
1.272026471344061913e-05
1.2706954636209590503e-05
1.2690662069298663651e-05
1.2678063815218081688e-05
1.2662202622293928118e-05
1.2649732222281322917e-05
1.2633519618903561439e-05
1.2620545486215841523e-05
1.2603390786733730151e-05
1.2590014767984010504e-05
1.2571604495381411256e-05
1.7326557836135621189e-05
1.7355253256193826905e-05
1.7383949972070831565e-05
1.7411665775652144779e-05
1.743814695021232174e-05
1.7463742445509950146e-05
1.7489757247826118278e-05
1.7517914670180526949e-05
1.7549408979569900411e-05
1.7583764103395906601e-05
1.762142593124947461e-05
1.7660178467661503769e-05
1.7699552156163762383e-05
1.7737084701973228427e-05
1.7772328784757298584e-05
1.7803085678759675677e-05
1.7829612675556994324e-05
1.7851900988188684961e-05
1.7870241440533158109e-05
1.7884857562296680561e-05
1.7896922861272324839e-05
1.7908307173100352863e-05
1.7920209248035786774e-05
1.793484773753518385e-05
1.7952829829602426749e-05
1.797573789055754813e-05
1.8002929054052122784e-05
1.3427337583746899917e-05
1.3407260843888149505e-05
1.3390301736842941658e-05
1.3370524326681967059e-05
1.335341333320887229e-05
1.3333989624671624489e-05
1.3316949113964769781e-05
1.3297822198460592194e-05
1.3281124068261898616e-05
1.3262330954099631729e-05
1.3245982513490546731e-05
1.3226994043225784512e-05
1.3210703979210814354e-05
1.3191278239150487858e-05
1.3174576818268769071e-05
1.3154797930821097367e-05
1.3137713999069801525e-05
1.8071638139032186699e-05
1.8128836334894584374e-05
1.8173430174659508231e-05
1.820431756254798489e-05
1.8222418364799081912e-05
1.8230881278258495262e-05
1.8234803708927533895e-05
1.8238727056657555345e-05
1.8247805361992027498e-05
1.8265561252702803272e-05
1.829411155566811967e-05
1.8332033092143256315e-05
1.8377744246640922749e-05
1.8426311848984155587e-05
1.8473880289016204827e-05
1.851547411103890233e-05
1.8549209177416481803e-05
1.8574160897717189472e-05
1.8590904785866634193e-05
1.8600703457626694901e-05
1.8605703279652032562e-05
1.860856676988367566e-05
1.8611744167289342913e-05
1.8618430544041848676e-05
1.863012214612751172e-05
1.8647908725210832426e-05
1.8671855305042178724e-05
1.3752542477776092105e-05
1.3734045912828847811e-05
1.3708543151458120793e-05
1.3690364318559870762e-05
1.3665018807788194402e-05
1.3646880034798012548e-05
1.3621510898444745959e-05
1.3603452955264646961e-05
1.3578000563145436284e-05
1.3560101549863233717e-05
1.3534446888981765614e-05
1.3516647239509140753e-05
1.3490593697436036003e-05
1.3472870435700211441e-05
1.3442422677363315543e-05
1.3434566086029899512e-05
1.39915641838807205e-05
1.4078780060511181713e-05
1.415380770681324535e-05
1.421199222902188153e-05
1.4251188998727693769e-05
1.4272215679589461381e-05
1.4279267051319515899e-05
1.4277416068346980414e-05
1.4271451605294804059e-05
1.4264048118725056381e-05
1.4256103673736284933e-05
1.424878194961863169e-05
1.4247079222541425734e-05
1.4266734762969214721e-05
1.4333439001449180914e-05
1.4402349227655452838e-05
1.4457325344637558397e-05
1.449810366056294941e-05
1.4524861866903336071e-05
1.4539873955019399574e-05
1.4546085265506175632e-05
1.4547404563458080052e-05
1.4548016726771205066e-05
1.4551084335653718786e-05
1.4559908821237861094e-05
1.4575374909957718731e-05
1.4597810596290466362e-05
1.4626043111556596808e-05
1.0678925882116359477e-05
1.0659718815227747619e-05
1.0645936898784616592e-05
1.0626926458486116341e-05
1.0613271540439569638e-05
1.0594235132209960939e-05
1.058060923814094101e-05
1.0561498049832156117e-05
1.0547898590722517854e-05
1.0528707554968279539e-05
1.0515320022107113175e-05
1.0496033214943471419e-05
1.0482870287484139828e-05
1.0460545086336319002e-05
1.0457512134337721785e-05
1.3376200121711291527e-05
1.3433290751497671458e-05
1.3478840651823680876e-05
1.3509437136838788586e-05
1.3525435914782718338e-05
1.3530868767345261862e-05
1.3531785339194345833e-05
1.3533597612888092579e-05
1.3540585567059868559e-05
1.3555695512077213299e-05
1.3580603987144088988e-05
1.3613994132088713898e-05
1.365348408814249434e-05
1.369426429560028556e-05
1.3732515854187889206e-05
1.3764128970236148462e-05
1.3787706585858111924e-05
1.3802156668365515583e-05
1.3808863793432730809e-05
1.3809968199546895576e-05
1.3808233620048510187e-05
1.3806849734324122965e-05
1.3808110803679395277e-05
1.3814376590625427346e-05
1.3826277888152538266e-05
1.3844445416613968824e-05
1.3868274405980909116e-05
1.0172336478057444477e-05
1.0159873391114788692e-05
1.0143080587503796897e-05
1.0130786092752033548e-05
1.0114048993679036049e-05
1.0101808417521749355e-05
1.0085106614329842964e-05
1.0072953529114159966e-05
1.0056326361053147063e-05
1.0044480515188617162e-05
1.0027829955944023591e-05
1.0016214398986921974e-05
9.9978017493486884276e-06
9.9896507060421720309e-06
1.2898329523614692949e-05
1.2929618469059215888e-05
1.2954771410781969261e-05
1.2974727183919167628e-05
1.2991202637369250836e-05
1.3006066482817046332e-05
1.3021282099554270118e-05
1.3038455681863198821e-05
1.3058828787558565441e-05
1.3083636057840506781e-05
1.3112710267379591798e-05
1.3144894893058825728e-05
1.3177227558373929506e-05
1.3207233431230148364e-05
1.3231804585762831203e-05
1.3250385198155875343e-05
1.3262513868899937337e-05
1.3269771283412262479e-05
1.3273802150580616774e-05
1.3276806772031465672e-05
1.3280801953834268754e-05
1.3287077308773992949e-05
1.3297192092917525612e-05
1.3310868659103630064e-05
1.3328683523845064884e-05
1.3350079507552086521e-05
9.7892773931364054116e-06
9.7731998873243416129e-06
9.761390919265369525e-06
9.7453898405462840505e-06
9.7337036057282763104e-06
9.7178279065513495811e-06
9.7062914263236332445e-06
9.6905058402160533499e-06
9.6792636153876095389e-06
9.663482832601175151e-06
9.652443062756093628e-06
9.6352977025427696296e-06
9.6270116030168408766e-06
1.2450493955250409878e-05
1.2474348985407493435e-05
1.2492154676256694954e-05
1.2505768717419681637e-05
1.2517499038257644671e-05
1.2529798689385783367e-05
1.2544310534738884415e-05
1.2561998683675865962e-05
1.2583728271435881528e-05
1.2609011895472163644e-05
1.2636437867795458889e-05
1.2663752740671432718e-05
1.268924390887279802e-05
1.2710420482186631712e-05
1.2727042512729802234e-05
1.2738733382294721591e-05
1.2746771342880257067e-05
1.2752566935419596094e-05
1.2757796485099818509e-05
1.2763994509876754895e-05
1.2772040232528242043e-05
1.2783085135820950712e-05
1.2796911641815493269e-05
1.2814134070093356562e-05
1.2834472309965656449e-05
9.4029858286233335119e-06
9.3914298752242761576e-06
9.375820667628623583e-06
9.364449415414554729e-06
9.3490673741732042696e-06
9.3379691838349126656e-06
9.3227180031820950295e-06
9.3118917043587499249e-06
9.2966505717406987827e-06
9.2859849689496469743e-06
9.2694160748620425848e-06
9.2615399049358207244e-06
1.2009544031904161206e-05
1.2035360502731893298e-05
1.2054474903502729799e-05
1.2069486134002791093e-05
1.2082900802288119228e-05
1.2097224665451957286e-05
1.211449909600053354e-05
1.2135324531499172432e-05
1.215914758069603449e-05
1.21850836985463773e-05
1.221063993917712281e-05
1.2234449727381472922e-05
1.2254337035899274039e-05
1.2270047621421474381e-05
1.2280931149159982329e-05
1.2288463401541580868e-05
1.2293948709593524162e-05
1.2298984393629007442e-05
1.2305137198904721586e-05
1.2313038593687052372e-05
1.2323899782850814233e-05
1.2337407755506999297e-05
1.2354566464950989885e-05
1.2375037665857692686e-05
1.1595041094548084676e-05
1.1612724421409572801e-05
1.1626862175413086239e-05
1.1639885401558575049e-05
1.1653681097024980962e-05
1.1669512175703354611e-05
1.1688309780448414877e-05
1.1709549800572552442e-05
1.1732603966473664531e-05
1.1755619552916016509e-05
1.1777164867634881909e-05
1.179519481084915876e-05
1.1809526091112641045e-05
1.1819578407012984599e-05
1.1826453530638098683e-05
1.1831458232278176029e-05
1.1836273568586115791e-05
1.1842242639246666237e-05
1.1849990743848043488e-05
1.1860340926543979159e-05
1.1873164209837228718e-05
1.1888970394534667502e-05
1.1907891923292291143e-05
1.1147844846338287662e-05
1.1173294622472756618e-05
1.1202741092476842171e-05
1.1235260377055911348e-05
1.1269791227342139178e-05
1.1304697431582485975e-05
1.1338306000051297259e-05
1.1368068041368563576e-05
1.1392919470147769466e-05
1.1411053005888852226e-05
1.1423040732032064957e-05
1.1429696648581639458e-05
1.1432679502153454636e-05
1.1433942059758715485e-05
1.1435196214446554329e-05
1.143783311453675678e-05
1.1442251889818534505e-05
1.1448889739700496171e-05
1.1457509101632379418e-05
1.1468499189497354765e-05
1.1481886217908322137e-05
1.0840947362699748641e-05
1.087060360707775149e-05
1.0902635834889202259e-05
1.0934728262566105919e-05
1.0964110674213919179e-05
1.0987790200983150389e-05
1.1003712793845326517e-05
1.1011676694947882714e-05
1.1013254317224234461e-05
1.1010898548902955046e-05
1.1006219982761062946e-05
1.1001442430701113096e-05
1.0997779891397718369e-05
1.0996875168994341542e-05
1.0999001568832299477e-05
1.100469001888102593e-05
1.1014322775504075102e-05
1.0567016901933471822e-05
1.0590978921022802117e-05
1.0607650164853409572e-05
1.0616561250860266953e-05
1.0618865654722309269e-05
1.0616839953844780815e-05
1.0612618289786342614e-05
1.0607716729458560882e-05
1.06033147141374205e-05
1.0600944915531572459e-05
1.0603243545320471805e-05
1.0609141219462496413e-05
1.0618882011987940432e-05
1.0152583932445927007e-05
1.0171666165484674301e-05
1.0183240642568774169e-05
1.0188997638921008031e-05
1.0190140350688406656e-05
1.0188872575393370694e-05
1.0187169755769434707e-05
1.0186468920306625635e-05
1.0188061570785719679e-05
1.0193280140510143218e-05
1.0202527376780503945e-05
1.0216036105749368458e-05
5.3977957001684700685e-06
5.2663871208308130726e-06
5.1896563139141135861e-06
5.1557249757705485196e-06
5.1469749128025794551e-06
5.1484986141679210789e-06
5.1629621238317866539e-06
5.2193643385848724107e-06
5.4113144957084506617e-06
5.7519560710141324719e-06
6.0106696238104609541e-06
6.1670472905740416529e-06
6.2329808866649579114e-06
6.2403276564385561217e-06
6.2261312674756128221e-06
6.1835997209698715838e-06
6.0361262896978548525e-06
5.8009349563987610651e-06
5.6290994429025910175e-06
5.5285074999343043181e-06
7.9634666475992884081e-06
7.646633467905683353e-06
7.3989652055669493299e-06
7.2274815455482091631e-06
7.1270365829360760629e-06
7.0842139219210846648e-06
7.0748984315125342789e-06
7.079989605455844612e-06
7.1111973396531229382e-06
7.2262048185367155006e-06
7.5666234687305800077e-06
7.9422324730678730799e-06
8.1926091449201236876e-06
8.3229407937480889428e-06
8.3587376969666963195e-06
8.346940059920607307e-06
8.3128515473875075754e-06
8.197385903485690246e-06
7.8853236403850720957e-06
7.5919753480064834528e-06
7.4088190884892402005e-06
7.3235142647201579202e-06
1.3621075519335367176e-05
1.3241389490017780667e-05
1.2908296055067258992e-05
1.2647396858610731571e-05
1.2480770710078973809e-05
1.2404231929702189317e-05
1.2384778145544748292e-05
1.2385935976889318871e-05
1.2417197241052841238e-05
1.2525811746356115139e-05
1.2818734908558380824e-05
1.3120254055578456026e-05
1.3325534735544030676e-05
1.3425938780272956503e-05
1.3443721887212585803e-05
1.3425376211021951311e-05
1.337949564418324483e-05
1.3273853567572369699e-05
1.3004654966177194727e-05
1.2661050930459422496e-05
1.2408610026378807354e-05
1.2267305525483582844e-05
1.221667721974292319e-05
1.2215267451081300286e-05
1.2235167816158558121e-05
1.2323575580684976893e-05
2.9108476975503689915e-05
2.8855197960718646148e-05
2.8695341549247738703e-05
2.8607946272807326869e-05
2.8570028325188927514e-05
2.8554843628899405887e-05
2.8584375679695474872e-05
2.8720306464537577782e-05
2.9057022855217159139e-05
2.9434490794559669662e-05
2.976758600011192467e-05
3.0019829549579607345e-05
3.0157537958329270019e-05
3.0190017192041424465e-05
3.0174004111310392311e-05
3.0113188276406727627e-05
2.9952434606751107422e-05
2.9554137767538115765e-05
2.9108304702186767329e-05
2.8788968381354030507e-05
2.8613495373540654971e-05
2.8554687612211864032e-05
2.8553573662849695224e-05
2.8620259123640385147e-05
2.8884499535360047312e-05
2.9277237555445923667e-05
2.9543333278731972335e-05
2.966110096207986543e-05
6.4556801272692954617e-05
6.439092908812248865e-05
6.4288349281496295516e-05
6.4217981546360247886e-05
6.4177227502806407831e-05
6.4231125701041523902e-05
6.4436890984490333796e-05
6.4668848524472160059e-05
6.4878772170954629927e-05
6.5039951222369872335e-05
6.5118775054637476345e-05
6.511030115420907865e-05
6.5060363577129642649e-05
6.4967387205397292304e-05
6.4765487418803216013e-05
6.439063608965536604e-05
6.4019104788633877131e-05
6.3695039525286370127e-05
6.3459554104512548188e-05
6.3318405880787590129e-05
6.3257765952046398294e-05
6.3241216525569527948e-05
6.3301607310148265656e-05
6.3523269780925092649e-05
6.373107679903961128e-05
6.3851145004571578136e-05
6.3878575856253849772e-05
6.3848424384396320415e-05
6.3777542047533725871e-05
6.3593616919173162009e-05
0.00010143640615732678811
0.00010123493664458825157
0.00010106490659695306124
0.00010090902776181406646
0.00010075702226644393539
0.00010060684724206844581
0.00010046205115624836041
0.00010032241250294908182
0.00010017453667813162952
9.9995379637372788025e-05
9.9764586992300078845e-05
9.9479501509821234508e-05
9.9158755499089559836e-05
9.8829852495428062334e-05
9.8518214447554082556e-05
9.8240625160225922199e-05
9.8003441299588658301e-05
9.7807878381625146962e-05
9.7651964954273472262e-05
9.7530042526138870161e-05
9.7431359073894827148e-05
9.7340154423667280426e-05
9.7238266555451640803e-05
9.711170802038841083e-05
9.6953841167813265044e-05
9.6769318807521595709e-05
9.6567337514205398583e-05
9.6356481832341465184e-05
9.614188118954647476e-05
9.5927158681785639014e-05
9.5720425267057651099e-05
9.553383137777385673e-05
0.00012339658464574106275
0.00012311465413827632921
0.00012284201975329759032
0.0001225597619532913993
0.0001222569033558212209
0.00012193968994419640561
0.00012162660285912841251
0.0001213345866836351998
0.00012106410219275521255
0.00012080099209859244199
0.00012053025913210880973
0.00012025215106485084111
0.00011998236541473121996
0.00011973920247436058769
0.00011952984533588458459
0.00011934512198323796715
0.00011916674392063516673
0.00011898059492324881004
0.00011878223400223700951
0.00011857496673164912568
0.00011836356327285925492
0.0001181499670950606867
0.00011793373151012403761
0.00011771704551068091517
0.00011750699642315529949
0.000117313442230371185
0.0001171400408601325449
0.00011697946658048208779
0.00011681561551225593573
0.00011663434795174041335
0.0001164330300826224568
0.00011622469901488523118
0.00011602277410017352351
0.00016207175584849513534
0.00016121583158673445787
0.00016042797584395949951
0.00015964718912801043765
0.00015883813544940807746
0.00015801175972180600223
0.00013507901998411128838
0.00013479733106291124701
0.00013452415059456168406
0.0001342392498790093841
0.00013393162064976972601
0.0001336112270157976587
0.00013330263140932886636
0.00013302528258671007561
0.0001327808448400638055
0.00013255060874445837504
0.00013231414819494711176
0.00013206839649540177452
0.00013183008063553355903
0.00013161860118349503427
0.00013143942466721595655
0.00013127861148769129178
0.00013111429913633155533
0.0001309318372712454286
0.00013073068676098926707
0.00013051919618789869213
0.00013030549491937912709
0.00013009164842096772883
0.00012987655250970857237
0.00012966266798804346617
0.00012945911689775987247
0.00012927717801629982366
0.00012912015185232973919
0.00012897600782431052841
0.0001288221365135267004
0.00012864006420706714136
0.00012842826102143697908
0.00012820339890107611681
0.000127986765517844038
0.00012778639589756189796
0.00015704516778435251767
0.00015633165171580404914
0.0001556969494379699837
0.00015508267646226528945
0.0001544202678169418841
0.00015369703247899050105
0.00015295178041268981382
0.00013166693322896462861
0.00013142241597091105327
0.00013118461923018073204
0.00013093589706181146316
0.00013067653413020478099
0.000130428836631261779
0.00013022196161163041017
0.00013006671139648029608
0.00012995038056349755905
0.00012984517939858928747
0.00012973243653820843791
0.00012961653876743101902
0.00012951683289447876658
0.00012944728823416652426
0.00012940042264942587524
0.00012935167385747490826
0.0001292759180277352224
0.00012916448881745130439
0.00012902642589113664183
0.00012887741371124368192
0.00012872862158194730859
0.00012858233210739060262
0.00012843662947411018066
0.00012829397239177376343
0.00012816199215260129507
0.0001280454128437370049
0.00012793836753958299059
0.00012782159649216506369
0.0001276722324140216558
0.00012748158310998044802
0.00012726221092625899156
0.00012704010667352721975
0.00012683668207416607158
0.00012665415398807668168
0.00012647906630790744066
8.0842604929648607704e-08
8.1029673393802805956e-08
8.1281557389864126529e-08
8.1459316554515925591e-08
8.1798337996999753899e-08
8.197922455691458176e-08
8.2210849543318420428e-08
8.2439047719650930986e-08
8.2718841598446862732e-08
8.2889093785074368318e-08
8.3294632392411300495e-08
6.9009568050582951229e-07
6.9410568157142188869e-07
6.9671133717974153203e-07
6.9786000895187149166e-07
6.9787785831607115002e-07
6.9733415529587283935e-07
6.9659257051722465303e-07
6.9534032159945662968e-07
6.926284026967462761e-07
6.8921952023123870356e-07
6.8636891526944669222e-07
6.8413411015146675471e-07
6.8251738049591256327e-07
6.8143035799669049292e-07
6.8068712114006248426e-07
6.8012601836800764914e-07
6.7960836216950089742e-07
6.7900508543601349349e-07
6.7832718775170920922e-07
6.7765085094159760744e-07
6.770024571894342133e-07
6.7640471937349723322e-07
6.7581660446758393382e-07
6.7524496251666813145e-07
6.7469070035303138121e-07
6.7415200210113159914e-07
6.7351347084714119689e-07
6.7241937577758767183e-07
6.7020198508236797863e-07
6.6775152467213038775e-07
6.6540023637355298958e-07
6.6314001991555755237e-07
6.6096412215190189357e-07
6.5894056291735777515e-07
6.5710228601710853877e-07
6.5544929251118235426e-07
8.4248961332986974965e-08
8.4278465261060531995e-08
8.43568564449060666e-08
8.4474037381839032524e-08
8.458126444916786018e-08
8.469925235277496578e-08
8.4879514424372056612e-08
8.4990449244191429022e-08
8.5095983890625895922e-08
8.5235986214688360575e-08
8.5279922656384718605e-08
8.5410613214787645534e-08
8.5602829183600801023e-08
8.5751855635059368139e-08
8.6036889651028953266e-08
8.6173910886781509189e-08
8.6367351091329790085e-08
8.6534957086057187387e-08
8.6737448054050113629e-08
8.6871752821673917991e-08
8.7207905763262270812e-08
7.1147987566400790651e-07
7.1068886905080100613e-07
7.0946187079285768143e-07