/*--------------------------------*- C++ -*----------------------------------*\
  =========                 |
  \\      /  F ield         | OpenFOAM: The Open Source CFD Toolbox
   \\    /   O peration     | Website:  https://openfoam.org
    \\  /    A nd           | Version:  12
     \\/     M anipulation  |
\*---------------------------------------------------------------------------*/
FoamFile
{
    format      ascii;
    class       volScalarField;
    location    "0.0064";
    object      p;
}
// * * * * * * * * * * * * * * * * * * * * * * * * * * * * * * * * * * * * * //

dimensions      [1 -1 -2 0 0 0 0];

internalField   nonuniform List<scalar> 
106891
(
99206.650018106563948
99213.675123413733672
99225.402987789755571
99241.176116697039106
99259.686420387137332
99279.097249689395539
99297.180487651668955
99311.81518843153026
99321.499641049784259
99325.4645423777838
99323.860127254520194
99225.816497520616394
99229.996828056362574
99236.32948660448892
99237.766180096659809
99228.442105649999576
99207.691563618718646
99181.31802871999389
99158.854348108114209
99148.26565388655581
99151.377812479884597
99163.338835783448303
99176.305417574636522
99184.795807805712684
99188.493536482244963
99190.654688992683077
99193.782592611503787
99196.280477013890049
99193.376795386779122
99180.670613678754307
99157.802932097823941
99129.191897852142574
99101.81616075571219
99081.095940309940488
99068.895446200753213
99063.827944603457581
99063.349154161653132
99065.643319831622648
99069.318360567835043
99072.694505326711806
99074.050415312958648
99072.422652989786002
99068.930389845889295
99066.451271099547739
99068.123428774211789
99074.677477366305538
99082.831092535096104
99087.433380592410685
99085.424904497514945
99232.268505127620301
99231.427312713334686
99228.288888719151146
99223.233068141853437
99216.826116687589092
99209.87799196584092
99203.539197849822813
99199.177098496162216
99198.071910724655027
99201.192821556687704
99209.16027005421347
99222.050782866223017
99239.101455380921834
99258.728747063389164
99278.888786734692985
99297.454703789131599
99312.436015241168207
99322.241278590387083
99325.98344787566748
99323.710420858842554
99236.208789159180014
99243.284733409222099
99242.690107298491057
99229.642293095981586
99204.947667496802751
99175.837607433408266
99152.93739027166157
99144.493902144022286
99151.601105989509961
99167.729168982958072
99183.440816813192214
99192.698354480613489
99195.706056599810836
99196.821491125636385
99199.629004572547274
99203.292837434331886
99202.976165577172651
99193.616594576524221
99173.927323361174786
99147.332552731924807
99120.228831701067975
99098.466963867962477
99084.706470340257511
99078.783375926155713
99078.842530421417905
99083.236444803682389
99090.010999123565853
99096.599611989673576
99100.212599359409069
99098.897092579660239
99093.18453027382202
99086.272237550001591
99082.317561300980742
99083.548964230911224
99088.298961698630592
99092.057487876096275
99240.805868998766528
99238.706048939027824
99234.127665772510227
99227.473822636384284
99219.425079790598829
99210.955082809668966
99203.316378697520122
99197.950054669592646
99196.259669733597548
99199.262211064531584
99207.363622854580171
99220.333719637696049
99237.278903616796015
99256.641254622139968
99276.314887906148215
99294.076243538525887
99308.002523769420804
99316.658045289150323
99319.309830270736711
99316.025832738232566
99245.869015958160162
99250.715528978165821
99245.870768637483707
99229.01689108464052
99202.766761348073487
99174.602204153328785
99154.16360979421006
99148.490169634140329
99157.796212325192755
99175.22084263949364
99191.479656372321188
99200.66646848001983
99203.038573561934754
99203.041989637858933
99204.770885608842946
99208.50814661179902
99210.490998474968364
99205.854124896926805
99192.166439493419603
99171.077777892191079
99147.237312647368526
99126.17014863602526
99111.513941937198979
99104.687712422542972
99105.057296973929624
99111.093838144573965
99120.516637738663121
99129.689874631891144
99134.36331403614895
99131.617792095799814
99121.658771180183976
99108.228695028636139
99096.761335453003994
99091.543672999221599
99093.1774628944695
99098.352425030214363
99249.218923092834302
99244.125726688973373
99236.909283229892026
99228.185611189721385
99218.86891811042733
99210.192564314085757
99203.626022369368002
99200.667880981782218
99202.494236882310361
99209.575196916339337
99221.513580033439212
99237.129083878302481
99254.71571533329552
99272.28378174455429
99287.837024415610358
99299.643360046044108
99306.370813825924415
99307.369293010182446
99302.71526196958439
99261.306063605690724
99250.408311046950985
99229.76761546455964
99203.87303823530965
99179.756119334328105
99164.498003404951305
99162.26603087373951
99171.989449248983874
99187.681579716721899
99201.746094988513505
99209.241188065672759
99210.312816912715789
99208.767875908699352
99208.754504515469307
99211.921689026232343
99216.370754395466065
99217.937614208480227
99212.913620842649834
99200.375498431894812
99182.51489018490247
99163.854229220829438
99149.164587275881786
99141.525473776680883
99141.676563274304499
99148.344497789454181
99158.803278678227798
99168.487250149613828
99172.072493726285757
99166.077765450550942
99150.679162247164641
99130.207878724075272
99111.39947207881778
99100.412715386060881
99100.292277179367375
99265.086943556365441
99262.708282345105545
99258.164900103525724
99251.417708112421678
99242.90576989974943
99233.49000215860724
99224.351972565083997
99216.877274534548633
99212.470411129281274
99212.30183608783409
99216.998123029523413
99226.379331408679718
99239.381615567501285
99254.267516502572107
99268.967065074597485
99281.518947211690829
99290.384777533268789
99294.525934323479305
99293.557304321118863
99287.583225399255753
99277.549632309659501
99260.01723960628442
99235.582923083449714
99210.958680579598877
99192.212658700795146
99183.111815051233862
99184.250903060834389
99193.188614247206715
99205.196667471900582
99215.312233105141786
99220.16640175851353
99219.484869146006531
99216.134688096761238
99214.25875922277919
99216.694227611413226
99223.535587277932791
99231.668468036441482
99236.188724338135216
99233.463427173555829
99223.161967704887502
99208.513998832830111
99194.820934719085926
99186.559565351926722
99185.562995273226989
99190.882641110409168
99199.310935929563129
99206.177987888018833
99206.348834906631964
99196.35038289440854
99176.38644212235522
99150.875992175060674
99127.318923859871575
99113.420055531300022
99279.682407092434005
99276.217316973852576
99270.792590243785526
99263.378607333841501
99254.532888135945541
99245.324529429868562
99237.108832027894096
99231.253608225801145
99228.871780260495143
99230.606273637502454
99236.45254110066162
99245.66075025977625
99256.840252681839047
99268.143090403798851
99277.642225432718988
99283.717006575796404
99285.313026193209225
99282.239822915216791
99274.822816534535377
99275.991721543046879
99248.349665280678892
99224.130192745360546
99209.049469647114165
99204.866691472896491
99209.405315437325044
99218.609578268806217
99228.249479615260498
99235.013940291843028
99237.168237933874479
99234.64354134844325
99229.635718333272962
99226.292148129665293
99228.619207531010034
99237.913654759264318
99251.434600011256407
99263.449807561497437
99268.458870898146415
99264.382680314607569
99253.59471688127087
99241.397757278959034
99232.621438136178767
99229.494049301982159
99231.090834558475763
99234.309058070328319
99235.425126695088693
99230.674558069324121
99217.372658614520333
99195.664046194593539
99169.630066628655186
99146.855661508641788
99135.10596593048831
99301.401511862437474
99298.992548549023923
99294.983345795728383
99289.01946255058283
99281.271773473214125
99272.465714452860993
99263.756935131415958
99256.494618285069009
99251.913919306432945
99250.834499748714734
99253.440985586974421
99259.175282209835132
99266.831328536878573
99274.730428822949762
99281.085844211658696
99284.352526782211498
99283.516599013397354
99278.490400223221513
99269.716306329835788
99268.111025152727962
99243.477201628091279
99228.967756146608735
99226.502439185089315
99233.466276300183381
99244.472622328525176
99254.591153998073423
99260.494812105986057
99261.143545483893831
99257.761470808429294
99253.015997112248442
99250.588087557873223
99254.098427253775299
99264.691138986250735
99279.683651837767684
99293.39389377880434
99300.455158745025983
99298.724623365764273
99290.071780884158215
99278.894322495354572
99269.434535695443628
99263.66068111207278
99260.373553524186718
99256.947496068998589
99251.187460922330501
99241.388048603970674
99227.006423330836697
99208.883972236784757
99189.878836279473035
99174.924433349224273
99324.717369355610572
99321.705131425711443
99316.957828825616161
99310.388626443600515
99302.448052432358963
99294.072992384943063
99286.488274885719875
99280.91851797713025
99278.268858066876419
99278.858099475357449
99282.268907271180069
99287.392390127773979
99292.637422788655385
99296.345303559326567
99297.130004072780139
99294.19392021119711
99287.666894381574821
99278.103755119242123
99267.206254624106805
99250.669369387993356
99246.031027767836349
99252.568848532420816
99265.143929923317046
99277.184153613474336
99284.657490284909727
99287.263495674735168
99287.071892416541232
99286.984387374628568
99289.124847863524337
99295.220182218734408
99305.092023451041314
99316.294865648524137
99324.93431539775338
99327.281310148246121
99322.095092248273431
99311.573429216907243
99299.512586771612405
99288.706149269564776
99279.535061757167568
99270.575906264886726
99260.516431410957011
99249.533732575408067
99238.992723214367288
99229.444471961483941
99221.203587636176962
99215.124997632578015
99350.161603121974622
99346.675392638993799
99342.086044176932774
99336.372601427894551
99329.840230719928513
99323.123528577329125
99317.076967734101345
99312.570702350029023
99310.256912448661751
99310.361073800042504
99312.548566914760158
99315.955160197496298
99319.314266459929058
99321.303597527148668
99320.838326054814388
99317.348371750937076
99311.042756295733852
99302.365738732740283
99272.790744767175056
99263.105563632241683
99264.815547799997148
99274.82561151914706
99287.418641213531373
99299.314775470935274
99309.969157120605814
99319.799805434027803
99329.652935291989706
99338.612901954373228
99345.84017817331187
99350.942579887094325
99352.480954646438477
99350.086788088010508
99342.588115700506023
99329.828586127870949
99313.997116336453473
99298.261298561090371
99283.972802582327859
99271.22396296147781
99259.807389530309592
99249.451948172936682
99241.0067957140418
99236.048569183927611
99235.705743840182549
99239.772840545454528
99246.599664999113884
99370.297228544644895
99364.885049301912659
99359.546715754433535
99354.6183037746232
99350.395938466783264
99347.136448867400759
99345.029175521660363
99344.182181150812539
99344.576770350613515
99346.012180401521618
99348.082452910559368
99350.161843638998107
99351.520342484363937
99351.417577358181006
99349.322161990799941
99345.201062745909439
99339.027167320775334
99312.047004761072458
99292.419279180699959
99279.378803728963248
99274.367422394163441
99276.543876395211555
99284.995019648747984
99298.768123657864635
99316.674255904945312
99336.670442330709193
99354.887725898413919
99368.402786628299509
99374.917490512118093
99374.337257477891399
99368.390547357790638
99356.90809728759632
99340.351641380082583
99320.866259067421197
99300.976996174649685
99282.866565544245532
99267.575031987158582
99255.438500994976494
99246.360337926700595
99241.046497850387823
99240.535493504285114
99244.868238303883118
99253.450469339382835
99264.989834306368721
99388.310911538777873
99383.607162431682809
99380.231460698501905
99378.242487712530419
99377.444126641348703
99377.513525920745451
99378.125904114393052
99379.057042456683121
99380.21693315426819
99381.597682142921258
99383.137144146181527
99384.642148670449387
99385.688590696969186
99385.729215917221154
99384.34881851512182
99380.95744617364835
99318.146036380392616
99302.740836050841608
99290.811152038964792
99281.574251487385482
99275.748339621830382
99275.937177528510801
99284.43071519737714
99300.788131418739795
99321.227256687154295
99340.237036890554009
99353.189316365824197
99359.023257512570126
99359.038137324372656
99354.159239704633364
99343.89938217830786
99328.53704405449389
99309.176115710230079
99288.42278050542518
99269.060726801573765
99253.907958509909804
99244.195150581552298
99240.210434170381632
99242.245120949228294
99249.241987214467372
99259.691719242415274
99271.941039312630892
99283.246058503544191
99291.594634709501406
99403.401776781014632
99400.821336131615681
99399.615786093461793
99399.459868209800334
99399.91232061489427
99400.599149443572969
99401.345071553470916
99402.206888032189454
99403.39494675102469
99405.092682615271769
99407.306787061184878
99409.709382534667384
99411.703016908053542
99412.627481138988514
99411.664896979695186
99305.159194473351818
99296.388798767075059
99285.92871133913286
99274.558027049220982
99266.772884321282618
99267.073469305236358
99276.378400484274607
99291.069560057061608
99305.489484980687848
99316.195817734027514
99322.676231633653515
99325.759599847559002
99325.526236506382702
99321.122656897234265
99311.207663708832115
99295.847407588400529
99277.138307027416886
99258.656735530050355
99244.464165447468986
99237.059225120479823
99237.486398122651735
99244.995211506102351
99257.383793689921731
99271.763010686176131
99284.256571207908564
99291.532771557322121
99293.01455583855568
99416.555704071419314
99415.279711728464463
99414.693808932614047
99414.456380540985265
99414.332749218374374
99414.31171980057843
99414.604186481010402
99415.537034282955574
99417.367989084756118
99420.136396008980228
99423.513596920776763
99426.871308038578718
99429.457548047867022
99430.433419836612302
99294.497013476197026
99284.919482111610705
99270.630920945957769
99256.415973358525662
99247.818706391146407
99247.16975377703784
99252.458962036282173
99259.815292671410134
99267.029576312852441
99274.090112521298579
99281.0389282006945
99287.547738917564857
99291.429905264405534
99289.670400300659821
99280.986193156451918
99266.668527620000532
99250.631079269543989
99237.788973894261289
99232.174152104576933
99235.523943087551743
99246.683996201507398
99262.371191106270999
99277.822034448676277
99287.948814623669023
99289.943946862069424
99284.697297234204598
99427.586709517316194
99425.904584428586531
99424.399264346488053
99423.038022089138394
99421.954326032762765
99421.453331573851756
99421.910949974335381
99423.596925438934704
99426.531372498808196
99430.380482078180648
99434.545711070342804
99438.283588025733479
99440.833176003026892
99276.101188860164257
99261.98187716587563
99244.779902675742051
99229.68722371669719
99219.785017885573325
99215.082647125833319
99214.158174411524669
99216.42649376312329
99222.332645049638813
99232.346681245995569
99244.963500196594396
99257.032974976449623
99264.180633435986238
99263.586728683367255
99255.428296135927667
99243.23379326002032
99232.589631314840517
99228.539939013440744
99233.371943736303365
99245.951738774514524
99262.071557681716513
99275.957726934284437
99282.563858482899377
99279.725157981200027
99269.246235604485264
99433.708811064265319
99430.684332694072509
99427.891010842446121
99425.588351750702714
99424.110671355432714
99423.799161018279847
99424.881119317447883
99427.376054386724718
99431.018909358477686
99435.324447399514611
99439.645023196106195
99443.363554672847386
99248.043623587509501
99231.581707248813473
99214.200779087390401
99198.849215488153277
99186.770734632489621
99178.47193334835174
99174.929639742462314
99177.517961278674193
99187.201939286096604
99202.80748050713737
99220.348719196030288
99234.995921452515176
99242.325231050373986
99241.138713417691179
99234.212481235925225
99226.846579505610862
99224.388523465051549
99229.851453632320045
99242.313742761587491
99257.172807609618758
99268.334371110904613
99270.952229302798514
99263.912523348088143
99250.458240740656038
99216.746043965089484
99200.513137131129042
99184.180421095734346
99168.957960644533159
99155.914351330560748
99146.926922465107054
99144.442323459399631
99150.512622162801563
99165.044918687228346
99184.747177828132408
99203.657196292624576
99216.851501123863272
99222.240701216258458
99221.268964175527799
99218.269185749435565
99218.364576374617172
99224.713788233770174
99236.560314525369904
99249.396059838647489
99257.329917762850528
99256.366720671649091
99246.657172269246075
99232.31109439212014
99174.781251470412826
99160.335558985127136
99146.026970367485774
99133.208065306665958
99125.104009807822877
99125.34619678920717
99135.279269629871123
99152.674836925725685
99172.510646689552232
99188.817283429380041
99198.890620064761606
99203.374557141432888
99205.493344128801255
99209.389632762598922
99217.563589269499062
99229.153164361792733
99240.111421400812105
99245.420973351996508
99242.261763650691137
99231.608257409519865
99217.891464842934511
99118.487226839104551
99112.511871212249389
99115.863965995842591
99127.790246328426292
99144.36843989683257
99160.822861770211603
99173.306016417453066
99181.638132805179339
99188.550451289309422
99196.913315450612572
99208.016095670493087
99220.443461668503005
99230.587140660820296
99234.604216090388945
99230.671528493330698
99220.372210159475799
99208.242782892237301
99122.411999500996899
99135.530086887214566
99147.661480629947619
99158.472255368076731
99169.172145535339951
99181.596756400613231
99196.132353651730227
99210.626193683885504
99221.502534552113502
99225.60906212394184
99222.073524734660168
99213.076038281069486
99203.096395955595654
99116.194883124073385
99126.039624886601814
99136.693400403615669
99149.300775507479557
99164.846194305457175
99182.603206457162742
99199.778681144205621
99212.526850412803469
99217.963384195943945
99215.831052374735009
99208.851141496983473
99201.334187124826713
99229.530493893704261
99201.312874815790565
99185.338081229361705
99175.291548013818101
99164.912008004655945
99153.42014205736632
99144.32668486397597
99142.271544630362769
99150.413895303296158
99168.036887111447868
99190.502838797430741
99210.256047296323231
99220.081994674925227
99217.583130828774301
99206.776670919309254
99195.990532968076877
99192.84239632540266
99200.790772237669444
99217.652633069999865
99238.294031900673872
99255.327893428140669
99211.711635790925357
99183.013140395254595
99168.578537848443375
99160.368943746187142
99151.040439133663313
99139.758198073788662
99131.347259131260216
99132.041664005504572
99144.935048499377444
99167.365620486671105
99192.487304531954578
99212.267929792127688
99220.919802308140788
99217.818758068679017
99207.458976110705407
99197.153929575579241
99193.130341974261682
99198.368085870490177
99212.61431847861968
99232.756043007058906
99255.2466435268434
99337.152150187466759
99293.015244291047566
99241.171313688275404
99195.857057075787452
99166.972771355431178
99154.214451303560054
99147.979455023203627
99139.80190186566324
99128.530638612748589
99120.332351260905853
99123.231537323459634
99140.156033926643431
99166.814380810741568
99194.331336877774447
99214.009276978176786
99221.542472452507354
99217.98240262667241
99208.211784015482408
99198.480592676220112
99193.504021242333692
99196.064338563563069
99207.554251010587905
99227.306864683225285
99252.650928573100828
99278.158781629928853
99296.263327655455214
99356.665553194776294
99327.768280148971826
99282.644194549968233
99229.011565704553504
99182.066012777126161
99153.201342580679921
99142.110683231439907
99138.035458013502648
99130.93839700895478
99119.423196502277278
99111.046938443527324
99115.585796921150177
99135.985522807473899
99166.441051119560143
99196.066559907761985
99215.660615686851088
99222.179970212746412
99218.226659606589237
99209.043421657042927
99199.806480627928977
99193.886772540950915
99193.848311825218843
99202.637684624627582
99222.02843716807547
99250.135357590697822
99280.480846672697226
99302.72531430212257
99309.579184004222043
99365.900845617172308
99348.46016362773662
99319.749227357940981
99273.985348375033936
99218.924192458434845
99170.398512904270319
99141.65366598808032
99132.207581912021851
99130.362172598703182
99124.207615145045565
99112.208013659255812
99103.383174263726687
99109.081839742066222
99132.505324277328327
99166.278947301587323
99197.722904488342465
99217.178520695029874
99222.730288517239387
99218.43547811404278
99209.852732591505628
99201.044897503510583
99194.195882123181946
99191.798335452200263
99198.049613137889537
99217.025309644261142
99247.78947230882477
99282.570450773884659
99308.781176618402242
99316.551569463685155
99306.403300094563747
99379.84536630018556
99359.92908966379764
99342.98828594625229
99314.595229748796555
99267.946022157237167
99210.962494927851367
99160.972830793616595
99132.263491044199327
99124.403459635737818
99124.647872351284605
99119.304436563965282
99106.703572575439466
99097.273869355150964
99103.797726065968163
99129.713818655596697
99166.34567578084534
99199.406692918419139
99218.811593288992299
99223.537582769567962
99218.86605495295953
99210.724213374094688
99202.179804165323731
99194.375242115362198
99189.80706056690542
99193.811139950223151
99212.357039209047798
99245.588826921884902
99284.414801644015824
99314.126508113375166
99322.718822530659963
99310.479082656791434
99289.261296245982521
99375.822821099180146
99355.437299124940182
99338.85033844395366
99310.709093433208182
99263.40168842796993
99204.992913648311514
99153.786312993091997
99125.058201723441016
99118.730445783672621
99120.798755788258859
99116.149237137986347
99102.798761193611426
99092.621788751814165
99099.618159640987869
99127.582470147244749
99166.613616606526193
99200.956964616212645
99220.269351605515112
99224.262507634004578
99219.221279139193939
99211.389181503618602
99203.051007191796089
99194.460457169203437
99188.044579401510418
99190.221606621213141
99208.397694104278344
99243.691206018338562
99285.9918509965064
99318.544063405002817
99327.84903149017191
99313.701277702057268
99289.633396153774811
99271.164748276714818
99336.607866068268777
99379.669063206209103
99453.42462726123631
99518.086090520388098
99552.358308935159585
99564.99135349271819
99373.213644056013436
99352.501826410763897
99336.304186945286347
99308.536539603766869
99260.544406571338186
99200.731578574719606
99148.87324516067747
99120.087168259065947
99114.991293332030182
99118.432775646913797
99114.293758932326455
99100.299416701280279
99089.44445937529963
99096.697984555750736
99126.159287151225726
99166.97711755920318
99202.270835756164161
99221.523236916647875
99224.962165940189152
99219.5799823358102
99211.891680187487509
99203.685368757534889
99194.41360049963987
99186.532010011986131
99187.433818017831072
99205.472130230176845
99242.260432139606564
99287.233602182022878
99321.832055277103791
99331.596572164620738
99316.027528670689208
99289.734413900703657
99269.801952270252514
99263.782621516031213
99338.564733764040284
99333.459425809007371
99377.512243482284248
99453.243472212809138
99519.005519215468667
99553.125864785106387
99564.936040531334584
99371.807951711045462
99350.976489594409941
99335.165419510929496
99307.61508917347237
99259.306981289191754
99198.515988427054253
99146.160330219659954
99117.572849623873481
99113.200925105382339
99117.403133230094681
99113.501999949949095
99099.097780354000861
99087.80737993324874
99095.204240495586419
99125.502908637310611
99167.310541673170519
99203.105052042694297
99222.272552382797585
99225.362678746460006
99219.773110691283364
99212.134014629031299
99204.034135196459829
99194.332945880363695
99185.566520137581392
99185.879245753822033
99203.874425438320031
99241.52350557189493
99288.035651248181239
99323.697437164883013
99333.524268724577269
99317.231182896503014
99289.588034438289469
99268.952586187704583
99262.88325535749027
99265.492624876118498
99184.987988961176598
99184.823121450172039
99187.360995251001441
99192.427782604616368
99199.453107311346685
99207.503481566294795
99215.383051089258515
99222.013722282485105
99226.682494025240885
99229.099785944898031
99229.301894509757403
99272.199665949636255
99266.418603624697425
99259.332586293065106
99251.866621343360748
99242.836646817042492
99230.921214195346693
99216.431560131706647
99201.997844133278704
99190.238912050466752
99181.098411379236495
99171.967917067900999
99159.161220930283889
99141.585052793554496
99122.888225704271463
99110.12180754543806
99108.643866968151997
99119.114491339641972
99136.278336360948742
99151.956739077650127
99158.844005292281508
99153.470428134402027
99137.096483924222412
99114.414208953952766
99091.974992795163416
99075.807123763355776
99070.004656575023546
99075.334631725389045
99088.785712419747142
99105.149200622166973
99118.857392315985635
99126.220310809585499
99126.354545660826261
99120.669626855960814
99112.08856551075587
99103.655619237193605
99097.1777766913292
99181.731217209686292
99186.363126032360015
99191.535084133254713
99195.925548616462038
99198.450423547488754
99198.495493706068373
99195.974731055641314
99191.308909504223266
99185.356746098885196
99179.306810562688042
99174.484783541804063
99172.112696925585624
99173.000837716230308
99177.274756569793681
99184.403427117489628
99193.418680994043825
99203.126860135060269
99212.340195306853275
99220.12610998848686
99226.065391415118938
99229.954182877030689
99298.788816755652078
99278.134372759392136
99259.32867015634838
99244.992223058507079
99233.345333650271641
99221.423204400693066
99208.036006239693961
99195.269417240735493
99186.327703587507131
99182.016065895280917
99179.324866021008347
99174.626024038880132
99165.046119532184093
99151.175904690753669
99138.105288089078385
99131.230128843235434
99133.054487940651597
99141.409752352075884
99151.011413548709243
99155.867494381658616
99152.277124309941428
99139.714818960026605
99121.016730574905523
99101.704609592998167
99087.751257197451196
99083.786654696959886
99090.997362252164748
99106.118309154349845
99123.336575665089185
99136.841038851824123
99142.901956969770254
99141.443506756462739
99135.093233320018044
99127.312232093696366
99121.014413981945836
99117.360540517707705
99183.751231710601132
99189.246553107790533
99195.054614717810182
99200.037453117198311
99203.007091538849636
99203.089839547945303
99200.020182753331028
99194.215184203902027
99186.632498001723434
99178.545181208362919
99171.314680621377192
99166.190188777254662
99164.166527860652423
99165.820883594729821
99171.17995028909354
99179.675536224924144
99190.301766733231489
99201.830162345300778
99212.998378628515638
99222.947138836825616
99231.04425964744587
99279.84794452888309
99252.406711634423118
99233.83942078713153
99222.20708465547068
99212.808480565348873
99203.262418608079315
99194.041753391982638
99188.542586992625729
99189.001985053764656
99193.869633436072036
99197.728720324259484
99196.212649414592306
99187.450845542000025
99173.76080053402984
99160.328313528079889
99151.738967803044943
99149.760989423652063
99152.593602067106985
99156.198662458133185
99155.828434117865982
99148.458581461003632
99134.735649512396776
99118.860626216162927
99106.935160909793922
99103.910132781544235
99111.15681434670114
99125.895739751314977
99142.263305924687302
99154.287072140607052
99158.887702891399385
99156.516601849420113
99150.236293722831761
99143.737526454249746
99140.017379597789841
99197.898082913801773
99204.034430305619026
99209.170178339205449
99212.340302795331809
99212.698792361305095
99209.739664884866215
99203.521080352875288
99194.720134214992868
99184.520730223914143
99174.405346864339663
99165.904587985845865
99160.354422826392693
99158.682795230997726
99161.318283019383671
99168.128479197388515
99178.483775903077913
99191.369705188335502
99205.443976418944658
99219.435410401929403
99232.082972740288824
99273.314127377598197
99243.013292276489665
99224.357011336527648
99215.304031363062677
99210.835560748062562
99206.217806543718325
99201.038320469902828
99198.298617538981489
99201.435035314236302
99210.631932754811714
99221.475898232412874
99227.23276414629072
99223.871928780077724
99211.402793217930594
99193.772461799308076
99177.054325558798155
99166.291958951871493
99163.221724668648676
99165.353015863074688
99167.401308352782507
99164.58114635165839
99155.415162464909372
99142.838867695056251
99132.569820737597183
99129.331298779463395
99134.938905106682796
99146.973511147894897
99160.099296292974032
99169.543456885454361
99172.96183725996525
99170.714856121820048
99165.590961317633628
99161.308383283409057
99160.661353498318931
99213.076526748976903
99219.058743505200255
99224.045361758588115
99227.116116464691004
99227.484962513088249
99224.582012028316967
99218.22738636151189
99208.77606829785509
99197.135022571426816
99184.645822752267122
99172.909621269805939
99163.573044552875217
99158.050242320809048
99157.29974544486322
99161.640916920863674
99170.764517586270813
99183.836101676337421
99199.521945923464955
99216.338541343677207
99232.564480952831218
99238.48199375027616
99223.674966376871453
99218.310106059710961
99217.423284175049048
99216.595035178324906
99214.514548951265169
99213.227450333637535
99216.581862690640264
99226.169758032745449
99239.586973934900016
99250.906551809850498
99254.136063534358982
99246.255543232924538
99229.369213053549174
99209.741340542663238
99194.240850004542153
99186.73294095757592
99185.962797835440142
99187.732722639600979
99186.974138844656409
99181.072059372600052
99171.453446065788739
99162.317086322727846
99157.930306135007413
99159.975171433776268
99166.986013560497668
99175.366575930849649
99181.849862563904026
99184.810571119989618
99184.227291223287466
99182.013577820005594
99181.044407641500584
99240.573825733488775
99244.777229751751292
99247.276124337076908
99247.294623511101236
99244.22060319823504
99237.716303071763832
99227.890944247643347
99215.430545791852637
99201.544073023746023
99187.781480170451687
99175.820841025648406
99167.245660792628769
99163.339398498137598