/*--------------------------------*- C++ -*----------------------------------*\
  =========                 |
  \\      /  F ield         | OpenFOAM: The Open Source CFD Toolbox
   \\    /   O peration     | Website:  https://openfoam.org
    \\  /    A nd           | Version:  12
     \\/     M anipulation  |
\*---------------------------------------------------------------------------*/
FoamFile
{
    format      ascii;
    class       volScalarField;
    location    "0.0064";
    object      pMean;
}
// * * * * * * * * * * * * * * * * * * * * * * * * * * * * * * * * * * * * * //

dimensions      [1 -1 -2 0 0 0 0];

internalField   nonuniform List<scalar> 
106891
(
98734.748403030389454
98735.417647750218748
98736.120032783772331
98736.855424722234602
98737.623973454523366
98738.426259827436297
98739.263404476136202
98740.137067231102264
98741.04800062745926
98741.99724206229439
98742.976972968928749
98737.236265531581012
98737.111676261833054
98736.982799243749469
98736.85035212506773
98736.718018678671797
98736.590838408956188
98736.472798293063533
98736.364379405320506
98736.261794818594353
98736.158745121269021
98736.049543366578291
98735.931658155735931
98735.805546353309182
98735.672883903520415
98735.534855401550885
98735.391420622341684
98735.242238691644161
98735.088346846838249
98734.932851992052747
98734.779965912050102
98734.633186615232262
98734.493522657692665
98734.359394402199541
98734.228068866636022
98734.097060094951303
98733.96485382472747
98733.83069482416613
98733.694291223611799
98733.55589943677478
98733.416282991762273
98733.276944924582494
98733.13968368784117
98733.005550971109187
98732.87426163967757
98732.744562890176894
98732.61548926672549
98732.487675830358057
98732.363306638100767
98733.347181505523622
98733.796580595895648
98734.27127371491224
98734.7728449866554
98735.302762426639674
98735.862316273647593
98736.452572480397066
98737.074307724891696
98737.727905045569059
98738.413351736438926
98739.130387148295995
98739.878701510489918
98740.658112773482571
98741.468759904309991
98742.311173385911388
98743.186386746849166
98744.095969287242042
98745.040627016525832
98746.021463005265105
98747.031160572136287
98737.080110849390621
98736.949818404158577
98736.815835477202199
98736.682833379571093
98736.556441131717293
98736.440681188571034
98736.335498370201094
98736.236116508138366
98736.135303868970368
98736.027041079491028
98735.908966323069762
98735.78207911811478
98735.648460788957891
98735.509420068759937
98735.364913743906072
98735.214203848896432
98735.057838385371724
98734.898602518485859
98734.740660776456934
98734.587732274318114
98734.441412881933502
98734.300801234494429
98734.163864304020535
98734.028280066137086
98733.892105523482314
98733.753907933802111
98733.612834346989985
98733.468802465664339
98733.32263512937061
98733.1763149737817
98733.032421616022475
98732.892910257942276
98732.758164452374331
98732.627011429591221
98732.498068822693313
98732.371260731204529
98736.55169938657491
98737.052841754179099
98737.578920157684479
98738.131396701428457
98738.711636513922713
98739.320801517838845
98739.959750516645727
98740.629026326045278
98741.328848169316188
98742.059094418247696
98742.819378480635351
98743.609221766877454
98744.428316349629313
98745.27674703206867
98746.15505315255723
98747.064262154730386
98748.005900277625187
98748.980712469623541
98749.989875008206582
98751.026485745547689
98737.052321669296362
98736.920589094661409
98736.786166679812595
98736.65429249429144
98736.530200761990272
98736.417103530184249
98736.31419612254831
98736.216520049492829
98736.116857351342333
98736.009158405664493
98735.891024260898121
98735.76361621801334
98735.629438073447091
98735.490286289350479
98735.346247457229765
98735.196262629222474
98735.040023841400398
98734.879285776987672
98734.717468468748848
98734.558246554021025
98734.404211211964139
98734.256003621238051
98734.112425100567634
98733.971360877301777
98733.830394181379233
98733.687436579610221
98733.540897359896917
98733.390348870030721
98733.236965611431515
98733.083423619260429
98732.933162831250229
98732.789033614681102
98732.65218193725741
98732.521744801473687
98732.395612824097043
98732.272173281147843
98740.307875192898791
98740.882414334148052
98741.482430827163626
98742.109207253612112
98742.763867153465981
98743.447229593264638
98744.159731023697532
98744.901431681661052
98745.672097907721763
98746.471335094523965
98747.298672116055968
98748.15375296997081
98749.036511158890789
98749.947354340925813
98750.887259940544027
98751.85771885367285
98752.859488122601761
98753.893729572897428
98754.953940599720227
98736.889407093985938
98736.755678618865204
98736.62664658112044
98736.50617474061437
98736.395765398701769
98736.293729868222727
98736.195400989250629
98736.094639014656423
98735.986491589443176
98735.869040151650552
98735.743239464281942
98735.611184869121644
98735.474451947244233
98735.333074266862241
98735.185915950831259
98735.032021344290115
98734.871778021682985
98734.707521760225063
98734.542853974751779
98734.381090982002206
98734.224102480511647
98734.071910726692295
98733.923097310034791
98733.775256818815251
98733.625851865042932
98733.473139268753584
98733.316678006012808
98733.157671500230208
98732.999087687072461
98732.844964298667037
98732.698883968449081
98732.562517584257876
98732.435089006074122
98732.313718999750563
98742.946474553769804
98743.543776039819932
98744.1641220941965
98744.808632518164814
98745.478479428187711
98746.174769048782764
98746.898362493899185
98747.649739078144194
98748.429005481593776
98749.235939947117004
98750.070117561524967
98750.931036793830572
98751.818359628203325
98752.732034047556226
98753.672426683391677
98754.640375812799903
98755.637150586830103
98756.663413391957874
98757.720242268100264
98758.801553705052356
98736.867498024541419
98736.734460351959569
98736.608618663216475
98736.492180640198058
98736.384594721588655
98736.282882300380152
98736.182586841736338
98736.079082012773142
98735.969067333906423
98735.851381997839781
98735.72662393542123
98735.596394564694492
98735.462010331757483
98735.323412276236922
98735.179280151394778
98735.028027906417265
98734.868995173383155
98734.703383323474554
98734.534344883446465
98734.365636710368562
98734.200164071749896
98734.039351212297333
98733.882852752474719
98733.72860423871316
98733.573868317267625
98733.416617868439062
98733.256290002114838
98733.094169360469095
98732.933435642917175
98732.778472727630287
98732.633308265096275
98732.49985010943783
98732.376872757420642
98746.744315281102899
98747.40807646518806
98748.094452567063854
98748.804482750419993
98749.539231575196027
98750.299645020393655
98751.086408801216749
98751.899798197948257
98752.739622528184555
98753.605377274259808
98754.496464202282368
98755.412513546121772
98756.35349949450756
98757.319846062266151
98758.312352694731089
98759.33213920504204
98760.379800462163985
98761.45632075118192
98762.556182130705565
98736.713884834156488
98736.589930089408881
98736.476459523822996
98736.371153332162066
98736.269839144049911
98736.168233989083092
98736.062941689713625
98735.951832110920805
98735.834266071629827
98735.710558436025167
98735.581653433458996
98735.448664714887855
98735.311844096286222
98735.17001016595168
98735.021194555505645
98734.863686035765568
98734.697367500033579
98734.524631539548864
98734.349883996866993
98734.177508275781292
98734.010015044157626
98733.847459194803378
98733.688075046171434
98733.529522970246035
98733.370187194741447
98733.209771671041381
98733.049482458314742
98732.892111801309511
98732.741494961766875
98732.60091103267041
98732.471740788925672
98732.352539934159722
98749.887566666773637
98750.59223811996344
98751.317962586996146
98752.06566813623067
98752.836399765743408
98753.631154508664622
98754.450665070849936
98755.295285118743777
98756.164982589310966
98757.059458549949341
98757.978200227953494
98758.920711072903941
98759.886733303035726
98760.876441749976948
98761.890488900608034
98762.93002486754267
98763.995779028438847
98765.088729841489112
98766.203953487347462
98736.583653459718334
98736.471201593158185
98736.366803917349898
98736.265931344270939
98736.163883400295163
98736.057171872686013
98735.944020195500343
98735.824408902015421
98735.699319743071101
98735.569908755467623
98735.436788595587132
98735.299536473248736
98735.156739135200041
98735.006552103819558
98734.847432893890073
98734.679514496543561
98734.505357633301173
98734.329018711185199
98734.154326375413802
98733.98378495304496
98733.818193289043847
98733.656805993785383
98733.498229192002327
98733.341537914166111
98733.186493923523813
98733.033909718200448
98732.88554506249784
98732.743501745077083
98732.609673411876429
98732.484696084051393
98753.699376966207637
98754.462248125797487
98755.245863967968035
98756.05104119196767
98756.878570851258701
98757.729117880924605
98758.603116201004013
98759.500662994003505
98760.421543984179152
98761.365325901977485
98762.331604078121018
98763.320061638587504
98764.330731719455798
98765.363994044950232
98766.420713663668721
98767.501451699266909
98768.607192615279928
98769.733808503369801
98736.464678547752555
98736.358307466900442
98736.256079909580876
98736.153026334068272
98736.044949980350793
98735.930012883443851
98735.80850484270195
98735.681608644357766
98735.550183066268801
98735.414226659777341
98735.273119683930418
98735.125928683308302
98734.971686822944321
98734.810222759741009
98734.642376825431711
98734.470325295478688
98734.297374377521919
98734.126688286894932
98733.960183840041282
98733.798348744850955
98733.640784566247021
98733.487052629410755
98733.337575274723349
98733.192930518227513
98733.052954022234189
98732.917186824066448
98732.78563595203741
98732.658508029169752
98756.711141644685995
98757.508022576614167
98758.324764870500076
98759.162078394845594
98760.020621861243853
98760.900875319930492
98761.803087180742295
98762.727247164046275
98763.673126644454896
98764.640307634515921
98765.628367524273926
98766.637009536265396
98767.666293186732219
98768.716489968748647
98769.788302461864077
98770.882077472168021
98771.998477326211287
98773.133629682517494
98736.356496312262607
98736.250554199272301
98736.145578598050633
98736.037308885919629
98735.923432499475894
98735.803090577726834
98735.675944251794135
98735.541666124219773
98735.40014796538162
98735.25123295171943
98735.095450866021565
98734.933496198573266
98734.766762580838986
98734.59731655343785
98734.427567434482626
98734.260394446464488
98734.098087619247963
98733.941622676269617
98733.790849791839719
98733.645370050042402
98733.505051509666373
98733.369772892212495
98733.239223833370488
98733.112483435310423
98732.988264707790222
98732.865280316327699
98732.742502464432619
98760.453456823568558
98761.301842481843778
98762.169965711203986
98763.05794354477257
98763.965879044946632
98764.893848809166229
98765.841821241294383
98766.809679785801563
98767.797187721735099
98768.804104060851387
98769.830158176890109
98770.875325766086462
98771.939711155209807
98773.023831581929699
98774.127846947492799
98775.25226341112284
98776.39376708464988
98736.459191079309676
98736.337867562557221
98736.223257734556682
98736.111899527371861
98736.000330828159349
98735.885776679133414
98735.765822765271878
98735.638434955180855
98735.502295247075381
98735.356979043936008
98735.203464485908626
98735.043786920738057
98734.880776488484116
98734.716569111842546
98734.55320971889887
98734.393256062627188
98734.238716358842794
98734.090659523862996
98733.949210720835254
98733.814008346787887
98733.684368720671046
98733.559379881058703
98733.438077183207497
98733.319258160758181
98733.201497411821038
98733.083444603951648
98732.963965034621651
98764.151479398307856
98765.047916750962031
98765.963283856239286
98766.897328177263262
98767.849807405480533
98768.820517118831049
98769.80929030867992
98770.815984128188575
98771.840525970605086
98772.882822503364878
98773.942898668727139
98775.020653837971622
98776.116256503533805
98777.229495190083981
98778.360541837275377
98779.506477995179011
98736.450996394822141
98736.320480077338289
98736.194761550126714
98736.072734805522487
98735.953510742110666
98735.835461669819779
98735.715733141478267
98735.590694383048685
98735.457751896217815
98735.316310084352153
98735.167861027322942
98735.014948190102587
98734.859812067938037
98734.704114173626294
98734.549715824439772
98734.398863559341407
98734.253677374217659
98734.115577734584804
98733.984975918981945
98733.861248269953649
98733.742861768289004
98733.628097838285612
98733.515185845011729
98733.402404954758822
98733.28853115880338
98733.172823185508605
98733.055322449290543
98732.937006725434912
98767.393186359593528
98768.327474278892623
98769.279881604335969
98770.250007477618055
98771.237534013984259
98772.242281636834377
98773.264143306601909
98774.303048034576932
98775.358840681496076
98776.431384330731817
98777.52040067416965
98778.625905006323592
98779.747540975280572
98780.885343099071179
98782.036836676503299
98736.290622012296808
98736.155394322107895
98736.023038336410536
98735.894546059003915
98735.770044994802447
98735.647604183905059
98735.523814149797545
98735.395736892518471
98735.26238454124541
98735.124542050936725
98734.983553948957706
98734.840599716029828
98734.696695541002555
98734.55315712808806
98734.411883802415105
98734.275255520624341
98734.145334377666586
98734.023022855530144
98733.907571242700214
98733.797140030510491
98733.689262728308677
98733.581371289372328
98733.471600433782442
98733.358979237178573
98733.243664181034546
98733.127125221726601
98733.011676897556754
98770.177214590628864
98771.141515525960131
98772.123288446979132
98773.122306899807882
98774.138401097661699
98775.171386846326641
98776.221090048740734
98777.28723709390033
98778.369590760499705
98779.467755654724897
98780.581573101648246
98781.710582294297637
98782.854766781194485
98784.011877926532179
98736.119456189786433
98735.977892052324023
98735.840948972414481
98735.710229819000233
98735.584808648680337
98735.462030202354072
98735.33920511463657
98735.215104671762674
98735.089623621723149
98734.962657512034639
98734.833837398749893
98734.703062123851851
98734.570884365501115
98734.438912871613866
98734.309620016254485
98734.185655571156531
98734.068681098739034
98733.958419208822306
98733.852866673842072
98733.749032243023976
98733.644019176746951
98733.5358155783033
98733.423870530037675
98733.309387664543465
98733.195129811239894
98733.08422868080379
98772.799181305832462
98773.789716643746942
98774.797562471329002
98775.822574077377794
98776.864556493790587
98777.923260580311762
98778.998303303524153
98780.089311729112524
98781.195778294888441
98782.317488904882339
98783.453906464288593
98784.604954203387024
98785.768492847477319
98735.933137025422184
98735.789316670328844
98735.652047788898926
98735.522011311550159
98735.398264555886271
98735.279118421283783
98735.163065514934715
98735.048998355036019
98734.935681120288791
98734.821424040783313
98734.704610455242801
98734.584640496002976
98734.462368623164366
98734.340161725587677
98734.221262121107429
98734.108116321469424
98734.001054462540196
98733.898317636121647
98733.79693749776925
98733.693814602578641
98733.586846691148821
98733.47608135016344
98733.363829677939066
98733.253729942705831
98733.149239661390311
98775.279236220972962
98776.293954231310636
98777.326001849360182
98778.37513578432845
98779.441067313586245
98780.523397952172672
98781.621738180270768
98782.735573041820317
98783.864622493623756
98785.008257664594566
98786.166361958603375
98787.336840290823602
98735.751527875065221
98735.609365930518834
98735.475393977059866
98735.350008183857426
98735.232630382757634
98735.121926973326481
98735.016207361797569
98734.913532527862117
98734.811306818490266
98734.706687695594155
98734.597900281572947
98734.485042253450956
98734.370032007078407
98734.256128858512966
98734.146263422866468
98734.041385250995518
98733.940224922975176
98733.840090075551416
98733.738187957875198
98733.632865020088502
98733.524582766869571
98733.416104388990789
98733.311476558461436
98733.214090045847115
98735.576156517039635
98735.438988544730819
98735.311140039659222
98735.192744669082458
98735.083262620188179
98734.98144198168302
98734.885179709250224
98734.791235317650717
98734.696030195278581
98734.5968097873847
98734.492824172732071
98734.385429205838591
98734.277472321904497
98734.171875529340468
98734.070102429570397
98733.971288041793741
98733.873054442898137
98733.772951473627472
98733.669861435017083
98733.564739245557575
98733.460685923200799
98733.361733104276937
98733.270934022162692
98735.290984591090819
98735.169771988003049
98735.057969961475465
98734.955089657974895
98734.859910782950465
98734.769767904377659
98734.680899680985021
98734.589752148807747
98734.49437371249951
98734.395064649870619
98734.294097522244556
98734.193972589171608
98734.096024034370203
98733.999756793666165
98733.903311717018369
98733.805015549587552
98733.704443984286627
98733.602965390120517
98733.503743570166989
98733.410418765706709
98733.325302398836357
98734.834649753931444
98734.744120967079652
98734.657486758223968
98734.571083538641687
98734.482285256031901
98734.390540864915238
98734.297000921986182
98734.203437803109409
98734.110779872149578
98734.018496798918932
98733.925142766485806
98733.829550129798008
98733.731931388421799
98733.63411211296625
98733.539208343048813
98733.450434270809637
98733.369555077748373
98734.467593340072199
98734.382457132422132
98734.296327004893101
98734.209985522276838
98734.123587145862984
98734.036238035536371
98733.946584184770472
98733.854001152460114
98733.759290154222981
98733.664725416296278
98733.57325983219198
98733.487721802885062
98733.40946699284541
98734.365143561924924
98734.284929974179249
98734.204963739277446
98734.124677630883525
98734.042767944134539
98733.957969109964324
98733.869707667952753
98733.778902768579428
98733.687880716723157
98733.599562268515001
98733.516435436351458
98733.439410704988404
98748.36083892712486
98748.167170246393653
98747.974111174218706
98747.778211633180035
98747.580468140600715
98747.384347221435746
98747.192475886084139
98747.00497856484435
98746.819219724682625
98746.631047396265785
98746.436760546494043
98746.235589712276123
98746.030586969980504
98745.827129583034548
98745.630872813009773
98745.444880000635749
98745.268053830557619
98745.096101504212129
98744.924190975900274
98744.749133644421818
98748.566139506641775
98748.368789554195246
98748.178637321921997
98747.988771899428684
98747.795353020570474
98747.599694919990725
98747.405555809280486
98747.215786519576795
98747.029845035795006
98746.843897998638568
98746.65323968642042
98746.455030349316075
98746.249922544273431
98746.041921552459826
98745.8368241682183
98745.639780797064304
98745.453377204437857
98745.276650363593944
98745.105943798058433
98744.93688494496746
98744.765865529116127
98744.590316211731988
98749.000556599348783
98748.779725085798418
98748.571701151449815
98748.37692426177091
98748.189823416440049
98748.002739010742516
98747.811296569765545
98747.616908214025898
98747.424034258569009
98747.235797438726877
98747.051005033077672
98746.864997832963127
98746.67257654191053
98746.471334290748928
98746.263175635875086
98746.053126014288864
98745.846932871208992
98745.649365083896555
98745.462710179504938
98745.286321318373666
98745.117041715391679
98744.950796978140716
98744.783367079886375
98744.61098518538347
98744.431142531728256
98744.244436125896755
98749.226055782302865
98749.000016493795556
98748.779836505549611
98748.572885026253061
98748.380155248334631
98748.195796984000481
98748.011245299116126
98747.821530952627654
98747.6284876606951
98747.437040600008913
98747.250481442839373
98747.067218333715573
98746.881644405948464
98746.687752090627328
98746.483582402521279
98746.272239594967687
98746.059803658441524
98745.852142886098591
98745.653587826047442
98745.466211811595713
98745.289561810801388
98745.121235506769153
98744.957628973803367
98744.79387985233916
98744.624727740490925
98744.446449199385825
98744.259278650366468
98744.0676870966563
98749.44556099595502
98749.223711853657733
98748.99950149738288
98748.78102873955504
98748.575804452135344
98748.385131360308151
98748.202786445093807
98748.019602852975368
98747.830478993593715
98747.637633832011488
98747.446953401333303
98747.261945459744311
98747.080467756153666
98746.895755590740009
98746.701140555625898
98746.494990137129207
98746.28143175751029
98746.067170425667427
98745.858325588953448
98745.659061195983668
98745.471224432360032
98745.294589660101337
98745.127143716774299
98744.965623723372119
98744.804834197333548
98744.638330394955119
98744.461309090373106
98744.273553979714052
98744.08021001907764
98743.88873796799453
98749.656365284958156
98749.441132125357399
98749.220382385130506
98748.996526986302342
98748.778256985766347
98748.573779493366601
98748.384533723365166
98748.204216391110094
98748.023162420126027
98747.835601529543055
98747.643827116509783
98747.454220246741897
98747.270567953411955
98747.090319054535939
98746.905872920746333
98746.710065367486095
98746.501540900135296
98746.285483766871039
98746.069561684853397
98745.859780294602388
98745.659803455797373
98745.471376888031955
98745.294559853515239
98745.127913458098192
98744.968424385951948
98744.810533698793733
98744.646520855705603
98744.470412112612394
98744.28195801351103
98744.086995026635122
98743.8941099896183
98743.709731013994315
98749.655375406175153
98749.441501101187896
98749.221803553460632
98748.998646561798523
98748.78101501603669
98748.577551194626722
98748.38985065081215
98748.211346878364566
98748.031561113399221
98747.844357292415225
98747.652364412104362
98747.462833931233035
98747.279822226715623
98747.100506681686966
98746.91663371885079
98746.720435505965725
98746.510748423606856
98746.293337764946045
98746.076268372416962
98745.865769364812877
98745.665481019517756
98745.476844651580905
98745.299990538071143
98745.133868053220795
98744.975756591840764
98744.81986717300606
98744.657574541226495
98744.482006066362374
98744.292748360225232
98744.096136943757301
98743.901891726214672
98743.717268788488582
98743.542372267023893
98762.886648669169517
98762.631884092523251
98762.342709328469937
98762.014845026802504
98761.661401106815902
98761.297802194574615
98749.653311861431575
98749.440105923640658
98749.220825079421047
98748.997598676156485
98748.779878082408686
98748.576754308873205
98748.389966010523494
98748.212732747575501
98748.034057174198097
98747.847409253023216
98747.655681578602525
98747.466553309597657
98747.284275275451364
98747.105829437714419
98746.922388788487297
98746.72564292800962
98746.514605781179853
98746.295775329868775
98746.077699236717308
98745.866602743932162
98745.665964446394355
98745.477031444461318
98745.300049001700245
98745.134341583994683
98744.977436355344253
98744.823224825930083
98744.662367680386524
98744.487199673763826
98744.297271364746848
98744.099420861210092
98743.9040770867432
98743.719243136889418
98743.544889926561154
98743.374689025891712
98763.127275563194416
98762.887739686149871
98762.634438176901313
98762.345764508849243
98762.017454386368627
98761.663362436753232
98761.299369525353541
98749.658068564473069
98749.445469290760229
98749.226512649169308
98749.00331841847219
98748.785677875392139
98748.582867248842376
98748.39679054847511
98748.220397914235946
98748.042287799005862
98747.855743047621218
98747.663953521725489
98747.474813041029847
98747.292765236546984
98747.114743881626055
98746.931534546660259
98746.734564099999261
98746.523048784423736
98746.303740978066344
98746.085259736384614
98745.873905558080878
98745.673186613523285
98745.484172702592332
98745.307111261063255
98745.141596891538939
98744.985308595467359
98744.831905642844504
98744.671656488542794
98744.496586456283694
98744.30620494550385
98744.1076292013895
98743.911696240931633
98743.726876013097353
98743.552885345925461
98743.383075396748609
98743.211302872165106
98735.356828620497254
98736.028635103764827
98736.735628238355275
98737.478211146924878
98738.256934697899851
98739.07248659383913
98739.925723093081615
98740.81769769937091
98741.748302053645602
98742.717610416832031
98743.716417100935359
98738.016734936609282
98737.885549798156717
98737.755926400670432
98737.627622972315294
98737.500479016074678
98737.37500755545625
98737.25224468401575
98737.132550343085313
98737.014973227400333
98736.897946932847844
98736.780581345388782
98736.663269130993285
98736.547816283607972
98736.436036395753035
98736.327311827204539
98736.218284939037403
98736.104104144775192
98735.980534474583692
98735.846080871473532
98735.70272864276194
98735.554844806436449
98735.407451921288157
98735.264957027247874
98735.129635136385332
98735.000938738769037
98734.875934137904551
98734.750403572470532
98734.62042125914013
98734.483656284428434
98734.340254193826695
98734.192616135609569
98734.044263136456721
98733.89868866179313
98733.758399774946156
98733.624384661496151
98733.496345374718658
98733.525311496501672
98733.957107128080679
98734.412016837726696
98734.891088482894702
98735.395610098014004
98735.927053530045669
98736.487018893269124
98737.077112232174841
98737.698776687349891
98738.353119778024848
98739.04086785063555
98739.762436047938536
98740.518087549411575
98741.307987001142465
98742.132335716916714
98742.991441284844768
98743.885779937394545
98744.816063777412637
98745.781936842438881
98746.783417571685277
98747.811804566546925
98737.96113506135589
98737.827702136870357
98737.700286978753866
98737.576886102964636
98737.455602803063812
98737.335914319424774
98737.218238835135708
98737.102928698368487
98736.989063864792115
98736.874641522474121
98736.757965644515934
98736.638824012552504
98736.518475335615221
98736.399137104002875
98736.2816930412082
98736.16462617891375
98736.044785087418859
98735.918575903211604
98735.783979386207648
98735.641760386395617
98735.495045363772078
98735.347855434461962
98735.204119286499918
98735.066205630384502
98734.933832744936808
98734.804279838179355
98734.67358357484045
98734.538110480410978
98734.395884692843538
98734.24742144542688
98734.095503942546202
98733.943778489119723
98733.795508624971262
98733.652743567479774
98733.515974696274498
98733.384466479197727
98736.698279628544697
98737.183236020064214
98737.690402868494857
98738.220900527579943
98738.776069015904795
98739.357390576187754
98739.966390103028971
98740.604568693583133
98741.273321611588472
98741.973836795717943
98742.706974470289424
98743.473218166691368
98744.272688398457831
98745.105338571287575
98745.971104131313041
98746.869959301082417
98747.801969047082821
98748.767407425533747
98749.76555498149537
98750.796208453524741
98751.851026666685357
98737.787773711650516
98737.664978957312996
98737.548371797776781
98737.434457740731887
98737.32147456916573
98737.209112869924866
98737.097687546542147
98736.986549148117774
98736.873603519779863
98736.756393343690434
98736.633643697132356
98736.50647226338333
98736.377519601941458
98736.249404839429189
98736.12291724034003
98735.996729870457784
98735.868004597112304
98735.734073975778301
98735.594079211892677
98735.449161275173537
98735.302003168049851
98735.156107999573578
98735.01434336102102
98734.877179984658142
98734.742421048562392
98734.606582936248742
98734.466206768163829
98734.319594496366335
98734.167625601883628
98734.013249528885353
98733.859997649764409
98733.710709239545395
98733.566945907834452
98733.428680487282691
98740.413006638802472
98740.969227269000839
98741.547697631656774
98742.149757899838733
98742.776918391275103
98743.430757713678759
98744.112789480466745
98744.824374635136337
98745.566677719252766
98746.340597141126636
98747.146715185037465
98747.985237481407239
98748.856042857441935
98749.758816050074529
98750.693194704072084
98751.658852817810839
98752.655653191584861
98753.682544065304683
98754.739045834139688
98755.817142518033506
98737.765213764607324
98737.647782091007684
98737.537458882652572
98737.429512303089723
98737.321211250280612
98737.212081798134022
98737.102464530267753
98736.992103951182798
98736.879149249594775
98736.760762601814349
98736.634816577061429
98736.50185491477896
98736.364899099469767
98736.227641633842723
98736.092631120409351
98735.960194636310916
98735.828345394547796
98735.694014948981931
98735.554931567923632
98735.410698660256458
98735.262944564252393
98735.114715582865756
98734.969037322225631
98734.826921975938603
98734.686854494575527
98734.546047844894929
98734.401644224839401
98734.252215199507191
98734.098622274046647
98733.943496236373903
98733.790175964415539
98733.641276433074381
98733.49789208927541
98733.359471306190244
98743.626977956606424
98744.229061075704521
98744.852190485529718
98745.497653674319736
98746.166910006315447
98746.861525544416509
98747.583105760146282
98748.333169248653576
98749.113010198241682
98749.923577315566945
98750.765441931114765
98751.638787647563731
98752.543498187995283
98753.479153131935163
98754.445101945719216
98755.440566140357987
98756.464893093056162
98757.516683017267496
98758.595276789390482
98759.693156668916345
98737.660313446074724
98737.553076178475749
98737.447912448376883
98737.341773017600644
98737.23361968107929
98737.123868560069241
98737.012715642224066
98736.89882391950232
98736.77962108142674
98736.65265958730015
98736.517212088278029
98736.375074541312642
98736.230011952866334
98736.0861088243837
98735.945566859372775
98735.807893847013474
98735.670494609788875
98735.530512024866766
98735.386237389800954
98735.237889766649459
98735.087722967437003
98734.938526316924253
98734.791926718971808
98734.6473611582187
98734.502814674240653
98734.356171145438566
98734.206344784863177
98734.053944958708598
98733.90081809736148
98733.749290262756404
98733.601325955110951
98733.457794638743508
98747.452999469664064
98748.117726218988537
98748.803580762571073
98749.511920296426979
98750.244224664085777
98751.002028082075412
98751.786848130912404
98752.600050664375885
98753.442734801763436
98754.315658314371831
98755.219082325027557
98756.152836472552735
98757.11634938797215