/*--------------------------------*- C++ -*----------------------------------*\
  =========                 |
  \\      /  F ield         | OpenFOAM: The Open Source CFD Toolbox
   \\    /   O peration     | Website:  https://openfoam.org
    \\  /    A nd           | Version:  12
     \\/     M anipulation  |
\*---------------------------------------------------------------------------*/
FoamFile
{
    format      ascii;
    class       volScalarField;
    location    "0.0064";
    object      pPrime2Mean;
}
// * * * * * * * * * * * * * * * * * * * * * * * * * * * * * * * * * * * * * //

dimensions      [2 -2 -4 0 0 0 0];

internalField   nonuniform List<scalar> 
106891
(
153196.24810600280762
153155.56698989868164
153119.11612510681152
153084.56413078308105
153056.74274635314941
153039.80961418151855
153044.05576324462891
153070.54330253601074
153124.65585136413574
153208.89839553833008
153308.52787780761719
491595.76921463012695
489977.28744506835938
488360.56089210510254
486741.28179359436035
485116.76468849182129
483485.35516929626465
481845.86514282226562
480196.70314788818359
478537.32411575317383
476869.86393928527832
475196.69294357299805
473517.3668327331543
471830.31512260437012
470136.42094802856445
468437.77954483032227
466734.59197998046875
465026.59127998352051
463316.64976501464844
461611.36240768432617
459919.50540924072266
458249.43803024291992
456604.54189491271973
454983.0129566192627
453383.3046703338623
451808.14231300354004
450263.1165599822998
448752.61899948120117
447277.98437309265137
445837.99817657470703
444428.37160873413086
443040.02265930175781
441661.48175621032715
440286.19423484802246
438915.75189590454102
437553.89121055603027
436198.91278266906738
434843.88984107971191
433482.69598007202148
154450.04674339294434
154216.04434967041016
154002.88841438293457
153809.6763801574707
153637.97334861755371
153491.32992172241211
153373.25654983520508
153284.55808067321777
153221.18770599365234
153174.7115306854248
153134.63761711120605
153093.48979568481445
153047.95998573303223
153002.65582466125488
152962.66876983642578
152939.47148132324219
152936.34167289733887
152960.07142639160156
153014.34944534301758
153084.62578392028809
489863.66252708435059
488235.80773544311523
486608.4435920715332
484976.65630340576172
483338.73029708862305
481695.61128997802734
480047.58425903320312
478394.65176200866699
476739.04091644287109
475082.6390495300293
473422.8431568145752
471755.83126640319824
470082.12767601013184
468405.02345848083496
466724.76460456848145
465038.97846031188965
463348.33839416503906
461659.20225524902344
459981.57843017578125
458324.31068992614746
456690.71129035949707
455079.72151565551758
453491.56533622741699
451929.80781745910645
450398.82628440856934
448900.37051391601562
447432.89664459228516
445993.24581146240234
444576.81661987304688
443175.41019248962402
441777.55710983276367
440374.67709159851074
438966.98932075500488
437561.19248008728027
436162.13567543029785
434767.96511268615723
154503.83192443847656
154269.14809989929199
154053.3349666595459
153854.75554084777832
153675.3642578125
153519.75210571289062
153392.46927642822266
153294.93442726135254
153223.29551696777344
153169.04683113098145
153121.45367622375488
153072.29128456115723
153017.19564437866211
152959.33075904846191
152902.93121147155762
152858.85140800476074
152831.19510841369629
152827.47128868103027
152852.52818298339844
152892.7095947265625
489939.64472770690918
488276.70706748962402
486614.48621559143066
484946.88071823120117
483274.36130332946777
481602.30765151977539
479934.22789573669434
478271.14733505249023
476614.5337028503418
474964.14857864379883
473314.74799919128418
471660.99032402038574
470004.28110122680664
468349.88193702697754
466698.16338920593262
465043.66709518432617
463383.50555038452148
461723.08362197875977
460072.88771820068359
458441.69848442077637
456833.20466041564941
455247.68702697753906
453685.67817497253418
452148.63370895385742
450637.26235198974609
449150.77704048156738
447686.28468132019043
446239.98198318481445
444808.02713203430176
443384.91936111450195
441961.39300346374512
440527.93038368225098
439082.6148681640625
437633.34958648681641
436189.89332580566406
434754.6436939239502
154374.39339065551758
154156.85176658630371
153957.36104393005371
153775.47220611572266
153613.62401580810547
153475.02358818054199
153361.0910816192627
153269.4520435333252
153193.98162460327148
153126.43432807922363
153060.14631652832031
152991.0848217010498
152921.19023704528809
152853.05838012695312
152795.53729438781738
152752.06905174255371
152729.7241382598877
152733.80142593383789
152751.52977752685547
488543.7428035736084
486823.10250091552734
485094.88241386413574
483364.48984146118164
481642.87632751464844
479936.93565559387207
478247.86579322814941
476575.39860916137695
474917.25094795227051
473267.20455932617188
471620.38216209411621
469979.03561401367188
468349.06622123718262
466730.52745628356934
465115.97073554992676
463499.1006965637207
461882.30358695983887
460274.41457939147949
458683.33415031433105
457112.53249931335449
455562.68995094299316
454033.29768753051758
452523.0890007019043
451031.10675430297852
449556.55118942260742
448096.5677433013916
446645.48419570922852
445198.00683403015137
443750.33761787414551
442296.77578735351562
440829.86416244506836
439347.4957103729248
437857.68572044372559
436372.48420906066895
154844.4109992980957
154585.66186904907227
154355.32753562927246
154148.63532066345215
153962.35157775878906
153795.19323348999023
153647.13859558105469
153518.0593318939209
153406.11731147766113
153307.39741516113281
153216.5735034942627
153129.50961112976074
153043.64345169067383
152960.63988304138184
152881.8382453918457
152813.8132266998291
152758.69358062744141
152722.50810813903809
152710.79068756103516
152711.99931144714355
489104.15878486633301
487312.99307441711426
485513.32298469543457
483714.77435111999512
481932.47344589233398
480176.63052368164062
478449.36040115356445
476748.69986915588379
475071.63470077514648
473414.07690811157227
471772.62229156494141
470147.88671684265137
468542.60745811462402
466955.51630020141602
465379.56721305847168
463807.99212074279785
462241.05117988586426
460684.32404136657715
459142.20594787597656
457615.47037315368652
456102.87396621704102
454602.14030456542969
453111.84048461914062
451633.72427940368652
450170.66385459899902
448720.47597885131836
447273.9244499206543
445820.4109992980957
444354.03126335144043
442872.21982574462891
441372.2158145904541
439854.83966064453125
438329.24575042724609
154987.64598655700684
154731.75950622558594
154504.48198509216309
154302.23896598815918
154121.66450119018555
153960.2841682434082
153816.39840698242188
153688.07352447509766
153572.46694374084473
153465.93020820617676
153365.7434196472168
153270.1564884185791
153180.39471626281738
153096.58399391174316
153022.93288040161133
152959.88167953491211
152912.04219436645508
152885.02713966369629
152868.88705825805664
488090.31096839904785
486224.2136173248291
484362.92606544494629
482522.94757270812988
480716.86309051513672
478947.77265357971191
477212.41552543640137
475507.41496467590332
473831.79525756835938
472185.39987564086914
470567.76725006103516
468977.44073677062988
467410.63940620422363
465861.34633636474609
464324.93140411376953
462801.28650665283203
461292.29045295715332
459796.65526008605957
458309.51010131835938
456826.56387519836426
455346.71868324279785
453872.47894668579102
452409.99907112121582
450964.99262237548828
449534.76316833496094
448105.06339836120605
446658.24547958374023
445184.18535804748535
443682.26310539245605
442155.79122734069824
440610.77703285217285
439058.35489654541016
155630.02544593811035
155348.74724197387695
155096.47143745422363
154870.73284721374512
154668.41991806030273
154486.95267868041992
154324.73358726501465
154180.28048133850098
154051.36459922790527
153934.9101676940918
153828.53665161132812
153730.62318992614746
153641.57667350769043
153560.15309524536133
153488.0025577545166
153423.51638221740723
153369.24770164489746
153330.2448616027832
153297.59833908081055
487165.02829742431641
485248.27608871459961
483355.80933952331543
481501.27620506286621
479688.86320877075195
477914.36068153381348
476172.64716529846191
474463.93908500671387
472792.35305213928223
471159.86739540100098
469563.14372444152832
467996.16220474243164
466453.89621162414551
464933.73008155822754
463434.8770923614502
461955.30660247802734
460488.2066650390625
459024.24226951599121
457559.14103317260742
456096.75345802307129
454644.43388557434082
453208.58713531494141
451791.67277336120605
450387.39846611022949
448978.76166725158691
447545.47069931030273
446075.46360778808594
444568.70832633972168
443032.82282829284668
441478.39558792114258
156213.06403541564941
155940.27473640441895
155693.41011810302734
155470.24773788452148
155268.6226921081543
155087.0227222442627
154924.27270889282227
154779.07406997680664
154649.72429847717285
154534.920166015625
154433.30338287353516
154344.39056587219238
154265.53128433227539
154196.12104225158691
154132.93601417541504
154076.54781913757324
154030.90224456787109
153987.07526016235352
486325.0621223449707
484378.36572265625
482474.87419319152832
480620.01918983459473
478808.02479362487793
477029.34865951538086
475281.60537719726562
473571.18292236328125
471904.00666809082031
470279.75538063049316
468694.52083969116211
467143.75802040100098
465623.10990142822266
464129.15671730041504
462657.57861328125
461199.41165924072266
459744.72698593139648
458291.4188117980957
456846.96585083007812
455420.14631843566895
454013.51973533630371
452623.14563751220703
451239.88742065429688
449848.34083938598633
448429.97128677368164
446972.11491012573242
445474.06600379943848
443944.32419395446777
157376.59879684448242
157087.80749130249023
156824.01659965515137
156583.67348098754883
156364.46977043151855
156164.30326652526855
155981.73649215698242
155816.15547943115234
155667.37041664123535
155535.58832550048828
155420.36075973510742
155321.0119514465332
155234.39255714416504
155158.69781875610352
155089.98513412475586
155027.44250869750977
154974.23232269287109
154921.52108955383301
485685.17593002319336
483731.57499885559082
481832.08746910095215
479980.56692504882812
478165.9522819519043
476383.97033500671387
474639.0671558380127
472936.89009094238281
471279.8803539276123
469667.50690841674805
468096.95548439025879
466563.16480445861816
465062.80328750610352
463592.99434089660645
462145.59550857543945
460709.31100654602051
459278.92214202880859
457858.97256660461426
456455.91359519958496
455070.21457862854004
453696.27618598937988
452324.70149803161621
450943.19045066833496
449538.42706871032715
448100.01769828796387
446623.66617202758789
445111.51526069641113
158611.67819595336914
158336.01385498046875
158081.08602142333984
157845.16927528381348
157626.33016014099121
157423.32025909423828
157236.0335865020752
157065.08066558837891
156911.34620094299316
156774.57982063293457
156653.89934539794922
156546.38978958129883
156450.48097991943359
156363.18915367126465
156283.66522789001465
156214.63419723510742
156146.70112228393555
489263.42594528198242
487225.39960861206055
485234.49779319763184
483295.99782752990723
481408.90639495849609
479567.64319038391113
477768.7643871307373
476013.08835220336914
474301.30795669555664
472631.47757148742676
471001.19588279724121
469408.98380661010742
467855.61262321472168
466343.74797058105469
464875.65130233764648
463446.73655891418457
462043.61739730834961
460652.73935127258301
459268.40555381774902
457891.59908866882324
456523.33397483825684
455161.2644100189209
453799.45171165466309
452428.61428451538086
451038.18823432922363
449618.62601661682129
448162.07768440246582
160205.40383911132812
159945.68401908874512
159700.39654159545898
159468.32918548583984
159249.33711624145508
159044.24864768981934
158853.97758293151855
158678.82079124450684
158517.53535652160645
158368.52413177490234
158229.46782493591309
158100.30672073364258
157980.72254753112793
157871.3318920135498
157775.1922721862793
157682.1926326751709
490497.84946823120117
488460.74148750305176
486466.97140884399414
484518.1126537322998
482617.08358955383301
480766.08713912963867
478966.27486801147461
477217.31139183044434
475514.84781265258789
473849.48644638061523
472212.78838348388672
470603.73550224304199
469029.32403945922852
467499.96561813354492
466022.57934951782227
464594.15340614318848
463201.53339385986328
461828.49790000915527
460463.80767440795898
459103.51510047912598
457747.74175643920898
456395.59203910827637
455041.70280075073242
453676.70203018188477
452290.30220413208008
450873.35888862609863
449419.46416282653809
447927.86211776733398
161585.28736686706543
161333.85125732421875
161094.79308319091797
160867.93263626098633
160653.42403030395508
160450.99196243286133
160259.59299850463867
160077.18183708190918
159902.34053421020508
159734.04824256896973
159573.7459716796875
159422.71852684020996
159282.11983871459961
159155.00529479980469
159031.94289016723633
489704.98565673828125
487717.44488334655762
485769.19861602783203
483863.92333221435547
482008.84714889526367
480209.11367607116699
478464.20533180236816
476766.1245002746582
475100.67580032348633
473455.16677474975586
471827.64639854431152
470228.89274978637695
468674.31936264038086
467173.67608642578125
465725.84675025939941
464319.83495712280273
462940.46294021606445
461575.56353759765625
460218.71840476989746
458867.35393524169922
457518.46454048156738
456165.38168334960938
454798.45437049865723
453407.13605117797852
451983.02883720397949
450523.03877639770508
449031.02668952941895
163089.56782531738281
162842.01449012756348
162607.3455867767334
162384.66413879394531
162172.45902061462402
161968.71681594848633
161771.07644844055176
161578.4049186706543
161390.36969757080078
161209.02467918395996
161036.39363479614258
160873.76257705688477
160724.19589233398438
160578.60726928710938
489143.81998443603516
487196.75157165527344
485286.91471099853516
483425.42792892456055
481620.58953094482422
479871.12218284606934
478166.46961212158203
476490.89970207214355
474830.3637866973877
473181.91270637512207
471556.87133026123047
469972.14801406860352
468438.73471450805664
466957.37240028381348
465520.25638961791992
464115.78256034851074
462733.34337997436523
461365.44494438171387
460006.48912620544434
458650.09374237060547
457288.00065422058105
455911.06592178344727
454510.68489456176758
453080.14591598510742
451617.69987487792969
450127.9828052520752
164717.2079963684082
164468.1555118560791
164231.41466522216797
164004.59139823913574
163785.2333984375
163571.18821144104004
163361.64846992492676
163156.44224739074707
162957.53493881225586
162767.0329475402832
162586.36801338195801
162419.03562927246094
162256.64349746704102
488783.29256439208984
486866.16970062255859
484994.56307792663574
483179.51888465881348
481419.40939903259277
479701.99540901184082
478011.15216445922852
476333.62745475769043
474666.38124847412109
473018.91068077087402
471406.26841926574707
469839.3336181640625
468320.70500946044922
466846.42056083679199
465409.30529403686523
464001.31010246276855
462614.16776084899902
461239.61172103881836
459869.07301139831543
458493.82182884216309
457106.40030288696289
455700.92891693115234
454271.93585586547852
452815.87237930297852
451334.15462493896484
166473.99025726318359
166218.74761962890625
165973.58504486083984
165736.21957588195801
165505.07818031311035
165279.52922439575195
165058.94187927246094
164844.43270492553711
164637.74934387207031
164440.69770240783691
164257.6377124786377
164081.00519371032715
488573.92923927307129
486690.80006980895996
484863.4123706817627
483089.94286727905273
481357.07930374145508
479649.06438446044922
477954.9684009552002
476272.87510299682617
474609.93003273010254
472977.11514854431152
471383.29385757446289
469832.30270385742188
468324.0486011505127
466856.22871589660645
465423.4693431854248
464016.65826606750488
462625.12259101867676
461239.16621589660645
459851.21805191040039
458456.52417373657227
457051.58258247375488
455630.70087242126465
454186.54651260375977
452715.41643524169922
488532.43659210205078
486691.6981029510498
484902.89203453063965
483152.48509788513184
481425.73333930969238
479714.64817810058594
478019.13653564453125
476344.01882362365723
474695.87799644470215
473080.61800003051758
471502.97626304626465
469966.40616226196289
468472.29145622253418
467017.14986228942871
465591.36702156066895
464182.52350425720215
462780.99371337890625
461381.77347755432129
459982.42432594299316
458579.37037658691406
457164.45968437194824
455727.05816841125488
454261.41349792480469
486889.39907836914062
485118.58384323120117
483369.84522438049316
481636.7122917175293
479920.32801818847656
478225.4166202545166
476556.76493644714355
474918.97356986999512
473316.98162460327148
471755.45180511474609
470237.3197193145752
468760.29998016357422
467314.86301612854004
465888.24712181091309
464471.71321487426758
463062.30080986022949
461657.77569580078125
460251.4527530670166
458831.43437004089355
457386.4028434753418
455912.93985366821289
481949.10943603515625
480222.67033576965332
478524.78876495361328
476860.87880325317383
475234.81109809875488
473649.47135734558105
472106.76681900024414
470605.48613166809082
469137.83205223083496
467692.23258781433105
466260.47244453430176
464838.99720001220703
463423.0549430847168
462001.95959854125977
460561.6799144744873
459093.26692390441895
457598.42039108276367
477209.17896461486816
475600.32216453552246
474032.1036262512207
472503.88332748413086
471010.73822784423828
469543.60738945007324
468094.15899085998535
466656.2420711517334
465221.2685661315918
463775.34240913391113
462304.52528381347656
460803.81393623352051
459279.86655807495117
477585.01019477844238
475990.60086059570312
474434.09846305847168
472914.10050582885742
471424.16170692443848
469954.78619575500488
468496.1053352355957
467036.2979679107666
465560.61450576782227
464057.06893730163574
462524.21684265136719
460971.32379341125488
660112.48722457885742
658718.81190872192383
657322.23419380187988
655891.04035568237305
654413.36293029785156
652887.61374855041504
651312.50075340270996
649684.48941040039062
647996.74968719482422
646239.24048042297363
644403.17586708068848
642488.61711692810059
640510.15644454956055
638492.20345878601074
636459.55938911437988
634431.4796028137207
632421.6041431427002
630438.78557777404785
628484.70121765136719
626553.75312423706055
663212.62710571289062
661799.0020923614502
660427.88884735107422
659049.30346488952637
657630.48078346252441
656160.41094589233398
654638.03972434997559
653062.2829647064209
651427.54464340209961
649723.92058753967285
647939.4335823059082
646065.68783760070801
644106.16999626159668
642081.12303924560547
640020.90293502807617
637953.27789497375488
635896.78617668151855
633862.72283172607422
631858.72128295898438
629887.2977123260498
627943.87070655822754
626021.87696647644043
667800.61486053466797
666214.10093688964844
664732.80295372009277
663338.47861671447754
661985.36888313293457
660621.01988220214844
659211.12989807128906
657745.1897144317627
656223.15651321411133
654644.03436279296875
653000.61582374572754
651280.26566123962402
649469.1092700958252
647558.91071128845215
645556.26552581787109
643487.1467227935791
641387.73050689697266
639288.44084739685059
637206.85996246337891
635151.93261337280273
633129.94391059875488
631144.07375907897949
629190.59006690979004
627263.46124076843262
625362.42486763000488
623496.06889343261719
670794.1438045501709
669124.07035255432129
667552.52444648742676
666085.00059509277344
664703.97360038757324
663362.81382942199707
662007.11106872558594
660602.14802932739258
659137.32537651062012
657613.10478591918945
656028.76375198364258
654375.97370910644531
652639.89198875427246
650804.91669654846191
648862.74032020568848
646822.46682739257812
644714.67167854309082
642580.42912483215332
640453.17792892456055
638349.92134666442871
636277.22416877746582
634240.13898658752441
632242.39194488525391
630281.08150482177734
628350.28314971923828
626449.18973350524902
624584.78193664550781
622768.5411548614502
673668.8807430267334
671920.50897026062012
670263.4661922454834
668702.71061134338379
667245.36369895935059
665874.56897163391113
664542.50963401794434
663193.16210746765137
661790.60678100585938
660324.79605293273926
658796.93253707885742
657206.63825607299805
655544.52391242980957
653793.68475341796875
651936.96157073974609
649966.1674633026123
647892.56295776367188
645751.05467224121094
643586.99975776672363
641435.87678146362305
639314.28734016418457
637226.96962356567383
635177.88114929199219
633171.05816459655762
631204.09220695495605
629271.2939510345459
627371.23632621765137
625509.01246452331543
623694.82401657104492
621939.76898574829102
676420.20179748535156
674580.54194831848145
672845.39776229858398
671198.07382392883301
669644.62178993225098
668193.53039169311523
666828.90231895446777
665502.19534873962402
664156.0430793762207
662754.20984649658203
661286.48778915405273
659754.53630638122559
658158.10732650756836
656487.49863052368164
654724.52198028564453
652850.58267593383789
650857.34938430786133
648757.67744636535645
646589.3337230682373
644401.08828353881836
642230.66110610961914
640094.40778160095215
637995.49442672729492
635936.9406909942627
633923.01366806030273
631952.01061630249023
630018.15400505065918
628119.17650032043457
626258.57553291320801
624445.43903923034668
622691.48859214782715
621007.18312072753906
677106.63777351379395
675279.75510597229004
673553.97800636291504
671913.16131019592285
670364.63071441650391
668918.23902702331543
667558.22241592407227
666235.35263061523438
664891.28088760375977
663489.1055850982666
662018.78757667541504
660482.57895278930664
658880.51399040222168
657202.40909767150879
655428.8705997467041
653540.30307960510254
651528.61458587646484
649408.32015800476074
647219.78192329406738
645013.84490203857422
642829.16989326477051
640682.17877578735352
638575.12006187438965
636510.25850868225098
634492.01299476623535
632519.0365161895752
630585.19413375854492
628687.45438003540039
626828.41582489013672
625016.39270973205566
623263.81278228759766
621582.4857120513916
619983.91507720947266
786850.25631523132324
783831.5866870880127
780807.2621021270752
777797.13015937805176
774828.68808364868164
771941.63644981384277
677572.03433990478516
675753.27969741821289
674033.4427547454834
672396.43010330200195
670850.32670974731445
669405.78751182556152
668047.45555877685547
666725.80170059204102
665381.80204963684082
663978.28484535217285
662505.50102424621582
660965.74385261535645
659359.23573875427246
657675.84947395324707
655895.48717880249023
653997.61406517028809
651974.24711990356445
649840.8382453918457
647639.02773857116699
645421.01057624816895
643226.78435897827148
641072.69310760498047
638960.23594665527344
636891.28086090087891
634870.51344108581543
632896.53528213500977
630962.88751602172852
629066.00958061218262
627207.84370613098145
625396.24734687805176
623644.13827514648438
621964.61313629150391
620369.38438987731934
618873.77664947509766
790270.25209617614746
787274.79721450805664
784244.27472305297852
781207.87970733642578
778185.09989547729492
775204.43516159057617
772306.20804214477539
677818.6368350982666
676004.02241897583008
674287.0349235534668
672651.59626388549805
671106.69880104064941
669663.35184288024902
668306.09451866149902
666985.18863105773926
665641.15247535705566
664236.51968574523926
662761.9624195098877
661219.84549903869629
659610.45300102233887
657923.70184135437012
656139.18787384033203
654235.88619232177734
652205.91242027282715
650065.39343070983887
647856.85835456848145
645633.07360076904297
643434.1447868347168
641276.54619598388672
639161.67485427856445
637091.04380035400391
635069.33758544921875
633095.15818405151367
631161.91539764404297
629265.62384033203125
627407.93075561523438
625596.77933311462402
623845.1110668182373
622166.88821411132812
620573.64953422546387
619080.33387184143066
617696.50870323181152
153082.50812530517578
153010.61512565612793
152960.18419075012207
152932.06248092651367
152928.30113983154297
152945.92536544799805
152986.84646606445312
153045.28711128234863
153122.7977294921875
153221.47580146789551
153329.21853256225586
489996.0581111907959
488268.08986854553223
486546.08370780944824
484821.79379081726074
483089.29877853393555
481349.44696044921875
479606.70560836791992
477865.55584144592285
476130.32162857055664
474403.03545951843262
472682.84499359130859
470968.46481704711914
469259.31699180603027
467554.65986824035645
465854.20498275756836
464159.1708812713623
462470.05793380737305
460786.39817047119141
459110.73782157897949
457451.55672454833984
455820.12001609802246
454223.34108543395996
452660.32258033752441
451125.14684295654297
449613.63002967834473
448125.94403266906738
446661.90370559692383
445214.873291015625
443773.98402214050293
442333.47482109069824
440896.83221054077148
439471.0729866027832
438060.29600524902344
436664.46060943603516
435280.49962615966797
433902.86178398132324
154778.96890258789062
154486.63628196716309
154225.06734085083008
153994.01551628112793
153791.75139045715332
153615.07163429260254
153459.83702278137207
153322.00785064697266
153198.87663841247559
153089.56721687316895
152995.07676887512207
152917.02245903015137
152857.7703914642334
152817.90228080749512
152799.20158767700195
152799.06573104858398
152819.68546676635742
152856.32909202575684
152910.9189510345459
152985.80126953125
153069.12385940551758
490031.98869514465332
488286.81059837341309
486557.7872314453125
484828.82419204711914
483089.14488792419434
481340.2075366973877
479590.08645248413086
477846.32643890380859
476113.43309783935547
474391.8135814666748
472678.97833633422852
470973.66969871520996
469276.34541130065918
467586.76982879638672
465904.06558418273926
464228.73213768005371
462561.31949996948242
460900.19635581970215
459244.70320129394531
457599.95802879333496
455976.28813743591309
454381.9229621887207
452817.32022666931152
451276.66742515563965
449755.13473320007324
448252.83777046203613
446770.04497337341309
445300.04863166809082
443831.66595077514648
442359.32159805297852
440887.06719779968262
439422.41341590881348
437969.95369911193848
436529.62009620666504
435097.03800392150879
433665.05116653442383
154862.74995613098145
154561.00891494750977
154288.87838935852051
154046.55818939208984
153833.34051322937012
153647.15858840942383
153484.5479621887207
153341.25424194335938
153213.49296951293945
153098.91650199890137
152997.25527572631836
152909.5487174987793
152838.01847076416016
152783.42938423156738
152747.58088684082031
152728.31839752197266
152727.94733810424805
152742.41530418395996
152773.54823303222656
152823.37248420715332
152879.85963249206543
488544.48743629455566
486801.67422294616699
485060.76959419250488
483308.12555503845215
481547.76101493835449
479793.0029182434082
478054.23909187316895
476332.80864715576172
474622.66620063781738
472917.8032283782959
471219.4268627166748
469534.39355087280273
467865.67058944702148
466210.0231876373291
464563.2765941619873
462923.19836616516113
461287.08723068237305
459652.87052726745605
458024.38244247436523
456411.94478225708008
454824.91033554077148
453263.61354446411133
451719.9248104095459
450186.49199295043945
448663.31795883178711
447153.37797355651855
445653.19727897644043
444153.43411445617676
442648.122802734375
441139.59814262390137
439634.11623573303223
438136.0261116027832
436645.2376594543457
435157.06040382385254
154759.1569652557373
154474.69071197509766
154218.0421257019043
153989.91425132751465
153789.82016372680664
153615.37592506408691
153462.43816375732422
153326.30257606506348
153203.11678314208984
153091.15611839294434
152990.67120552062988
152903.78627967834473
152831.92610359191895
152777.52096939086914
152739.29515647888184
152719.76656532287598
152715.29789924621582
152727.07878112792969
152756.19021797180176
152789.5216236114502
488942.36320877075195
487175.58421325683594
485413.88681602478027
483644.92446708679199
481876.21665382385254
480124.11875152587891
478397.53366470336914
476692.08563232421875
474995.69404220581055
473300.68232154846191
471612.86169052124023
469946.41242980957031
468307.76556968688965
466689.73142051696777
465080.78254318237305
463473.64100456237793
461864.79623413085938
460253.96917915344238
458647.28963088989258
457056.35540199279785
455489.19166564941406
453941.92364311218262
452401.61283302307129
450858.76556968688965
449314.99086952209473
447777.70681762695312
446248.88582992553711
444722.08043479919434
443189.32684516906738
441648.35348129272461
440102.99278450012207
438558.29104804992676
437016.17806243896484
435473.60877418518066
155091.88216590881348
154793.18171691894531
154520.83221435546875
154276.86556625366211
154061.92470169067383
153874.11173820495605
153709.03746795654297
153561.24969100952148
153426.03934860229492
153301.04081153869629
153186.19742393493652
153083.50947380065918
152994.51519393920898
152921.72631645202637
152864.53999710083008
152825.97179985046387
152803.5213451385498
152798.4836254119873
152811.48729515075684
152828.24734497070312
487679.43180084228516
485884.02226257324219
484092.87055778503418
482314.82931137084961
480562.80138397216797
478840.71494102478027
477139.96698188781738
475447.16459655761719
473757.22895240783691
472080.54936981201172
470434.97195816040039
468827.65859031677246
467247.27376937866211
465674.99119758605957
464098.20548820495605
462513.72029685974121
460925.66607475280762
459345.29561042785645
457785.49912261962891
456249.06534194946289
454723.58853530883789
453191.00890350341797
451642.3864574432373
450082.96559524536133
448524.90081596374512
446975.21915817260742
445429.37623405456543
443875.8680534362793
442306.96900939941406
440724.88524436950684
439137.92830276489258
437551.99677848815918
155273.17697334289551
154982.95733261108398
154721.71707534790039
154490.80622673034668
154288.22257423400879
154109.06331443786621
153947.36468124389648
153798.24627876281738
153659.48161697387695
153531.34477424621582
153415.91887092590332
153314.5164852142334
153228.7902889251709
153157.5423641204834