/*--------------------------------*- C++ -*----------------------------------*\
  =========                 |
  \\      /  F ield         | OpenFOAM: The Open Source CFD Toolbox
   \\    /   O peration     | Website:  https://openfoam.org
    \\  /    A nd           | Version:  12
     \\/     M anipulation  |
\*---------------------------------------------------------------------------*/
FoamFile
{
    format      ascii;
    class       volScalarField;
    location    "0.0064";
    object      rho;
}
// * * * * * * * * * * * * * * * * * * * * * * * * * * * * * * * * * * * * * //

dimensions      [1 -3 0 0 0 0 0];

internalField   nonuniform List<scalar> 
106891
(
1.1520689440267486425
1.152125845223099132
1.1522225228825548893
1.1523515728893873877
1.1525034991730425116
1.1526632330399571025
1.1528107410840926494
1.152930917613148587
1.1530096737945692009
1.1530411289222552984
1.1530274341625157408
1.1528875367234758809
1.152934745178708198
1.1529969887264603923
1.15301290361868225
1.1529322692061878541
1.1527495418460913523
1.1525142921543207741
1.1523081687863527822
1.1522005006922781956
1.1522097467729111031
1.1522983392839907246
1.1524025934415553785
1.1524766797234839988
1.152515898917186643
1.1525439915361306298
1.152578146114374924
1.1526021281241496386
1.1525746765579523156
1.1524591472456595653
1.1522537566847665946
1.1519971661494652349
1.1517495477637651469
1.1515580068211093145
1.1514397381646044316
1.1513844176049692347
1.1513715143374831928
1.1513858822469025256
1.1514152824597569946
1.1514445788364657819
1.1514579346122626458
1.1514456916543238663
1.1514155870213240718
1.1513902691123298894
1.1513949402822867274
1.1514352009013981704
1.1514837270584206141
1.1514980191617563143
1.1514531738719708809
1.1522826734197948451
1.1522753084454961936
1.1522490931165301209
1.1522071288683917167
1.1521541309735268133
1.1520965149945652239
1.1520440417466311089
1.1520076458410430931
1.1519980662734643495
1.152023606385937704
1.1520883101387793257
1.1521946996900191973
1.1523342012357637998
1.1524953260004602296
1.1526612734593031373
1.1528123802129937037
1.1529356103377517151
1.1530150514871857492
1.153044597289487383
1.1530257542643800317
1.1529242838328372933
1.1530004304538770121
1.153016552566910935
1.1529285260523198797
1.1527386681608435826
1.1525036228581444497
1.1523100742076597403
1.1522272621980538254
1.1522670953191380683
1.1523794333174324223
1.1524900371822774936
1.1525517954706856472
1.1525675660236194275
1.1525727991215048984
1.1525952060224988749
1.1526252884103995733
1.1526206544498620588
1.1525378523966336441
1.1523657589320708272
1.1521332320239305869
1.1518944425975858881
1.1516993662286418854
1.1515716394827748559
1.1515113333536552975
1.1515041242985077918
1.1515367913129217481
1.1515928057126407769
1.1516498272412918347
1.1516830893643663636
1.1516745243635282403
1.1516267718189496794
1.1515649351635186548
1.1515225526489110131
1.1515176318098303554
1.1515362933812913759
1.1515414609376026789
1.1523522861009825036
1.1523345912878659725
1.1522965395169617597
1.1522414166311996109
1.1521749112634291912
1.1521047733357248077
1.1520416407623728094
1.1519970326193929022
1.1519827071179664646
1.152007395165862258
1.1520732867161578294
1.1521805058694698509
1.1523191413713034237
1.152478169222554083
1.1526402128494037669
1.1527844937711351214
1.1528993345083551336
1.1529690430620633812
1.1529896550896405749
1.1529626379721793494
1.1530357238591442126
1.1530875797878366029
1.1530575953407591339
1.1529239793320666951
1.1527064501314541189
1.1524662899982343056
1.1522842385146532251
1.1522209635679641071
1.1522814384493267337
1.1524119266991519339
1.1525376043212376409
1.1526100588071712671
1.1526302781944011144
1.1526327959300664006
1.1526488880755314526
1.1526786685015772971
1.1526896387968699198
1.1526412610003939907
1.1525141350832723841
1.1523233401071233395
1.1521091379861865267
1.1519190196225368439
1.1517846383174070723
1.151718891961205582
1.151717091285984651
1.1517664177267437076
1.151847017436973708
1.1519271333470932905
1.1519695032872070417
1.1519478408844547879
1.1518620572363358345
1.1517419065657881205
1.1516317808209608486
1.1515671702668892618
1.1515535159841410184
1.1515642352730162123
1.1524201870875288023
1.1523780483795642571
1.1523184285599197274
1.1522464990949812247
1.1521694902872168242
1.1520978965300026076
1.1520434687954757003
1.1520187570637701047
1.1520338421819249497
1.1520914192057365444
1.1521903259222698868
1.1523181140797569277
1.152462716871669679
1.1526075698754334464
1.1527336376727312928
1.1528313829374561283
1.1528850154265792849
1.1528922087446678013
1.1528538149620635167
1.1531438044476376437
1.1530732900831497378
1.1529204598764966061
1.1527182269145654914
1.152522214394119171
1.1523907267661250842
1.1523601604828519474
1.152425074503919955
1.1525396261266385167
1.1526437351560454569
1.1526977205218775779
1.1527023253936039549
1.1526874076966389104
1.1526851979619670008
1.1527075116325202764
1.1527375307740270749
1.1527404650276287246
1.1526859540122083025
1.1525672245203100186
1.1524036433813300562
1.1522340135602022748
1.1520991467250609741
1.1520256532193906551
1.1520204037708223765
1.1520730587835845693
1.1521605757751307575
1.1522440623018290751
1.1522778974306799871
1.1522314544322920238
1.1521043852594103907
1.151930988217566787
1.1517658775770560631
1.1516594111009437196
1.151636697492259831
1.1525499588725243161
1.1525302750990766842
1.1524929157526431212
1.152437426620421812
1.1523674867377877717
1.1522898455097030368
1.1522145765262943318
1.1521527514378420154
1.1521161446994041544
1.1521148203434876667
1.152152785220501352
1.15223071055717452
1.1523370852991923208
1.1524597140364103431
1.1525811448870437737
1.152682655396398026
1.1527565479600911935
1.1527887050792002821
1.1527800305125515123
1.1527304753855911468
1.1533140416695961683
1.1531961034367081975
1.1530139616923582579
1.1528173303982551801
1.1526537714331159812
1.152555739533624557
1.1525329969409148223
1.1525722678755379036
1.1526414171465513281
1.152704508802027572
1.1527358505298153091
1.1527323486050784496
1.1527145408065544441
1.1527123517078241566
1.1527448892458083129
1.1528093163748833749
1.1528775119655840786
1.1529080491676295672
1.1528714935818478171
1.1527670042580979715
1.1526240483077097032
1.1524895151110303715
1.1524031941367864906
1.1523822438881661245
1.152419719503166684
1.1524888083239099856
1.1525495347737677587
1.1525573132935906795
1.1524808609093986078
1.1523192340265790978
1.1521066834883402219
1.1519036173086598662
1.1517730294375032596
1.1526695553601549182
1.152641345751456825
1.152597024448480667
1.1525363961589265571
1.1524636676379216293
1.1523879562701335733
1.1523200986411283875
1.1522715645220649172
1.1522519776351018983
1.1522655465012670017
1.1523143345884931943
1.1523895125447956023
1.1524818175070732362
1.1525753993545222453
1.152652056655330659
1.1527033030058466689
1.1527143803147510415
1.1526888118591971377
1.1526269289869541801
1.1533183690952584222
1.1531127183131519853
1.1529253751892249991
1.1528008698142491184
1.1527540472198498644
1.1527700676114345235
1.1528203317674412531
1.1528750440011694689
1.1529108650955528503
1.1529153574273500737
1.1528877840641753583
1.1528447032834716612
1.1528181550661562582
1.1528389075514247075
1.152915576751169402
1.1530238873754088402
1.1531155363256622159
1.1531449951000476428
1.1530959548588022301
1.1529898150915369737
1.1528727514413492639
1.1527870126688177788
1.1527527531193668686
1.1527630971606270815
1.1527921172317951992
1.1528077571258605882
1.1527768134226437091
1.1526744888317008719
1.1524992029692291418
1.1522821765047146503
1.152084326468408193
1.1519690595448164316
1.1528489359494591415
1.1528296287348966942
1.1527971552450770876
1.1527486428645152827
1.1526851007408880356
1.1526127803687331586
1.1525408846030265053
1.1524806995704459656
1.1524428821856460559
1.1524332203299865185
1.1524552110848815811
1.1525018101494715062
1.1525652323856836468
1.152630771824762812
1.1526818387840418456
1.1527101468367735304
1.1527011174252521641
1.1526600229495596039
1.1525865128973142859
1.1532904909913224145
1.1530881225166624837
1.1529564819453252955
1.1529137062569412286
1.1529426928917090311
1.1530044411138071769
1.1530631947258966896
1.1530947211158315557
1.1530914855218217241
1.1530626565265487127
1.1530279817699107259
1.1530149507193241387
1.1530504850246436899
1.1531414604033389804
1.1532638286046530407
1.1533696923351621777
1.1534149120589534121
1.153383185522693033
1.153292366794614221
1.1531816525201359358
1.1530887286250570689
1.1530316339585355845
1.1530010527188221392
1.152974673896699942
1.1529327069909278691
1.152858707186312115
1.1527455231915508804
1.1525975034731499314
1.1524361199896187014
1.1523006813596001763
1.1530432504692358364
1.1530191088368142438
1.1529806840069849461
1.1529268661607516844
1.1528616137405076625
1.1527923682447986931
1.1527293590168472548
1.1526831627696805249
1.1526604181297384066
1.1526655287348011036
1.1526929477490843734
1.1527355636042340148
1.1527791682615009528
1.1528088311765505303
1.1528168089381298778
1.1527905246518763693
1.1527377216555525496
1.1526573571705454047
1.1533217427764725915
1.1531773033851229204
1.1531143494259779025
1.1531315307872864739
1.1531929436619892115
1.1532512359516695621
1.1532790313607992339
1.1532777785932541992
1.1532659879465085861
1.1532666183370701152
1.1532942102463545897
1.1533587527931055128
1.1534540716843821873
1.1535558757651949158
1.1536293292125860965
1.1536428373489131527
1.1535872661629109626
1.1534834046567452592
1.1533660369521814282
1.1532615718006764549
1.1531756105412944713
1.1530973845827605651
1.1530155271695252672
1.1529296702273166275
1.1528485724305825855
1.1527741568507676728
1.1527066973083124335
1.1526513960487272392
1.153255301006566258
1.1532273328987499017
1.1531902089782963827
1.1531433661425167791
1.1530895200247475163
1.1530336776223930606
1.1529829987055235652
1.1529451639169203681
1.1529249194483450758
1.1529256382583861207
1.1529428860645161148
1.1529713576116589202
1.1529993396806648143
1.1530153714126882836
1.1530131548992685886
1.1529825684317909218
1.1529323233324484388
1.1528591043536031702
1.153295486571110251
1.1531997553860768857
1.1531942433605557596
1.1532562700752373441
1.1533417716204490411
1.1534265147172113597
1.1535079185932601842
1.1535899046920645716
1.153678209565053514
1.1537623833765802139
1.1538318085656149581
1.153879602707966967
1.1538913416518672417
1.1538630232614446314
1.1537856360196303562
1.1536599592781131562
1.1535069577548433539
1.153355922992209015
1.153220750660048477
1.1531039809392655826
1.1530043586350644524
1.1529186777327351532
1.1528519968808603746
1.1528149721855014409
1.1528147400155808189
1.1528478778077617672
1.1528994461023480689
1.1534243808432791401
1.1533804462682415437
1.1533365932576140622
1.1532957432930679431
1.1532601764379650788
1.1532320983941559689
1.1532135849698006425
1.1532051175911457452
1.1532077685670647504
1.1532187100598141338
1.1532361209830983562
1.1532534703980847901
1.1532648900504296474
1.1532657118123084139
1.1532470537742069983
1.1532154489258175101
1.1531628807120974933
1.1536558599576371975
1.1534752687991207676
1.1533412350017475667
1.1532706160106278581
1.1532614475995917047
1.1533102339211129816
1.1534115140372980246
1.153555926001084142
1.1537251173398310744
1.1538840111203156891
1.1540044385043117803
1.1540634009399406423
1.1540572687820107589
1.1539992027994729895
1.1538886153070866403
1.1537317307544474598
1.1535494985683807379
1.1533661544112177033
1.1532025614791567847
1.1530691102827916872
1.1529689764530388629
1.1529002481367283117
1.1528664033385775944
1.1528730186720190787
1.1529175527169219784
1.1529929092681892033
1.1530870721389092637
1.1535749085688211668
1.1535362287233057454
1.1535080438220526311
1.1534907571057859688
1.1534828218170738445
1.153482066314441834
1.1534855960093819416
1.1534924350078397115
1.1535011597302733399
1.1535128545863446714
1.1535256351916516326
1.1535387028659707109
1.1535488074272568504
1.1535481675885554953
1.153539404809042157
1.1535100101518829252
1.1536634673055352618
1.15352521317754797
1.1534120021959941571
1.1533192852880278512
1.1532554143794500057
1.1532442523254013977
1.1533064211399832732
1.1534389325613469968
1.1536100444799082254
1.1537726659584661704
1.1538863253738860237
1.1539397899199956843
1.1539414819759117314
1.1538972489472067995
1.1538021721790960861
1.1536587721679256724
1.1534776274224789461
1.1532828303657509661
1.1531005832045297943
1.1529573032184003978
1.1528653907350316921
1.1528279839641080162
1.1528465879975926534
1.1529103409002861014
1.1530041499349408252
1.1531118764444621139
1.1532089262657279072
1.1532773367175879198
1.1536992341418852437
1.153677716681632992
1.1536671135062444016
1.1536647468215948109
1.1536673782726862836
1.1536718130106471403
1.1536771470046471855
1.153683543725955607
1.1536935647716430875
1.1537074496131292101
1.153726504817835119
1.1537474080410041744
1.1537631469566880238
1.1537732470747739111
1.1537642574923832051
1.1535632612886104198
1.1534877773766119002
1.1533926522452655483
1.153286207991234491
1.1532080633033232608
1.1531975893276233958
1.1532636567785505832
1.1533765729954335022
1.1534890690971832949
1.1535719033193632121
1.1536200210641931463
1.1536395193189534769
1.1536302719116757753
1.1535844364030114484
1.1534904088560296032
1.1533489543927539778
1.1531786284534983889
1.1530111792246693359
1.1528827488677120261
1.152816074061212781
1.1528206074428946071
1.1528893458304938502
1.1530019666113120458
1.1531317753726468833
1.1532439032402810319
1.1533084992202626839
1.1533191752824880627
1.1538065066144487236
1.1537956269089020278
1.1537900989956533238
1.1537873938399758611
1.1537855154703935412
1.1537846435958207802
1.153786477319268533
1.153794286410711134
1.1538090659972559671
1.1538326680304218375
1.1538611884610365799
1.1538883625768814323
1.1539118047001735157
1.1539191683300045188
1.1534351490433794041
1.1533475140751823229
1.1532234765308948532
1.1531035650419172445
1.1530332586215228385
1.1530301683533181745
1.1530752865662785567
1.153134457889234632
1.1531882669449440293
1.1532367121304625268
1.1532811429036813333
1.1533201212676258418
1.1533365549942156125
1.1533061768660659574
1.1532189139739328354
1.1530862203432563629
1.1529416453369074613
1.1528271629939588205
1.1527770730616648809
1.1528057805148341775
1.1529026813053104839
1.1530386994494217223
1.1531721391832268075
1.1532587703816457037
1.1532737206151935094
1.1532233081193026258
1.1538963654393068481
1.1538821992333756494
1.1538694232166144538
1.1538577370013316514
1.1538482720560028216
1.1538437060847597238
1.1538474844005122133
1.1538608725660517429
1.1538857193262817002
1.1539176789597382911
1.1539516477508977577
1.1539840815610784563
1.1540047514332554268
1.1532910614798186355
1.153159949459377831
1.1530049256334866659
1.1528705752525336692
1.1527826196792232416
1.1527401190641748396
1.1527296263524140496
1.1527446869225306258
1.1527879497781514662
1.1528629779565482405
1.1529575077568143815
1.1530458721297696112
1.1530923130120269704
1.1530740803668111383
1.1529935793783847586
1.1528813965742166214
1.152785356062677069
1.1527484720225156245
1.1527900729706324068
1.152900005535608452
1.1530416052883289968
1.1531646034278311141
1.1532246397946697147
1.1532015687680123861
1.153108755895028148
1.1539462629420200734
1.1539212736491828437
1.1538981110826773691
1.1538787532455481166
1.1538662618128934234
1.1538635997196526883
1.1538718581231754978
1.1538929248190290533
1.1539227585261977449
1.1539579865494871136
1.1539946240277847433
1.154025165010519105
1.1530318439642399664
1.1528858681113562934
1.1527368654784526658
1.1526091090137697837
1.1525113801615189946
1.1524454955089673547
1.1524171117205381787
1.1524358838167567676
1.152509145953344305
1.1526275112659269961
1.1527589596342320277
1.1528646896731817861
1.1529092381820236213
1.152883856047412392
1.1528127910226915187
1.1527412312423457319
1.1527145018648938812
1.1527579503830649443
1.1528634324419289037
1.1529914437340660349
1.1530895257482431937
1.1531153588928351184
1.1530577053291710676
1.1529418684442724885
1.1527761030717202928
1.1526362763002788725
1.152498839650525575
1.1523723480793830465
1.1522635529685461009
1.1521860095816767178
1.1521587986416264027
1.1521988623869170443
1.1523063574383394236
1.1524554728847975493
1.1525982662228075881
1.1526950218252276503
1.1527290969962553646
1.1527129315622319794
1.1526828224033867087
1.1526814646337375514
1.1527349056090068213
1.1528361910747384478
1.1529467168436413615
1.153016023433459214
1.1530092423742603902
1.1529260297109371614
1.1527992522678240928
1.1524366446788556484
1.1523186847101005714
1.1521988643499712079
1.1520875533118308809
1.1520114004894668192
1.1520012422153773635
1.1520695651885561883
1.1521993957896468075
1.1523502908365250708
1.1524734273232479786
1.1525465718452316821
1.1525750458045416202
1.1525856777776990469
1.1526130286284197446
1.1526779947903920132
1.1527732984829182072
1.1528648015058622356
1.1529098814734477507
1.1528838471612390393
1.1527934186834338792
1.1526741523961201441
1.1519330885083960414
1.1518852597826321205
1.1519147782264385071
1.1520140363323225774
1.1521493903663739822
1.1522805186109903453
1.1523754174395670624
1.1524332772061505192
1.152478125067144088
1.1525355804350381206
1.1526180498891203108
1.1527148645506017921
1.1527962232696069567
1.1528294376742036498
1.15279785592372086
1.1527127403909205317
1.1526098894600749212
1.1519659359048379788
1.1520697304460301158
1.1521618976965066761
1.1522400936302352736
1.1523156036412740555
1.152405417850259628
1.1525145156731326779
1.1526263196496755459
1.152711597430598367
1.1527437394091450962
1.1527143451730381685
1.1526399522635102368
1.1525560862679609109
1.15189015854298904
1.1519639809058155322
1.152045757575148377
1.1521447441760666042
1.152269105960666673
1.1524129528821593915
1.1525531499887111675
1.1526575495284760997
1.1527016469383541963
1.1526824991048285618
1.152621810533446256
1.1525545285113953931
1.1435155449024387853
1.1430563137529607953
1.14290052228181227
1.1430634904874301672
1.1435449331490068481
1.1443315444937545156
1.1453550328211761222
1.1464623523844759134
1.1474309760025340754
1.1480229084253230631
1.1480691948043879602
1.1475350268437529699
1.1465449196549493127
1.1453580002125018922
1.1442888377612414619
1.1436077897678467163
1.1434562776974890319
1.1438202527155711952
1.1445527082060567015
1.1454437991247652384
1.1443840576822323918
1.1435671691520350457
1.1430017333302815441
1.1427061140629242164
1.1426724185147141277
1.1429133795517538719
1.14346973816747699
1.144357852079408211
1.1455058526267738461
1.1467237503749005967
1.1477334710135493889
1.1482643633817650741
1.1481582495683426703
1.1474376714250003051
1.1463086638694328645
1.1450880218989272219
1.144095368264211432
1.1435522643564985934
1.1435360642971854617
1.1439905908136160928
1.1447636408476631331
1.1456680586869054661
1.1468539244635818086
1.1457077569649687376
1.1446093066186118214
1.1436982046109041011
1.1430554021654319996
1.1426865936738843654
1.1425503740562974464
1.1426406828370299085
1.1430090674529960193
1.1437224300735344684
1.144781366251423016
1.1460518381016167044
1.1472736571271735517
1.1481424255947898505
1.1484238049591821706
1.1480477994114159923
1.1471333720032796943
1.1459413333619845599
1.1447841719251965475
1.1439273244207377456
1.1435329722138047881
1.1436455023104012962
1.1441970307756594849
1.145037171458952896
1.1459631476319165344
1.1467613206546380944
1.1473144219808784072
1.1463556566099559753
1.1453042735483787151
1.1442856451151153241
1.1434513466953466487
1.1429049488825069325
1.1426591372245533673
1.1426570539397573611
1.1428562056114928147
1.1432691465010793586
1.1439370315664918465
1.1448555349903075662
1.1459038416617410849
1.1468577824984067526
1.1474680570412869596
1.1475668841808521758
1.1471382493827690929
1.1463147054259141822
1.1453209336386529493
1.1444003295727491754
1.1437488899478385207
1.1434862076919742879
1.1436505751306684786
1.1441939058696888321
1.1449853790329724834
1.1458360744731894698
1.1465381935219189913
1.1469487054951694738
1.1456202355308051644
1.1451249742222959771
1.1446170893400153812
1.1440705733275922107
1.143571045122565355
1.1432703789805613859
1.1432899913334360065
1.1436153253022365295
1.1441050664444218921
1.1445813260844710513
1.1449317568947285917
1.1451380928185115327
1.1452366582057016409
1.1452500023168514787
1.1451681081802880247
1.1449772346356779096
1.1447038168610046416
1.1444265311794012963
1.1442398670673166183
1.1442058452424661574
1.1443304517097729889
1.1445724675173840623
1.1448801863128539313
1.1452228943425248886
1.1455912989848460182
1.1459639362251461403
1.1462890686572995147
1.1464913739395106163
1.1465218104474401706
1.1464105532820272337
1.1462794625723415898
1.1460405785546610158
1.1458374935438317976
1.1455877979883799522
1.1452546328158605959
1.1449006048469290153
1.1446477593874171408
1.1445842684682203672
1.1446786859750857079
1.1448073272202572426
1.1448509651568228307
1.1448002203335669869
1.1447522417219553326
1.1448259055988212474
1.145061660682153315
1.1453963951243546493
1.1457162355568666356
1.1459378037470195899
1.1460495172532823016
1.1460909486497938836
1.1461083046324893608
1.1461267612212484579
1.1461581097042574662
1.1462267746940095758
1.1463805806865190462
1.1466713549165254982
1.1471010893074737869
1.1475937207205726409
1.1480251189990908767
1.148292072685143772
1.1483917153788534282
1.1484163497704609203
1.1479541519367206792
1.1478917918096276374
1.1478607917491210344
1.1477344026492504181
1.1474482973721771284
1.1470665582059043075
1.1467381334173578633
1.1465884881587706801
1.1466180474926626065
1.1467131400323147261
1.1467506888499408024
1.1467152680824301836
1.1467054866288404202
1.1468376795178214511
1.1471440898098987926
1.1475436119997095563
1.1479062557571446668
1.1481461812230824293
1.1482603957559815999
1.1483004895523536426
1.1483180504201200289
1.148331947468312686
1.1483438160361874036
1.1483727224076993867
1.1484704740067221973
1.1486973230526154044
1.1490622362296436521
1.1494820183680249936
1.149818618049541108
1.149960306826937062
1.1499043383137330654
1.1497610630589085723
1.1496579473054620024
1.1461395904963707082
1.1465107772753240223
1.1471414959440902059
1.147701896776031516
1.1480117055766585477
1.1481376532267986157
1.1491860325687663913
1.149056407126979984
1.1489621878532489951
1.1487714027727262689
1.1484128427084505653
1.1479553561469271195
1.1475613156927222391
1.1473548987612314232
1.1473412930281510214
1.1473962690886034821
1.1473879573422207656
1.147298368797075474
1.1472347156882478636
1.1473198178139663028
1.1475866404026160428
1.1479452336826365677
1.1482565908114596986
1.148434602010659944
1.1484816228336844901
1.1484552561248306812
1.1484086903199810514
1.1483561031442559575
1.1482927498339963179
1.1482391106448663898
1.1482566399183580241
1.1484147151930497177
1.1487268817463658355
1.1491058676469911859
1.1493981315766022
1.1494838678192547121
1.1493587238319886712
1.1491435249863857226
1.1489799473811661557
1.1489309215134750897
1.1485423925947928492
1.1485130916980057503
1.1488909490438121708
1.1495297008277429729
1.150084261274796793
1.1503762718231140827
1.1504843240366908752
1.1496910473604553538
1.1495242745449147925
1.14939913898836088
1.1491768943514044654
1.1487824933922139437
1.1482838775401735809
1.1478538517360785676
1.1476195853240827027
1.1475853678454597251
1.1476222662381869721
1.1475923869573321223
1.1474755641737277578
1.1473839189545251838
1.1474458532409768097
1.147696089198922742
1.1480406941718424019
1.1483353291783977568
1.1484926469170158025
1.1485172065706787947
1.1484698906452683875
1.1484053510041438706
1.148336864171305427
1.1482553373436212851
1.1481818991634156202
1.1481836170954087262
1.1483310683094787308
1.1486400423302947083
1.1490213658995021007
1.1493127762431660788
1.1493912235626702056
1.1492546185429488581
1.1490245472454538866
1.1488520164964175496
1.1487991457016961672
1.1488175819944441702
1.1518873633575883453
1.1518858435114862626
1.1519076532494605392
1.1519498121112281552
1.1520082991469078326
1.152075702676228719
1.1521404467536306981
1.1521957451959456975
1.152233985662722171
1.1522529390726137244
1.1522539455249027895
1.1533346437810472196
1.1532934606138223188
1.1532266157816024599
1.1531411961940585265
1.1530305672344791645
1.1528898175615038824
1.1527289315425686134
1.1525767807155324896
1.1524604088520744583
1.152381966785354539
1.1523192664332271296
1.1522380427116618584
1.1521231200704129538
1.1519976622677277067
1.1519137664676011301
1.1519116902142232384
1.151995606574176545
1.152123340197412027
1.152230292225973729
1.1522598004572701669
1.1521869107823541345
1.1520252665873322862
1.1518161330915956952
1.1516152582547003469
1.1514730231492915635
1.1514227099532221565
1.1514691028608186052
1.151585102714618003
1.1517251881603456365
1.1518410534771925668
1.1519004258577507649
1.1518948676533575792
1.1518355574893945903
1.1517467577121824895
1.1516541900745864702
1.1515736784008421267
1.1518654515302251262
1.1519033178181161681
1.1519455630652712941
1.1519812138586189576
1.1520013177147017114
1.1520009070380061722
1.1519791614545715763
1.1519399306198372379
1.1518901201928866129
1.1518397057176568143
1.1518000628772484539
1.1517802309504012737
1.1517885402563476926
1.1518241441567194094
1.1518835894224508376
1.1519591699409916785
1.1520387885951577367
1.1521157074485399718
1.1521793413221901314
1.1522272783523783701
1.1522589068315804983
1.1535446812367500247
1.1533764241134671913
1.1532103332661423067
1.1530676930465286745
1.1529367507814209937
1.1527986127643954362
1.1526503438627626608
1.1525159226817631719
1.1524269602855092831
1.152392578750496499
1.1523870786010894651
1.152376412284922047
1.1523303450539881254
1.1522465245523194621
1.152160697745676865
1.1521135036039154009
1.1521246328242868984
1.1521777708337794799
1.152232538434047493
1.1522433889497860626
1.1521836124503399557
1.1520521647848522839
1.1518749512767323395
1.1516991055432066471
1.1515744622750498927
1.1515387252550852715
1.1516002202519881603
1.1517298707115926071
1.1518772833586659043
1.1519921713815461928
1.152041849646784577
1.1520243909943561622
1.151960821887750841
1.1518796521742449279
1.1518053798563097079
1.1517484124889123542
1.1518810036335183078
1.1519260790460181809
1.1519737283284694485
1.1520144760692647701
1.1520384622683947917
1.1520385418901770702
1.1520123469514840231
1.1519637198053840343
1.1519003749929017655
1.1518330605401045919
1.151773471398288784
1.151730806292579512
1.1517151246284369481
1.1517290190877063072
1.1517739122566634791
1.1518453533165229352
1.151932385103763723
1.1520287658582579748
1.1521200541863130251
1.1522011620324184022
1.1522677024302183657
1.1533912495692979494
1.1531620693400559396
1.1529919651210920328
1.1528664455158184055
1.1527511891883430728
1.152632996671447696
1.1525227822513564035
1.1524546056937681193
1.1524506276401322857
1.1524985553121782633
1.1525509088134762159
1.1525663938225776395
1.1525230754195714411
1.1524340533193235814
1.1523378197833815673
1.1522702543259217833
1.152246175665178507
1.1522525641210223935
1.1522589249307080284
1.1522293277843103088
1.1521420266120667719
1.1520051497354673042
1.151855430749574305
1.1517443286349888787
1.1517127752109568295
1.1517711870292244303
1.1518949352435208233
1.1520334916454095797
1.1521352992515305758
1.1521728722651112253
1.1521483096697533455
1.1520858767028261394
1.1520157008339986238
1.1519628165000965758
1.1519961658077173539
1.1520467073290776572
1.1520889531370934744
1.1521148447560967121
1.1521174607203439333
1.1520923911648781601
1.1520404868965725687
1.151967098049221816
1.1518822874971634818
1.1517987819668209504
1.1517281048491017081
1.1516832923219151308
1.151669610726009374
1.1516920557961305427
1.1517496713038133382
1.1518343638867076795
1.1519423080587876118
1.1520573766460158183
1.1521721038393200054
1.1522763855170690128
1.1533540097696766136
1.1531090772539889233
1.1529431035232984293
1.1528397971463406613
1.1527619336139869333
1.1526772364106989688
1.1525900923703997769
1.1525325301595017446
1.1525381720519671802
1.1526108777137014094
1.1527132623292966063
1.1527858131093366989
1.1527893009186325202
1.152717143968838176
1.1525959519382527052
1.1524715885270315763
1.1523836531075011269
1.1523468054073751077
1.152342829855272921
1.1523318749209254808
1.1522788733834499197
1.1521758942921385138
1.1520505216952996452
1.151951864637871692
1.1519192292405626699
1.1519665170845829749
1.1520715693269649726
1.1521875165772894611
1.1522719397049532297
1.1523026796440196673
1.1522805317146771475
1.1522272292883266598
1.1521732212118085403
1.1521422594655006399
1.1521200872536421222
1.1521694952209282636
1.1522107609031975173
1.152236134237965004
1.1522391553914221873
1.1522148392680044982
1.1521620438827826494
1.1520834104986206192
1.1519867115642659083
1.1518835026453999593
1.151785938352715144
1.1517097358565437926
1.1516640731966483191
1.1516585638621354981
1.1516958065505455977
1.1517702995324550219
1.1518800967404854152
1.1520083091060957514
1.1521467631647306362
1.1522807548475142436
1.1530764827668622541
1.1529441893957630416
1.152872261789282371
1.1528244384064432193
1.1527713863732573785
1.1527102123832140279
1.1526649620990812029
1.1526725383765739075
1.1527482797957924188
1.1528712551617827931
1.1529884532849372647
1.1530442264738918201
1.1530067741230167755
1.1528874567377873639
1.1527340382749413639
1.1526019181309454797
1.1525242358544347532
1.1524937968257871201
1.1524802015308139858
1.1524460523000479295
1.1523736058851345998
1.1522771883056408537
1.1521924544494905884
1.1521541232462744198
1.1521744340404054263
1.152238931485934037
1.1523152599371933036
1.1523738613744769488
1.1523990682065976543
1.1523890732701520534
1.1523588415495502613
1.1523321077345498598
1.1523461807574295612
1.1523811812936259891
1.1524021037426006586
1.1524025411376992434
1.1523771113552541134
1.1523233291954937396
1.152241782614454646
1.1521383997090730578
1.1520236019333263133
1.1519091789096398415
1.1518111176408558638
1.1517400026643598299
1.1517083534617902352