/*--------------------------------*- C++ -*----------------------------------*\
  =========                 |
  \\      /  F ield         | OpenFOAM: The Open Source CFD Toolbox
   \\    /   O peration     | Website:  https://openfoam.org
    \\  /    A nd           | Version:  12
     \\/     M anipulation  |
\*---------------------------------------------------------------------------*/
FoamFile
{
    format      ascii;
    class       volScalarField;
    location    "0.0064";
    object      rho_0;
}
// * * * * * * * * * * * * * * * * * * * * * * * * * * * * * * * * * * * * * //

dimensions      [1 -3 0 0 0 0 0];

internalField   nonuniform List<scalar> 
106891
(
1.1520710005507872609
1.1521300547488555477
1.1522287719984105614
1.1523593581407167719
1.1525119452742931259
1.1526712788443671531
1.1528173934407062173
1.1529353629610792353
1.153011391270147179
1.1530400189402987277
1.1530237900000699369
1.1528892956944363224
1.1529379784597060254
1.1529996267524011966
1.1530125560987325439
1.1529277366750037004
1.1527417139547315728
1.1525059046919932104
1.1523023766757316544
1.1521991557589039701
1.1522124230306600712
1.1523028897275182647
1.152406707225932081
1.1524792879425727055
1.1525174813212017977
1.1525454604189171448
1.1525796181665586282
1.1526024680332160877
1.1525723095056910061
1.1524532753809726415
1.1522450729954742954
1.1519876077417641191
1.1517411688599343833
1.1515519327410526085
1.1514359932534581343
1.1513822820124857138
1.151370315573585934
1.1513852051920530073
1.1514146872303823166
1.1514435048399751516
1.151455847864124582
1.1514425024693082378
1.151411770139466384
1.151386643520099895
1.1513920580436809438
1.1514325570453749492
1.1514799203722276832
1.1514918552161961252
1.1514446670978208953
1.1522838389116767388
1.1522751628838294735
1.1522477841678735455
1.1522049258574091901
1.1521514259304781458
1.1520937738520817817
1.1520417762063586142
1.1520064206901206028
1.151998464183483728
1.152026058863377278
1.1520929329062001845
1.1522012660243590165
1.1523421783818992292
1.1525039004896828754
1.1526693785062727127
1.1528189366807619631
1.1529397659830429301
1.1530162950436466662
1.153042830673551844
1.1530212592217041756
1.1529280472399405788
1.1530027229312278525
1.1530151932177212792
1.1529227123416010414
1.1527297435619332511
1.1524947419699060891
1.152304651038668748
1.1522271066088272118
1.1522714036688659345
1.1523855205310702399
1.1524952122339373606
1.1525549955183755912
1.152569487445045171
1.1525746744772531471
1.1525974179722162649
1.1526267744080207489
1.1526197016992074662
1.1525333778312987221
1.1523581807398437515
1.1521241895084066709
1.1518860011925422526
1.1516928475463215076
1.1515674199915246767
1.1515090452381491204
1.1515032517779639765
1.1515368696379806313
1.1515931285061560274
1.1516495251989853355
1.1516812809553269581
1.1516707687069647204
1.1516214687383929949
1.1515591262378597204
1.1515172153551265222
1.1515128520836417358
1.1515311018706746449
1.151534694894597699
1.1523537073969649658
1.152334622128808217
1.1522953469697947426
1.15223930142469011
1.1521722898873576479
1.1521021590130267054
1.1520395911504124342
1.1519960932717407953
1.1519833779957961983
1.1520100546782170436
1.1520780510644468286
1.1521870964599625342
1.1523269072154840309
1.1524862469402938903
1.1526476333737214475
1.1527903152774916506
1.1529027723152733831
1.1529695966504784899
1.152987213772330044
1.1529574430281093189
1.1530391028490027949
1.1530884974146249355
1.1530546794836700197
1.1529171439650041098
1.1526973797509891817
1.1524579614822176854
1.1522796834833135549
1.1522216819666584176
1.1522864831218675441
1.1524186476534039603
1.1525433644333973326
1.1526138120199524995
1.1526326489734819436
1.1526350597842884849
1.1526516312565875388
1.1526812000959936189
1.1526904666336514893
1.1526391495624634942
1.1525089887864030658
1.1523161854432586448
1.1521016453950871927
1.1519126539445114776
1.1517801996532295306
1.15171656019630686
1.1517165613935334001
1.1517672138709222907
1.1518482424429947741
1.1519274082376607105
1.1519674752814699215
1.151942827877701081
1.1518544681074300851
1.1517331340518657257
1.1516234054710299262
1.1515600946677384542
1.1515474516187447218
1.1515580635198026105
1.152420925093669446
1.1523775912137723676
1.1523169549820000412
1.1522443782066844609
1.1521672533914182335
1.1520961513623766415
1.1520427939563055997
1.1520196198346817074
1.1520365280660802565
1.1520959768325080841
1.1521964892250529111
1.152325274462334237
1.1524700151872302456
1.1526140381142266911
1.152738414879418638
1.1528338363292571778
1.1528847951313911935
1.1528892876844332172
1.1528484083592405174
1.1531427499965865024
1.1530686808378081132
1.1529131306596474005
1.1527100511094463542
1.1525155950276613215
1.1523877000091140577
1.1523614895912344114
1.1524298527340790521
1.1525457370246430244
1.1526490619529621284
1.1527013600241164948
1.1527047536267784889
1.1526897442649071124
1.1526882456616045491
1.1527111208857030444
1.1527406330824525593
1.1527416845483275942
1.1526844736020693816
1.1525631801902318507
1.1523980632845773897
1.1522283931685566305
1.1520947872165483439
1.1520232922508106821
1.1520200655906540632
1.1520741974696175891
1.1521620584700811296
1.152244154582959812
1.1522749210557328148
1.1522246050281452767
1.1520942078474374348
1.1519192250952212664
1.1517547129269010142
1.1516505305712210205
1.1516305692351644918
1.1525526370662295683
1.1525320016341265017
1.1524935898592338912
1.1524370417854667981
1.1523662264860714544
1.1522881340591666355
1.1522130306943469957
1.1521520384433066031
1.1521168078665817713
1.1521171427571981205
1.1521567470716194137
1.1522359948757006087
1.1523431180397187834
1.1524657493478089876
1.1525863492509886843
1.1526862734384435427
1.1527580103827190783
1.1527877183710502074
1.1527766441045463885
1.1527249787320972274
1.1533108638748430508
1.1531896636735290418
1.1530061967613411955
1.1528102740199419607
1.1526490573411916074
1.1525542077654262751
1.1525345990720465839
1.1525760989026323511
1.152646136340846672
1.1527088329454435733
1.1527390633637384365
1.152734656381102063
1.1527168759308583645
1.1527156845457631196
1.1527495701312437948
1.1528147885407671325
1.1528823342609966218
1.152910646200306255
1.1528710494691389865
1.1527638802131501272
1.1526196265644355066
1.152485448040934557
1.1524006350814335331
1.1523815121125580152
1.1524202501751013017
1.1524893337660613302
1.1525483242090928115
1.1525527403151847317
1.1524721483590405491
1.1523069826050207354
1.152092819294178172
1.1518907452499231869
1.1517634761440380675
1.1526724436423381182
1.1526433525280588288
1.152597966579801847
1.1525362906072471603
1.1524627718510942476
1.1523867617817766806
1.1523192368507875205
1.1522716514837076929
1.1522534373770954019
1.1522684929244060292
1.1523185230516312938
1.1523943905631115481
1.152486658016314891
1.1525794074354323016
1.1526545406203396738
1.1527037663576908955
1.1527126061506314247
1.1526849138416226381
1.1526212688377177606
1.1533104960244877635
1.1531045220648572514
1.1529191177596975759
1.152797764832417915
1.1527540960702493678
1.1527724334900202319
1.1528239406953275648
1.1528788975352186608
1.1529142947822437204
1.1529179899597996606
1.1528897557281934105
1.1528468099863133922
1.1528216046208270562
1.1528444810935536413
1.1529229442899391334
1.1530314752347083918
1.15312125643617569
1.1531473809377599249
1.1530948848793560746
1.1529865385302475733
1.1528690063481152883
1.1527840547164136531
1.1527509499354169353
1.1527618821579375119
1.1527904224811211797
1.1528043164722361347
1.1527704244232479525
1.1526645337629768395
1.1524862718031583242
1.1522681522021809286
1.1520718547623451933
1.1519604509158880568
1.1528525538094365199
1.1528326795051624387
1.1527992506364899139
1.1527495994688978787
1.1526850101969989826
1.1526119990027885454
1.1525399583992581576
1.1524802437623591356
1.1524434166637125276
1.1524350309063280395
1.1524582514132188926
1.1525056717325532496
1.1525692260507609532
1.1526340585216390267
1.1526836563351456899
1.1527099641466418412
1.152698752344715416
1.1526556804340608586
1.1525806914073297715
1.1532820746358125596
1.1530819694682725718
1.1529539182471360004
1.1529147145587308465
1.1529460664356199207
1.1530087419664085679
1.1530672707924776166
1.1530979644953409657
1.1530938742986092116
1.15306469165423775
1.153030475045851766
1.1530189484662762833
1.1530566441638205877
1.1531493896771460861
1.1532719601456831171
1.1533759709988402609
1.1534179288456176682
1.1533827443471353913
1.1532894552324666204
1.1531777347085003793
1.1530849398577049936
1.1530282251680157302
1.1529974902757726962
1.152970222606443329
1.1529268097447957775
1.1528509491526008901
1.152735901448648459
1.1525864154332947642
1.1524248755057473481
1.1522910998092898982
1.1530460928647743302
1.1530212449868517677
1.1529818275359382529
1.1529269705970024429
1.152860902986138969
1.1527912910422304371
1.1527284868070872825
1.152683038461355336
1.1526614081748569607
1.1526676912506539363
1.1526959712792057555
1.1527388252743833164
1.1527818565864620393
1.1528101755499255976
1.1528162531267880375
1.1527878940338092129
1.1527332791775495302
1.1526516912831208383
1.1533156939791937567
1.1531745452146937581
1.1531155029850497229
1.1531357931139871731
1.1531984652799782687
1.1532563810376603719
1.1532831403233709811
1.1532811579741020225
1.153269359715982656
1.1532706466879005802
1.1532992874508889436
1.1533649741513887221
1.153460790659277091
1.1535619173344935362
1.1536333032948185018
1.1536437638564154273
1.1535852273443703009
1.1534794321619259438
1.1533612523537846162
1.153256505246963437
1.1531702052581309648
1.1530912514941893399
1.1530086615803780692
1.1529225077936413602
1.1528415261888720345
1.1527672751005400009
1.1527001073557028299
1.1526452889851779293
1.1532565287179281643
1.1532281392639360806
1.1531904025629635679
1.1531429178629273302
1.1530885953386891263
1.1530326039535920835
1.1529821838290383873
1.1529449825680466724
1.1529256129332048353
1.1529272248359798692
1.1529451165847437455
1.1529737440842333651
1.1530012446834978501
1.1530161804612049092
1.1530124009467601631
1.1529800862897787717
1.1529282849176840653
1.1528539744748320661
1.1532920194375551048
1.1532000278749792166
1.1531981157758708356
1.153262296886932381
1.1533484594725325056
1.1534332221242549199
1.1535145919208369403
1.153596547025553809
1.1536847060405848175
1.1537680588041894225
1.1538364122205029272
1.1538826352075204351
1.1538924635042038247
1.1538620468877101022
1.1537822739575669395
1.1536545961541559979
1.1535005336579655655
1.1533492742332227543
1.15321414347459128
1.1530973603416891926
1.1529977280582270893
1.1529123122041136096
1.1528464656410133404
1.1528108521420961097
1.1528121868523442117
1.1528465139655661442
1.1528984074916694968
1.1534233091938395077
1.1533794344442318547
1.1533357157672936566
1.1532950844020923853
1.1532598412032033508
1.1532322055475441314
1.1532142327173633412
1.153206342468955814
1.1532095088340283962
1.1532207911026941538
1.1532382529876743504
1.1532552644023352784
1.1532659371652624891
1.1532656418388771424
1.1532456494410641135
1.1532126830819551255
1.1531589241414637037
1.153650926536126109
1.1534718103065013661
1.1533402863900956703
1.1532724028137373296
1.1532657721752122004
1.1533167886694835058
1.153419865790734633
1.153565360082251301
1.1537344657257937452
1.1538918264987614304
1.1540097653693748292
1.1540656001707869649
1.1540567197585009929
1.1539962848893159375
1.1538833576597782304
1.1537247790757989563
1.1535417119235451544
1.1533583654047654399
1.1531952511667020733
1.1530625125269329256
1.1529631957462773695
1.1528954224727963052
1.1528629420247833437
1.1528712197336232759
1.1529173620037032055
1.1529940694071021401
1.1530888659078879499
1.1535726383939302053
1.1535348017171465074
1.15350750387598322
1.1534910171991676897
1.1534837318413349028
1.1534834742360720039
1.1534873851752636131
1.1534945312700184417
1.153503503931677443
1.1535153553854462505
1.153528119763809201
1.1535409071638280665
1.1535503780762312864
1.1535487596343789729
1.1535387216272903199
1.1535078835233030237
1.1536599652719825571
1.1535227470521267623
1.1534104677728096444
1.153318784747422443
1.1532566022568746522
1.1532479406782418785
1.1533128818599387433
1.1534472610276589322
1.1536185264904401659
1.1537794047229499306
1.1538902775373631737
1.1539410188328591556
1.1539405553336923305
1.1538941934832021019
1.1537970652307596442
1.1536519484020253401
1.1534698054318794913
1.1532749668148671862
1.1530936145632944001
1.1529519189934192003
1.1528617548573110163
1.1528262289294242127
1.1528465997663717157
1.1529116773337191315
1.1530064016037484542
1.1531143372617391751
1.1532106623935396428
1.1532778313790452707
1.1536967795613553012
1.1536763448198443793
1.1536667042049022491
1.1536650752317221258
1.1536682131610869195
1.1536729978553803555
1.1536786289518221604
1.1536853452760109651
1.1536957116760424569
1.1537098842400310694
1.1537290344960318134
1.1537496833827776133
1.1537647482489694628
1.1537737441562732066
1.1537633193176473068
1.1535619697974499598
1.1534861483620455491
1.1533903530499900469
1.153284194821692088
1.1532079064785167866
1.1532001659885235956
1.1532684456803208306
1.1533819196948997821
1.1534934090165227527
1.1535746509445221619
1.1536212960977765274
1.1536395383370308121
1.1536288880093785725
1.1535813666905803121
1.1534854473217581727
1.1533425632361973268
1.1531717905638214638
1.1530052250596127816
1.1528787266790756494
1.152814469739312786
1.1528214038376793926
1.1528919830047277273
1.1530056055652679881
1.1531353004279094598
1.153246072850290016
1.153308662257787276
1.1533175762508713902
1.1538037459017147501
1.1537937111014138214
1.1537888532649176465
1.1537866361801822901
1.1537851373727654458
1.1537846399125397667
1.1537869142446535164
1.1537952261667923093
1.1538104916920330911
1.1538344205360360206
1.1538629362191159533
1.1538896828917639681
1.1539122547475442193
1.1539184018704939927
1.153433575636999997
1.1533439558362821309
1.1532187510327589486
1.1530995050789514256
1.1530312187465499019
1.1530302751658991767
1.1530765767531061528
1.1531360101374197313
1.1531898484620812795
1.1532384302930058784
1.1532827741803535204
1.1533214464289853751
1.1533365293265513962
1.1533040799496570017
1.1532147968463388743
1.1530809942559006043
1.1529368377714406257
1.1528242162807973425
1.1527768585098880916
1.1528082623404081186
1.1529070090491790879
1.1530434754190654889
1.153175704815024849
1.1532598358855825627
1.1532720065551598232
1.1532196600181845447
1.1538923271262133685
1.1538786624907833023
1.1538663409630474099
1.1538550965475822263
1.1538461239432586947
1.1538421430589536065
1.1538465724680320168
1.1538605847155432027
1.1538858907847311386
1.1539180030323321624
1.1539517468989035631
1.1539835658477033409
1.1540033211300775307
1.1532868338604649328
1.1531535673933275277
1.1529979164303394423
1.1528644667056027195
1.1527780986364566385
1.1527371497809832945
1.1527280798341521528
1.1527447039034812715
1.1527897410516385612
1.1528663539439201191
1.1529614890875776734
1.1530490686140149048
1.1530934391822262874
1.1530727022270250703
1.1529903552333367056
1.1528778880271768337
1.1527833312805624288
1.1527490409683520678
1.1527932814189931765
1.152904840717474233
1.1530463316617880487
1.1531674186766562862
1.1532243944630404808
1.1531983038254600693
1.153103766420934706
1.1539402067886763703
1.1539155810236805255
1.1538928934608547738
1.1538741279186461863
1.1538623391409572605
1.1538604367378482163
1.1538694210083269009
1.1538910623659435206
1.1539212076331550882
1.1539564314452439575
1.1539927458800891547
1.154022727121128522
1.1530251017049126805
1.1528776726389819984
1.1527285144301466779
1.1526015008896952629
1.1525050932347364885
1.1524411056185330793
1.1524151841785010841
1.1524368684519783468
1.1525129390710733279
1.1526329838300417574
1.1527645240075257149
1.1528686499809652766
1.1529105649668411893
1.1528828414291745208
1.152810821529012264
1.1527400523739339544
1.1527154160580439513
1.1527611964422188606
1.1528679629090117231
1.1529954349289064375
1.1530911656187603498
1.1531137183574693417
1.1530532885614213079
1.1529364470833689538
1.1527679480532624368
1.1526273159665427759
1.1524899223825324501
1.1523641430077378178
1.1522568979593525995
1.1521818671111259125
1.1521579754992530287
1.1522016162443600162
1.1523119516306516985
1.1524620883990686071
1.1526038702155185778
1.1526984993469910901
1.1527302374404522212
1.1527126772168632129
1.1526827151757412793
1.1526828327337768076
1.1527380409438898745
1.1528400970701295769
1.1529496301451738205
1.1530163509199558014
1.1530064892549072297
1.1529211054063914776
1.1527940869019781545
1.1524279452048973305
1.1523101121840342298
1.1521909737682416441
1.1520813518537669218
1.1520081792397844911
1.1520018082987455443
1.1520735941844046923
1.1522054884883272674
1.1523564475553262909
1.1524779665109614601
1.1525492348762595984
1.1525764032379173241
1.1525868965658188081
1.1526151387500984669
1.1526811709995663513
1.1527766334709368401
1.1528667645356165394
1.1529092747392586382
1.1528805654591069985
1.1527885850621779618
1.1526696802368738837
1.1519276950308681151
1.1518831894359187196
1.1519162973977730147
1.1520181724548115287
1.1521545428221879881
1.1522851514929788319
1.1523787232996900443
1.1524357822417563568
1.1524806576300745675
1.1525387059930505274
1.1526216445321086912
1.1527180285853659836
1.1527977183497881697
1.1528284451749617467
1.1527945424772843008
1.1527083540839357934
1.152606283248452268
1.1519690073917083772
1.1520731742381669083
1.1521652244750859584
1.1522433050354776718
1.1523191400783083793
1.1524096064801054862
1.1525188804143233767
1.1526298623604129823
1.1527132125995223078
1.1527428698613486624
1.152711393044958621
1.1526362637079978768
1.1525533955763846983
1.1518918526834298621
1.1519663417461136756
1.1520488589147790393
1.1521488755735809217
1.1522741435849817027
1.1524181981306669265
1.1525574198652703828
1.1526597419334565497
1.1527013395868019874
1.1526802512582254856
1.1526189963568791441
1.1525527077235653284
1.1435109935726959218
1.1430558012557896497
1.1429030105183026755
1.1430671533016778518
1.1435488485008045156
1.1443360527761086143
1.1453608398835992688
1.1464698023038817354
1.1474395055913395591
1.148030958283572156
1.1480746644985897476
1.1475360418033198062
1.1465410207163750922
1.1453507187390299382
1.1442812677685632039
1.1436032130446416311
1.1434566599020654643
1.1438255435709534513
1.1445612188402733977
1.1454534183384179613
1.1443753305507984308
1.1435619585217196015
1.1430010683249638426
1.1427085895453108488
1.1426757682363899438
1.1429166891132325201
1.1434737548960363096
1.1443640393712100067
1.1455149775201791673
1.1467349389431993334
1.1477442916609790213
1.1482719003915280442
1.1481603246878220315
1.1474339636848378543
1.1463009464787361491
1.1450794121163625494
1.1440890521524182954
1.1435502234767476182
1.1435389635834267708
1.1439976200543959806
1.1447733673884028516
1.145678785627369578
1.1468470000150732258
1.1456977427847025996
1.1445996740520132384
1.1436924680669842136
1.143054824643455758
1.1426893878895476586
1.1425537969918655445
1.1426436042241348012
1.1430124417438896067
1.1437284463557870762
1.1447912682187664224
1.1460646353761578808
1.1472864194132839089
1.148151626149172877
1.1484270582225417634
1.148044881740481804
1.1471260236038087754
1.1459324378717250514
1.1447765780457310747
1.1439231041966586577
1.1435333111462766542
1.1436507594139564414
1.1442064026402798405
1.1450490891961375706
1.1459749177260305508
1.1467703230700496686
1.1473118954105741008
1.1463489820197232394
1.145294195731265896
1.1442759216242235354
1.1434458291824223242
1.1429051372175227375
1.1426631117099930179
1.1426615213281698935
1.1428596129015069494
1.1432724250408308198
1.1439428345962676659
1.1448653700882878148
1.1459166120070050088
1.1468701948138775304
1.1474765134188393834
1.1475694116348758023
1.1471351637594739969
1.1463079460245586549
1.1453130186499846932
1.1443934217816582599
1.1437446628414307259
1.1434859282348313059
1.1436552820369847439
1.1442033997300060655
1.1449980544112223768
1.1458488073501416071
1.1465475880422004717
1.1469533503927464846
1.1456197445266553814
1.1451235657793801259
1.1446120669474451059
1.1440623563514014105
1.1435629697385456538
1.1432668510389418781
1.1432926617628882404
1.1436219621699514892
1.1441115266874049006
1.1445852196874686246
1.1449338708452760915
1.145141452156555717
1.1452434014960339859
1.1452595298062109297
1.1451775016327809809
1.1449834456491978507
1.1447056060151310497
1.1444247136146239452
1.1442362282167848342
1.1442019210359684056
1.1443271768035532254
1.1445704761493840085
1.1448805027198332152
1.1452269709954048249
1.1455998296504605882
1.1459756582943292358
1.1463009479403034607
1.146499701767740742
1.1465250575307976977
1.1464103385319073247
1.1462777575508122929
1.1460412559807551247
1.1458372529785683103
1.1455835023979428211
1.1452465260113464662
1.1448923606719494384
1.1446439378832544698
1.1445865763940772375
1.1446847257927941222
1.1448127153949589907
1.1448532554235557601
1.1448008896810504265
1.1447550004709778904
1.1448333835997877017
1.1450730118446690309
1.1454080420271044449
1.1457244284049026284
1.1459410130385350168
1.1460485885098958825
1.1460877521021362035
1.146104250985233719
1.1461226237091035607
1.1461546275527960681
1.1462254335683164097
1.1463835339092218746
1.1466799905469777787
1.1471141036227969767
1.1476073704980880308
1.1480349358051162856
1.1482958984141280467
1.1483914489571607209
1.1484159368091222397
1.1479525162320989295
1.1478928331812823238
1.1478608770179328236
1.1477302278773204858
1.1474399409779856285
1.1470577999834155047
1.1467338633884633925
1.1465908471142041147
1.1466244917541315029
1.1467189406005955377
1.1467530633660436568
1.1467158840577711398
1.146708419476313745
1.1468457568048071593
1.1471563524772458997
1.1475559916579802788
1.1479147242080234292
1.1481492838035745052
1.1482592601919974218
1.1482972186615150179
1.1483140326085676808
1.1483275896241991187
1.148339766789600036
1.1483706397925734777
1.1484728849310210652
1.1487060555855974631
1.1490759945153845578
1.1494964304647350417
1.1498287434064680124
1.1499635682810573911
1.1499028617411364284
1.1497594422479715526
1.1496598507860777971
1.1461472260949223667
1.1465299779042108508
1.1471634284251732705
1.1477174767920013121
1.1480193889144487684
1.1481415770431053769
1.1491838724022185314
1.1490571186466200793
1.1489620415219499172
1.1487668888619702035
1.1484038507914240412
1.1479461347357804435
1.1475567787142768594
1.1473573060520834144
1.1473480516234040305
1.1474022807922557021
1.1473902057937974686
1.1472986397445383844
1.147237441612833253
1.1473279930428312845
1.1475992512720243344
1.147957832946311596
1.148264970028725962
1.1484373605344058156
1.1484800908649968054
1.1484516876676527097
1.1484044682892637912
1.148351383324633046
1.1482880328544275983
1.1482362923303994773
1.1482585676734842206
1.1484233863938031472
1.1487411116279888645
1.1491208525524085893
1.149408441276776438
1.1494867895530282986
1.1493564202045545297
1.1491411256521097961
1.1489814128292974438
1.1489366675640171334
1.1485389452610348382
1.1485207610155734326
1.1489104488560886175
1.1495519971965082462
1.150099827286724663
1.1503836448533937276
1.1504879614171614755
1.1496885003900201294
1.1495248355281848518
1.1493989085134981298
1.1491721798330962745
1.1487731361825628262
1.1482741868669938956
1.1478492554741648313
1.1476220037394211371
1.1475922942872827104
1.1476283486937219891
1.147594519928135437
1.1474756224406468252
1.1473865035813184399
1.147454086534330564
1.1477088741098455671
1.1480534040134460216
1.1483436332439456162
1.1484951938827498985
1.1485154525131502368
1.1484661671317213383
1.1484010138243585519
1.1483319930864874792
1.1482502605712412436
1.1481787194640766803
1.1481853720011170328
1.1483397299870310437
1.148654548497317851
1.1490366807079666067
1.1493230894590622526
1.1493939646016837486
1.1492518374331202047
1.1490217099694015612
1.1488532924126799717
1.1488048443165945756
1.1488247478741600016
1.1518862560673999162
1.1518859850208242879
1.151909041324883809
1.1519521467424067573
1.1520110604578623903
1.1520783131537528643
1.1521424076083726096
1.1521966731217627711
1.1522336819024683319
1.15225146299843062
1.1522515373108408454
1.1533331263037049919
1.153290757156642643
1.1532233546676458058
1.1531373124078465597
1.1530256591531895527
1.1528837415900854424
1.1527223177537475607
1.1525706555526047392
1.1524553452832617673
1.1523776739017945747
1.1523148131208209577
1.1522326554188437875
1.1521171954023941009
1.1519930045215922565
1.1519123609310994993
1.1519143890123917373
1.152001462693991618
1.1521299229837571598
1.1522348822800179136
1.1522604809133025761
1.152183290374820146
1.1520183549815186108
1.1518078210302009623
1.1516076839119044894
1.1514679248851937832
1.1514210181352853013
1.1514704566686437825
1.1515881164890222621
1.1517279562773918844
1.1518418469188695941
1.1518983497364523316
1.1518899130184074853
1.1518284442403721179
1.1517385983840848773
1.1516459475837248494
1.1515657872569122766
1.1518673044626330793
1.1519052571778085614
1.1519471870471296171
1.1519821274439381309
1.1520012214182480115
1.1519997017326828459
1.1519769911999657719
1.1519371697136040478
1.1518873048129163461
1.1518374306571574905
1.1517988368250273723
1.1517803581481484976
1.1517900779164063074
1.1518269166309755835
1.1518872261691159853
1.151963151211822467
1.1520425873876749545
1.152118870332441869
1.1521815211212105279
1.1522283319881334585
1.1522588891167806491
1.1535377484709998797
1.1533687040796656298
1.1532034403016866442
1.1530617916479704022
1.1529310844573934514
1.1527926197269777742
1.1526442726897481172
1.1525107637455456189
1.1524235010629046982
1.1523904798694877272
1.1523852022997529421
1.1523738122366646852
1.152326424575637942
1.152242227303292621
1.1521577397313473856
1.152113141850134248
1.1521268575418603941
1.1521812543610185919
1.1522353128188282945
1.152243739105892173
1.1521808205490740029
1.1520465460687308035
1.1518678764271543802
1.151692468427743643
1.1515700388418472766
1.1515375704834569515
1.1516019912151218563
1.1517330063266288942
1.1518797553420412338
1.1519921930319563241
1.1520386719043793633
1.1520184006179250424
1.151953070969409465
1.1518713200289543153
1.1517973127568528202
1.1517408114820466558
1.1518845469623557598
1.1519296239706215967
1.1519767814886936463
1.1520166108695066853
1.1520394003673957162
1.1520381837859710039
1.152010789822890402
1.1519612568109784956
1.151897473196134003
1.1518302980449848238
1.1517714436449284499
1.1517300212475098942
1.1517158811372587568
1.1517313375770188433
1.1517775718779428296
1.1518499401363060386
1.1519374217445037534
1.1520337995677349952
1.1521246806218625736
1.1522050691161911384
1.1522706563150169057
1.1533798263812549134
1.1531528209562840193
1.152985302375247656
1.1528614003640849095
1.1527466764926437293
1.1526286561330076896
1.1525193297937457171
1.1524530410623159415
1.1524510726914729553
1.1524998087725559781
1.1525511902139937703
1.1525646793508006471
1.1525192915369335545
1.1524294444506848478
1.1523340645680495431
1.1522684673903813568
1.1522463748771993863
1.1522537511013100087
1.1522595832671405081
1.1522280220691969443
1.1521382389272052382
1.1519995604121253674
1.1518497216294978358
1.1517403508873991225
1.151711593768575792
1.1517726330655366773
1.1518975129676360947
1.1520351006799876004
1.1521342931097602325
1.1521687480560394157
1.1521416514532585307
1.1520778489142684542
1.1520075474943141103
1.1519553329776950346
1.1520010966083049642
1.1520511208399157876
1.1520924044374309947
1.1521169756859204192
1.1521180834817437155
1.1520915343949817977
1.1520383886505141113
1.151964172034560141
1.1518790754712604496
1.1517958729019592834
1.1517260767475983041
1.1516826435382918614
1.1516706683999033967
1.1516949125941136067
1.1517541341069450489
1.1518400376200232937
1.1519486904953064599
1.1520639460493955486
1.1521783925190303144
1.1522819361037626162
1.1533413322088135189
1.1530996422282051572
1.1529374784723642744
1.1528367540012554038
1.1527597487469891657
1.1526751275966724553
1.1525884576903770995
1.1525325178719652008
1.1525403607634105985
1.1526145325672083608
1.1527163193823266596
1.1527863815703502937
1.1527866756271012427
1.1527119765324691514
1.1525900012689700436
1.152466802712426297
1.1523812945440281563
1.1523467736980232967
1.152343737437083071
1.1523318567475611118
1.1522767097502244482
1.1521716635216281421
1.1520456087735595485
1.1519480151433467707
1.1519175370890284427
1.1519669589834562462
1.1520727370373355924
1.1521876184761357109
1.1522697843805334017
1.1522978506315870728
1.1522735924189830836
1.1522193363122410492
1.1521656300329579103
1.1521356507281559356
1.1521259926149842734
1.1521748321247335944
1.1522151156314417442
1.1522391593165588475
1.1522406033328913555
1.1522146178141670081
1.1521602637068815156
1.1520803993555499556
1.1519830003380797656
1.1518797516133274517
1.1517828331215955728
1.1517078798254272165
1.1516639264570349699
1.1516604173703324232
1.1516997065977427894
1.1517760424280345521
1.1518872394219823452
1.1520162439491206108
1.1521548447448575203
1.1522883022002154974
1.1530693121141273316
1.1529406179933276988
1.152871232578187799
1.1528243458298368385
1.1527712427435197196
1.1527101850587817555
1.1526660488050688436
1.1526756511656168769
1.1527532168589462724
1.1528764683835579508
1.1529917837825813809
1.1530440380448567783
1.1530028777277203655
1.1528813602259853077
1.1527281657155645789
1.15259821978819188
1.1525231183456983164
1.1524942830758633239
1.1524806126640185777
1.1524448524612753708
1.1523704744677709666
1.1522729515699687841
1.1521885219546486034
1.152151492709039271
1.1521730888086545441
1.1522379925050814098
1.1523135238718680284
1.1523705474749006417
1.1523939039655104466
1.1523824338078323404
1.1523516580061197168
1.152325329133019105
1.1523520400750439929
1.1523860511427903575
1.1524056112222291759
1.1524044065538157078
1.1523771863537397575
1.1523216441922379261
1.1522385862267026102
1.1521341675760548018
1.1520189943150136447
1.1519049699962680133
1.1518080673740824782
1.1517387255979687488