/*--------------------------------*- C++ -*----------------------------------*\
  =========                 |
  \\      /  F ield         | OpenFOAM: The Open Source CFD Toolbox
   \\    /   O peration     | Website:  https://openfoam.org
    \\  /    A nd           | Version:  12
     \\/     M anipulation  |
\*---------------------------------------------------------------------------*/
FoamFile
{
    format      ascii;
    class       volScalarField;
    location    "0.0145";
    object      k;
}
// * * * * * * * * * * * * * * * * * * * * * * * * * * * * * * * * * * * * * //

dimensions      [0 2 -2 0 0 0 0];

internalField   nonuniform List<scalar> 
106891
(
0.032757608652806434468
0.032758458641162155334
0.032758539508221828918
0.032756970125434034524
0.032748697463009027175
0.032712185174708204027
0.032575591509913910671
0.032114733380966938026
0.031229609377620572153
0.030395071804485678663
0.029739583891032778801
0.019062850624592793392
0.019442403772441670118
0.019762419928168035305
0.020031072514664842454
0.020254614233511363669
0.020438168915061574737
0.020582772307559612374
0.020689155223154721136
0.020760882180620398446
0.020801663611603390946
0.020821027370896513786
0.020826037569238703417
0.020824959617035170012
0.020815999690625277413
0.020784031881795797525
0.02068223877813588768
0.020547612552579981593
0.02045606580335757041
0.020408747818489926529
0.020398019200735736933
0.020403512699808699221
0.020444681483676670902
0.020605745044328722948
0.020875770431206523703
0.021114779444263861996
0.02133244262561021648
0.021544384050177715906
0.02176330639029771391
0.021992283413200804792
0.022225178272730853474
0.022447619379077229929
0.022643944800083859459
0.02279963716670072027
0.02290709664390816816
0.022970454402628480428
0.022998654362775726445
0.023006115901146907687
0.023005044900099906602
0.033589843055102749925
0.033806082633877979071
0.033957360322889214299
0.034058704467824170437
0.03412765630427279373
0.034175543633092546336
0.034211033318040331985
0.034241598157580266371
0.034266010898202733936
0.034286276341319824046
0.034299426089038208276
0.034307292168997735593
0.034309707832644295578
0.034307108669783765997
0.034286571917575461854
0.034195121198907663107
0.033866944545116899057
0.033015848016137695764
0.032077208704887769097
0.031347814613932545313
0.020425414689195460494
0.02076564879732998789
0.021044963019782082086
0.021274561182046115154
0.021462798688626015531
0.021612151547402137092
0.02172457273888742102
0.021802463737761096363
0.021848697325320368123
0.02187171914120991309
0.021878911314203691729
0.02187829709631577621
0.021870490680933590139
0.021842456201559081602
0.021750478978717204676
0.021615247985316332624
0.021520650807874828342
0.021470347047205275148
0.021458076117128781907
0.021462983971987894399
0.021504598394191477839
0.021679840743954282428
0.022051331324226028374
0.022372772937346144251
0.022634600097256884349
0.022855750684279491775
0.023058452714440461767
0.023259484811516118602
0.02346702554157807305
0.023676752297223862403
0.023877914870886203513
0.024056769891231448433
0.0242016306303758158
0.024304110490279244583
0.024365690573789157425
0.02439218385286746546
0.035183013314848736453
0.035401272736072908476
0.035557490953118268961
0.03566314021615627633
0.035734584680784935162
0.035784471141635104674
0.035820556003014432378
0.03585174288152126465
0.035878937112955401612
0.035903006810993995379
0.035920458565371155002
0.035930988636948872628
0.035935216583190217332
0.035934103065799513632
0.035920269902348894719
0.035852582581022321428
0.035602079282138002214
0.034847491846315657715
0.033839301983349168168
0.033059870757524568996
0.02173828326124626828
0.022005772914936383433
0.02224561947590000463
0.022466254379204110558
0.022670970603472870991
0.022853593077088629054
0.023003664678928930493
0.023114197846419107935
0.023181420723781279158
0.023214232296914796144
0.023221251692310720949
0.023217718965100796191
0.023192173869071103232
0.023092290811860743255
0.022897760889788839472
0.022753502383998279457
0.022672520635074404349
0.0226474263904310677
0.022650242624308113137
0.022691429142462297974
0.022878941509809170435
0.023341901390733804655
0.023755812569768469666
0.024073313872578442491
0.024314213394280300568
0.024504782375338471367
0.02466941977831690197
0.02482550072281820841
0.024981458855679431613
0.025140098322118761831
0.025297188417854311882
0.02544712575985167563
0.025583903207078800141
0.025700784479005776839
0.025788303954521210604
0.025844294256361581563
0.037332210153700334798
0.037491895076682192622
0.037577813677736597586
0.037612540019008343373
0.037619147818643290659
0.037617180524979865197
0.037604690119646295987
0.037583132501895842592
0.037570037106729216314
0.037564715978534841956
0.037562936822126975767
0.037561295320191818992
0.037555820896292411992
0.037531589459386838215
0.037438158661337310462
0.037116879428126373086
0.036284442476750999873
0.035348715879558914588
0.034658003691681364689
0.022790640742662637147
0.023014581709147236693
0.02325976376378121116
0.023527926400660092998
0.023808838679276873168
0.024089314477907183137
0.024348990579818034774
0.02456999759014250051
0.024736514004933801009
0.024838833748296814535
0.024886751790346234997
0.024896605684084218563
0.024890524855100338436
0.024853575435812378519
0.024711230752289592427
0.024512333625063605774
0.024383987310704544754
0.024321929634781209312
0.024307596354533507477
0.024312026065199127817
0.024346603902496606608
0.024478762879854166351
0.024753375518403095829
0.025026352434713131784
0.025299098998029883462
0.025578553787111962814
0.025859232531669325977
0.026131897404558519782
0.026378617946813554679
0.0265864202562321357
0.026745999933929377745
0.026858572397477149113
0.026928344010495430805
0.026966118815900247396
0.039075824986356373636
0.039300497434107885264
0.039428625302116479534
0.039486466959103051766
0.039503090132311305394
0.039503490226200907443
0.039493399338792881115
0.03945349121878944515
0.039411361015707226108
0.039386939227897849181
0.039375117757232361293
0.039368485072511033573
0.039359423960426624667
0.039339657456096716048
0.039285117567550952022
0.039113189793663405425
0.038577907726307369973
0.037757870375160478005
0.036957971891421276256
0.036417688201478143339
0.024361536427180648101
0.024537511491920016571
0.024694822332501177586
0.024846184324974408819
0.024997385139623063549
0.025146636279255254326
0.025288530134619593287
0.025413446168366965461
0.025513110334980961674
0.025578960335865708053
0.025614484045650705302
0.025625636568058184073
0.025624132816047907185
0.025610445178673033745
0.025548158734907584072
0.02540616620217420879
0.025295028926794985158
0.025230101483561917508
0.025204952493273553166
0.025202579624212153447
0.025214216545754907645
0.025275211766830302934
0.025480986615833749187
0.025799194811072418548
0.02612055057777310646
0.026454851432607850298
0.026803477897874287972
0.027156070337464831288
0.027498766533808855633
0.027812592557937828447
0.028084395021954301069
0.028300606642626843085
0.02845996724955232593
0.041165718096737233256
0.041273742494110601808
0.041331389636637488882
0.041357930652361069024
0.041367868525194834151
0.041371755367288112759
0.041374283694696374625
0.041376228463865696861
0.041377657842265831711
0.041377528991727433039
0.041375891706159906303
0.041370454347099142045
0.041351452819845847808
0.041283372572442057769
0.041049317930874733296
0.040370728841382583219
0.039562474298030114728
0.038780538444128105635
0.038291807979257935779
0.025913210116903520608
0.026078117885985813845
0.026205136559164721871
0.02629556378606430142
0.026350227920386225938
0.02637814823143263751
0.026387261889692668893
0.026387259684429616863
0.02638161442178666577
0.026365846649842455962
0.026328292918821261798
0.026285796609787706601
0.026250076604219935161
0.026230938373148621895
0.026227858113770003562
0.026235771544426300661
0.026284352770544177486
0.026455092858028876612
0.026681210589959234586
0.026881891421910150686
0.027076248819563802916
0.027277451604424421405
0.027493569146868013231
0.027730030583111919124
0.027990851685851247943
0.028275954068909280037
0.028576327564561684186
0.028880503313836663332
0.029172452544833266802
0.029438115480997624485
0.029660746665890615203
0.029832360919231810936
0.042630270154052171683
0.042780319913880440752
0.042913038911261337793
0.043044134123267241421
0.04317852775032974405
0.043315207967087085428
0.043447281774428553325
0.043556766524858063494
0.043625572488923222703
0.043655560064311017821
0.04366008382277114519
0.043658419270607623508
0.043649899433429464879
0.043615303968791103995
0.043486452495539819341
0.043027301974703946463
0.042141300767108147429
0.041182807158685899585
0.040552609152442402329
0.027083921090174909591
0.02735463407129250929
0.027622904461906822027
0.02786367444518395714
0.028057041069597738608
0.028185933690263838963
0.028255293346894239798
0.028279999179837284062
0.028279502752400917376
0.028270471151215028488
0.028233747167572827153
0.028126587625825802408
0.028021660747521597024
0.027954657987762237398
0.02792311874117569051
0.027916184588678130685
0.027920998942027781126
0.027953493556762250283
0.028080276354084839074
0.028386572324930133687
0.028714408511347482011
0.029046744730228380577
0.029391880164322536917
0.029749396630900027533
0.030104969210841825422
0.030442569134443053097
0.030746272424847353316
0.031004109231017498716
0.031207546806961108249
0.03135763518806675143
0.044494414636586356038
0.044583836255302509988
0.044662413442838583277
0.044752064201696757639
0.044865453355299234062
0.045006060911105809363
0.045174070301849840459
0.045364600047813896655
0.045543545741252411396
0.045670162346845802337
0.045728161242379536389
0.045737713074169142335
0.045730610205087382503
0.045688372077848218855
0.045514183852970936661
0.044947180700408678744
0.04383911093945588866
0.043071133016822880923
0.028649088711812032565
0.02894151777018624111
0.029236199756095589825
0.029513193588727278799
0.029750604724986771943
0.029932840488106720461
0.030049616663100464642
0.030109241869975773842
0.030128735243856664267
0.030127895996178429699
0.030118221956782688375
0.030073133208082598183
0.029951248852360886493
0.029841405802529814839
0.029770709692217733888
0.029736684986164926836
0.02972947729584371479
0.029734424317873840715
0.029770695111537109206
0.029913700962308435727
0.030305147978411356435
0.030748874394670971943
0.031162092743893348573
0.031545941015962850051
0.031905753464384060958
0.032247608718683713758
0.032560376534909347968
0.032836531175927212434
0.046247510055182954047
0.046197385478898893296
0.046034449471690927491
0.045891772283571510838
0.045820952648315149691
0.04580358897132999485
0.045811579168276481133
0.045869820717144009492
0.04611153131045076653
0.046553483711298575265
0.046889118043033820027
0.047092427477607445852
0.047177928586095464747
0.047187729576274387022
0.047162549991814281536
0.047022137370447095184
0.046415204159860320998
0.045611675766340120664
0.029752034627914134002
0.029968834279737292109
0.030216053804712282582
0.030468948706721565856
0.030695509118180117764
0.030868784198947393088
0.030973432267301904963
0.031021352485443302177
0.031033266512751019051
0.031030581697055987372
0.031017508284230856791
0.0309779532331886584
0.03094760457119484845
0.030939920223292220747
0.030943667896099202874
0.030976225335362313901
0.031113814407125590239
0.031481345637867447218
0.031862868517217264597
0.032183831780272620371
0.032441584482945512447
0.032639818080078555895
0.032799179975645478824
0.03293769528795710555
0.033085064066206329447
0.033263923608322115699
0.033475149404218078331
0.046804943065450070605
0.046356603195504081372
0.0460433547872853427
0.045865962405998619844
0.045791742072376441508
0.045782669830950847856
0.045802834269949382895
0.045921206782651227685
0.04636945807018423571
0.047043226551115431555
0.047551648722177833339
0.04787638885260562388
0.048041066171486533631
0.048091309669717335895
0.048086997606084612433
0.048007790204738547135
0.047722810351187069933
0.029536733938949500528
0.029436443760668930258
0.029406991213491363857
0.029412929036655086068
0.029472018785790549816
0.029729334043465626553
0.030335755450441943132
0.030870863739743816673
0.031289634818719151699
0.031612169685361277138
0.031868248114585155661
0.032089745681086377649
0.032302587940933810695
0.03252634427580573806
0.032761363577385169132
0.032999789218191522
0.033230183277316256707
0.033440570796021293343
0.033616402416923485408
0.033743287062473259486
0.033814961203048804483
0.033837206799759544928
0.033832390765982697789
0.033769974714339706656
0.033521878696958190558
0.033220925777295857995
0.033046010314067605917
0.04335484141726499846
0.042582430215351858849
0.042086124740547216361
0.041827336046214864951
0.041734348664431770992
0.041728955314858019732
0.041771524567824860896
0.041995299490476305226
0.042831561973953519162
0.04446361903859487319
0.045904878601970344754
0.047040681074155633878
0.047833218860331878919
0.048339988050616018722
0.048570369467459184598
0.048697228616521787137
0.023760332301443552738
0.023624293551710532496
0.02356577641722864061
0.02355494534236541801
0.023562721706247603815
0.023610850784004412672
0.023798825842434073036
0.024382381337752910555
0.025173855384860707729
0.025902044171941439321
0.026564632084733561662
0.027153547069930124291
0.027668289054475308369
0.028100558396550345819
0.0284420127155139979
0.028683906673119281133
0.028828371573453467208
0.028889787683415855263
0.028902961197743378546
0.028896277268008474515
0.028848688057131102735
0.028670754233788651316
0.028201479069335937816
0.027703047634105384261
0.027288027107307093189
0.026981898979383515946
0.026789449405509788843
0.026695568568761911948
0.036367163820138090347
0.036074497931850975363
0.035897934322047186928
0.035813943980939524914
0.035788379168047911028
0.035789900821265499542
0.035815122825118193839
0.035926713330142072411
0.036331146577913218942
0.037302087776316515677
0.038581807683900626316
0.039550525674727957104
0.04086087843773372752
0.041448965883952963718
0.042677799801883312125
0.022666200318593683616
0.02265610315284448395
0.022658086815134637765
0.022673395751925493058
0.022737929491014982619
0.022946179570817275967
0.023241217609132527183
0.02351790069948822906
0.023779905352439411476
0.024032484582378312032
0.024281885279401692335
0.024539361343003343596
0.024805955239765933862
0.025079900119162969879
0.025350789558770184945
0.025615587224468511912
0.025857233134703064975
0.026055986932852430449
0.026193491057867730742
0.02626751422643459899
0.026290466919305002097
0.026290941889137168369
0.026272502353835654881
0.026187327636792771118
0.025983362477061722889
0.025820707039612981332
0.025728239057276860308
0.035037090428172323886
0.034901645596719800546
0.034838721832849313398
0.034821956521391403405
0.0348256331388706597
0.034859579151828849752
0.035000829490614837614
0.035507076259877229374
0.03619016284107735848
0.036987178983076712813
0.037506207221920911943
0.038263137638040692345
0.038595254007802441698
0.039316287488818518758
0.021940206232811485659
0.021950323205074472044
0.022000754102594891753
0.022169119042882011461
0.022395959527400147865
0.022601098577905171655
0.022794787422473889588
0.022985360878381742161
0.023177253576221634734
0.023375682539305862179
0.023579183213840664013
0.023785140019134995426
0.023984122420888539379
0.024168988719725753578
0.024328038237185174025
0.024453506293949062861
0.024541047820771644955
0.02459080450761521805
0.02461006544224869641
0.024613152933940181388
0.024605484765259182794
0.024560264103959148635
0.024434458170177059122
0.02432972858000865754
0.024276104404646867835
0.024262941625705670978
0.033501656196275979294
0.033459920136752231701
0.033456397200892717958
0.03347376444179438193
0.03357177127711673259
0.033920877168186008843
0.034633899759348267533
0.035197361084875734838
0.035779113326040772047
0.036154055703460023785
0.036600582502414498454
0.03678428776453265131
0.03716443089547893236
0.021126310441135234819
0.021164839814753911434
0.021325358923863547284
0.021641580891328136838
0.021910341980482767738
0.022128510571679717994
0.022311988545880363094
0.022476757912678582002
0.022637530082103257678
0.022799897418655457049
0.022962409437841748566
0.023120146459759953472
0.023262812571530382816
0.023381947088961661102
0.023470356951117425648
0.023529911980552414147
0.023562307755231087086
0.023576114908086916871
0.023579649152563563613
0.023577764685555797214
0.023561474321487637512
0.02350815493772024159
0.023459307421022760481
0.02343635185076183361
0.023432682888148082673
0.032079117472241146236
0.032079676126357328791
0.032108090873107723862
0.032248295160925762037
0.032709465063849384181
0.033399982189691979073
0.033941260061876733778
0.034437871429920198507
0.034771802680175267763
0.035095752404760711951
0.035222071113675916532
0.035448100204071207597
0.020206105367378199289
0.020418158247012926226
0.020695088163220919791
0.02093835568192437338
0.021153156527152855437
0.021343228634557523393
0.021517201981857782267
0.021682218024418838109
0.021847215683102307049
0.022014580686803807141
0.022182717429978623253
0.02234966199462675232
0.022507026652712733977
0.022649003050293974731
0.022767026190527308444
0.02285768924699255189
0.022914888024799868332
0.022941781468929976079
0.022947295207001561224
0.02294171463041970449
0.022903634211453686997
0.022825630859704900549
0.022779914316354652609
0.022768579293225659627
0.020039974730502285727
0.020264524057622978342
0.020448731917878843617
0.02060113100815840273
0.020736966642376730707
0.020866797735713933648
0.021000250005592895758
0.021139328464131783986
0.021281558824148547049
0.021424466220769912417
0.021558591142525750095
0.021676775154216180314
0.02176969698512638135
0.021835714565519387387
0.021873773586347233788
0.021890737721244717118
0.021894763836305331656
0.021892363227557502109
0.021872472838755371155
0.021812015557606978522
0.021763215469232589233
0.021743500984251078884
0.021742839065711755397
0.020169422007973072941
0.020332961049075157223
0.020414859799960796
0.020448617119423462968
0.020465549540008759477
0.0204894540235261019
0.020543508073207952108
0.020657749880439765788
0.020789863781223810041
0.020920796683084642853
0.021038103222096676825
0.021132205778305719612
0.021199637794397270529
0.021240484452333764642
0.021259763031554218538
0.021264451175221781715
0.021262786914149119782
0.021247228730465143182
0.021201917929263288526
0.02116807485400175326
0.021156255299506199902
0.019845046608458559445
0.019927180920354680554
0.020017147027644715401
0.020117700706969617042
0.02022073843537392987
0.020320880946378804682
0.020407036431262150916
0.020477658710815992149
0.020530315554015281937
0.020568453792085314435
0.020589831001618819073
0.020597753552984043868
0.020597607680518072865
0.02058733709095623976
0.020539005952857972148
0.020473982769934052223
0.020440569600616950718
0.019129550286863909736
0.019285092840543270609
0.019435760505280716415
0.019568382803777879808
0.019669702643531714742
0.019737055773347077225
0.019770256709304281917
0.01977930982352635314
0.019777485449540686824
0.019759172775155396662
0.019687766517920368692
0.019606518494352246501
0.019564731261581494448
0.018666946923679764853
0.01879522299835834076
0.018901695396317093334
0.018978183490648361381
0.019024177823660889247
0.019044069855783111317
0.01904742997414495681
0.019044491462725771092
0.019026439244751502944
0.01898134619844889931
0.018951039947258160184
0.018940425187113623523
0.009785213133141202127
0.01089448940440859194
0.01220074204103931137
0.013246714537657534524
0.01398935937453244481
0.014437384177984987146
0.014640158221938601515
0.014694169238567077532
0.014690989336112250663
0.014629565506887811863
0.01436869111319312789
0.013659941968017211625
0.012918358570909753077
0.012309164672639287194
0.011833167881883835393
0.011485150532694405473
0.011257393164038134725
0.011132207790428295599
0.011085164363113565039
0.011081034607177325801
0.023452874709646073098
0.025278768222126032916
0.027812561798650454331
0.02996632130297167268
0.031600135135646890971
0.032659636340168711477
0.033196294468306346281
0.033370485385929959943
0.033387068256090654539
0.03331891513909542718
0.032992944931823760257
0.031905529798706207256
0.030299425281640160468
0.028950440959066285618
0.027893926110383254063
0.027137141536465497066
0.026663719260003694578
0.026419423414780009857
0.026335060313280558159
0.026329572710311586331
0.026387811354001863146
0.026675157119825428781
0.084857146972285676934
0.088372179500749811765
0.092145945388114949837
0.095840095388972104673
0.099074566255412443994
0.10151662244777676092
0.10309676014741517291
0.10379481457418426871
0.10401512506549404069
0.1040276681833608996
0.1038395615491542745
0.10299091943067914534
0.10112126835821433346
0.099642719900279647094
0.098849728825116237041
0.098563424586474018829
0.09852545762201429802
0.098580633711756723847
0.09881837279230806792
0.099540381222887636126
0.10138390622014464837
0.1042728811787336507
0.10783457680994565364
0.1117591367671428304
0.11564908657887336407
0.11895546781858459817
0.4647333686509039774
0.47858750055568410886
0.49217807226811616239
0.50483178660910532631
0.51570857373689493741
0.52412378694053640693
0.52984097453354483953
0.53264454359192603405
0.53366429404499948763
0.53383708199180868181
0.53331892606722808292
0.53200319797341544259
0.53122621113072554522
0.53110762061823457714
0.53138241273766861905
0.53241678082164622943
0.53556150742345409732
0.54327516646686857538
0.55288932722450667701
0.56404861748868884153
0.57664274032369922107
0.59063724013663376766
0.60532454214278053062
0.61958908522675015806
0.6323475334493363631
0.64229874243640860954
0.6490216627565867924
0.65257059046973442396
2.0292851641195595036
2.0456326210094637474
2.0597131724247854656
2.0713338517125405858
2.0805160638846849075
2.0874294888741271592
2.0922630372969255319
2.0952604569162058823
2.0968589502118972767
2.0978287821396324198
2.0988625732304040383
2.1006009281462039162
2.1043154918973674405
2.110638116098749073
2.1192974381377394089
2.1300409962422897081
2.1422576984375369946
2.1551748464095585867
2.1682973252599779812
2.1809397114462165668
2.1931078117959201812
2.2042867294446715221
2.2142059990393576641
2.2223598688431938086
2.2282454417747112885
2.2317244184099167548
2.2329680638121809366
2.2329794060974634817
2.2325317773804687072
2.2311026146254158142
4.4274659393049065059
4.4157077653962373276
4.402114833319428655
4.3869236368166752982
4.3707372626418647954
4.3544766942239263585
4.3390942486993688831
4.3252605329542559431
4.3132617307239122795
4.3031144335122872846
4.2946779273081201467
4.2877591014191667185
4.2821650444952883419
4.2776489572909568437
4.2737984197378109386
4.2699413926257294705
4.2652388748618772496
4.2589828991921470092
4.2507962412158564192
4.2406839684861354911
4.2289173290342070288
4.2158705547673491765
4.2018326361737088348
4.1870739368580709439
4.1719024731314036103
4.1567614983292742181
4.1421757451159324503
4.1285884851945686691
4.1162947212053104806
4.1052848481090116195
4.0954428401806906024
4.0864993853908453403
6.1084887699406689165
6.0792902693184514007
6.0504280356752522252
6.0215675523873430919
5.9925650511121171249
5.9637053954611740636
5.935517453277416422
5.9084195383741304752
5.8824304584838378318
5.8571178131445007509
5.8319643361346962251
5.8067203448240221064
5.7815189929561059401
5.7566689436230920052
5.7322995260418379004
5.7081602739169969851
5.6837950494161955106
5.6589278621102296896
5.6336948324624245288
5.6085560068095432484
5.5839615703883049846
5.5600863577890402567
5.5367894190709439073
5.5137590344702367418
5.4907783258853815056
5.4678802660911314248
5.4452485280260294331
5.4230456098173913659
5.4012939447798720138
5.3798915789245764785
5.3587499156864000227
5.337870186581880283
5.3174031844589961793
10.437269807062408589
10.33709109933723802
10.238728657009746215
10.141327959437564488
10.044375344649276727
9.9487906429398140773
7.1069865622788208626
7.0699573330653846526
7.0331228925243758354
6.995974311381391253
6.9583889390522664087
6.9208332623006993956
6.8840612970306453988
6.8486232248033811487
6.8145037411325182219
6.781089784088396577
6.7477247923487810866
6.7142294283321160009
6.6809868832679182304
6.648513863468926921
6.6170085308777064625
6.5861533089614905379
6.5553995988527935523
6.5244679568847052664
6.4935930932475356414
6.4632932957967774712
6.4339866705864920959
6.4056737335279887446
6.3779548110507198189
6.3503221033841246168
6.3225317777108864803
6.294671098979939039
6.2669944932387773306
6.2396881405627802053
6.2127566048664375487
6.1861052333200889919
6.1597345754893897407
6.1338222872882228742
6.1085834065062600828
6.0841453402151319807
10.321534970179886415
10.230025913944171378
10.137790358292832593
10.045311960444237798
9.9526886215282317494
9.8610787719333465873
9.7723313537990037503
7.1865035152192406898
7.1471821494220764137
7.1065149268143175121
7.0652950885183551932
7.0253350482199570237
6.9884657083023178359
6.9554284114610291923
6.9254643858563644798
6.8968883093904880255
6.8681952595467166134
6.839026471160474685
6.8101608836730305185
6.7825506293165265248
6.7563268668870630762
6.7306436685850163926
6.7043512474257811462
6.6769147111609257195
6.6488767880586241432
6.6213263959296488892
6.5948654014060528183
6.5691006606974138293
6.5429344076071096481
6.51530117776089579
6.4859270387834380145
6.4554165322905721069
6.4248051377801163042
6.3949170891152755658
6.3660987578121774888
6.3383245161684076407
6.3115468779233632191
6.2858486547205343342
6.2612199421637457775
6.2371949351559958785
6.212825171271060043
6.1871838042142810465
0.00055479713301563159805
0.00056191385137321762412
0.00059175208217227253521
0.00063925414818436312493
0.00067332101493001669541
0.00069311554755682540895
0.00070140343631179904744
0.00070274749064262590544
0.00070082581787010613927
0.00068973054185461320567
0.00065464050136611177423
0.00014062931442839255477
0.00014008448332939810654
0.00013702572580408982697
0.00012677114601880850459
0.00011461434721663535082
0.00010553789958097798958
9.919927074722254413e-05
9.5142788267230573988e-05
9.287649770938725003e-05
9.1938249951221747845e-05
9.17580681388746811e-05
9.1835704428168198911e-05
9.2201959166978854463e-05
9.2398472701696475928e-05
9.2295015431512021642e-05
9.1352676033610251795e-05
8.7673658567958317653e-05
8.3389056772386282133e-05
8.0959169589687516688e-05
7.994873018188861384e-05
7.9687219420818345339e-05
7.962275338725606803e-05
7.9514392593326295141e-05
7.9145485109085404458e-05
7.8061621832914909335e-05
7.7027631085265093431e-05
7.6387193053984987854e-05
7.6049778297499612463e-05
7.5908235636458674619e-05
7.5830351907545188572e-05
7.5756233528441577251e-05
7.5693614199299149334e-05
7.5670009678594513255e-05
7.5707916877756700215e-05
7.604785131616979279e-05
7.7601595427810251843e-05
0.00063678844690017995071
0.00063968968112141776517
0.00063968119476807657527
0.00063710121455087570692
0.00062471674534104939137
0.00059918164481739409535
0.00057986474239339667967
0.00056835644871409637426
0.00056355291172760415414
0.00056289427319578953963
0.00056467052925182224452
0.00057560000891974146941
0.00061778864755227967578
0.00068340091199672165466
0.00073343863781004381419
0.00076597289551264750689
0.0007827760786319088197
0.00078819653079860029117
0.00078816804520822941922
0.00078344388199742679476
0.00075829574295965373586
0.00013896729774283666506
0.0001380798799119112275
0.00013381653548639722926
0.00012291925662363269688
0.00011330283442113522191
0.00010654149188443144246
0.00010222859520237406587
9.982240244841337443e-05
9.8789720683499835209e-05
9.8560678436199842937e-05
9.8624906688255599462e-05
9.9129884813738356137e-05
0.00010010113058184382288
0.00010052949306931839254
0.00010052552175398936883
0.00010000566164955738372
9.7360966468172679511e-05
9.097622447125334349e-05
8.5796605079113756305e-05
8.2397832712886035422e-05
8.0351490114961626396e-05
7.9138157618675774771e-05
7.8416625535167503954e-05
7.8016243672603152086e-05
7.7845818967889188937e-05
7.7830028405308207995e-05
7.7907729689719005541e-05
7.8313219942118276942e-05
7.8995118226050895795e-05
7.9429264856626825429e-05
7.9636295260753924051e-05
7.9735654521907194429e-05
7.9898231547590291691e-05
8.0307196395654691806e-05
8.158831335133930713e-05
8.5644403934521202634e-05
0.0006467705912459105911
0.00064993456287242175589
0.00065006619930456116963
0.0006480461920355070661
0.00063782964119349968429
0.00061741787910983244366
0.00060271776219923993076
0.00059479088801985241074
0.00059219350446913592532
0.00059234364010676615261
0.00059607500356787706045
0.00061414937085651198113
0.00067181786279383183102
0.00073777156700319214064
0.00078668579334757867891
0.00081824100388069268431
0.00083438594783618138303
0.00083944280694228819422
0.00083931790798175338365
0.00083421019066870808704
0.00080980872285163431248
0.0001359703643901832707
0.00013384736899687600404
0.00012671489343057699083
0.00011940475667691761346
0.00011477210214767935808
0.00011233063572114260155
0.00011144080810183443501
0.00011132865762866283146
0.00011156004127980551088
0.00011291196778458665836
0.0001164577149913941206
0.00011916873115785970195
0.00012035637650692216759
0.00012049131182329089794
0.00011989559055407840698
0.00011654206231626810901
0.00010870814781365631071
0.00010290456068099687256
9.9752753197027184818e-05
9.8690328375013302979e-05
9.8691961568723334843e-05
9.9710300706350803342e-05
0.00010417332972407583559
0.00010990450137718023478
0.00011341463830398755541
0.00011504632440577072913
0.00011540455890467099282
0.00011518889327295981479
0.00011348873068965962489
0.00010723256780971915738
0.000100034807794749126
9.5506577553295461907e-05
9.3318622313224799556e-05
9.273148687257061094e-05
0.00070960349422538159664
0.00070986630005807189146
0.00070770970334789202322
0.00069649674786255834705
0.00067231054431158654514
0.00065448667741086472872
0.00064471748913906134094
0.00064139950005208553035
0.0006414604296768249914
0.00064527968977454099216