/*--------------------------------*- C++ -*----------------------------------*\
  =========                 |
  \\      /  F ield         | OpenFOAM: The Open Source CFD Toolbox
   \\    /   O peration     | Website:  https://openfoam.org
    \\  /    A nd           | Version:  12
     \\/     M anipulation  |
\*---------------------------------------------------------------------------*/
FoamFile
{
    format      ascii;
    class       volScalarField;
    location    "0.0145";
    object      p_0;
}
// * * * * * * * * * * * * * * * * * * * * * * * * * * * * * * * * * * * * * //

dimensions      [1 -1 -2 0 0 0 0];

internalField   nonuniform List<scalar> 
106891
(
99493.829649351420812
99494.041654165179352
99499.309331957236282
99509.826577289859415
99525.105247842526296
99543.920334150447161
99564.521122387377545
99584.76762071037956
99602.484279121446889
99615.808734736274346
99623.289303469588049
99552.041563594946638
99558.3265623634652
99566.373361259975354
99571.885429246351123
99572.762607885611942
99569.855944479917525
99566.629655837154132
99567.446855553178466
99574.39614501480537
99585.890101660625078
99596.078292855789186
99598.230140954212402
99589.12625533186656
99571.77222328116477
99554.5391956265521
99546.508953018317698
99552.257352288273978
99569.343246097370866
99590.880784866283648
99610.34754993635579
99625.574162357050227
99638.788099598124973
99652.833539602375822
99667.374221669757389
99678.386045406004996
99681.015364768973086
99673.195855745725567
99657.836760675461846
99639.420993720865226
99623.111879405318177
99612.020956389067578
99606.711398779603769
99606.433456930404645
99609.945566463575233
99615.571379385859473
99621.274205100460676
99624.971835471238592
99626.052034771826584
99553.232717949300422
99553.894575955564505
99554.358312405980541
99553.649344336721697
99551.047721490438562
99546.430911858638865
99540.17302416882012
99533.322608393296832
99527.24141728473478
99523.541547220680513
99523.573496055265423
99528.05815155513119
99537.008574478168157
99549.826320564796333
99565.251869156651082
99581.737281685142079
99597.533535649214173
99611.012220679171151
99620.849137444922235
99625.989439640659839
99556.533657993801171
99556.587134005632834
99555.431433405421558
99553.315524078629096
99552.134389294064022
99554.699064274362172
99563.46434244523698
99578.393109356096829
99596.247797687072307
99610.678164561264566
99614.77169140742626
99606.036021655978402
99588.837378884942154
99572.004923445725581
99565.160976241735625
99572.7934176359704
99592.142746357014403
99615.628165567410178
99635.872306759672938
99650.543634814530378
99662.454591980873374
99675.334840505180182
99689.869753827500972
99702.387117297097575
99707.588359843823127
99702.433921976844431
99687.85668564774096
99668.612120305420831
99650.228325137737556
99636.323789741116343
99628.540252529201098
99626.911321514955489
99630.95166953340231
99639.428926631080685
99650.034549157702713
99659.271895739395404
99574.210729980433825
99576.54183990090678
99578.515051396680064
99579.354798178188503
99578.39947072371433
99575.313924906382454
99570.588007913742331
99565.132843375278753
99560.223871891343151
99557.196317754627671
99557.003073968240642
99560.19295075404807
99566.792937814141624
99576.121985227480764
99587.082214890207979
99598.298950216776575
99608.625487065539346
99616.94055392788141
99622.56110137628275
99624.927350862271851
99562.052538651492796
99550.718142307901871
99541.553694915681263
99537.280515537640895
99540.181419433196425
99550.934464943726198
99568.680831803270848
99590.419501719865366
99611.395697978965472
99626.131420207297197
99629.825273539609043
99621.561385246590362
99606.354060295358067
99592.931167601796915
99589.546797165414318
99599.690632666170131
99620.193527552648447
99643.729967973413295
99663.487204337157891
99677.215021255571628
99687.646478979819221
99698.45960386475781
99711.000023438245989
99723.109134695812827
99730.022407038661186
99727.821728943599737
99716.156473231545533
99698.889263942590333
99680.793344642122975
99666.165601773493108
99656.902219088180573
99654.338149539733422
99658.47216221234703
99669.103458343815873
99683.570562399603659
99697.04094758782594
99595.606104388847598
99599.386581884682528
99602.160107853356749
99603.342383328810683
99602.727626215186319
99600.369796579121612
99596.910594874323579
99593.310673870699247
99590.580910007178318
99589.559159738637391
99590.641618406560156
99593.868585947056999
99598.865312705587712
99604.744059570293757
99610.574574141777703
99615.488143240407226
99618.999566157042864
99620.799549511095393
99620.800681512453593
99552.025146069732727
99534.909019560029265
99530.065076804181444
99538.888798930900521
99558.953382900595898
99585.405591495247791
99612.166142873989884
99633.018625590222655
99643.857627147517633
99643.780144318341627
99635.074541429246892
99623.461822579745785
99616.270033907087054
99618.763060491241049
99632.215187853231328
99652.935586719904677
99674.976607834527385
99692.970893573859939
99705.237240035668947
99713.491215602611192
99721.110694016620982
99730.499411590266391
99740.968406734027667
99748.97212371234491
99750.714349315821892
99744.882690079888562
99732.244574060518062
99716.902885567353223
99702.899301351892063
99693.196081282265368
99689.70262754385476
99693.623781413509278
99704.726004861033289
99720.478397619401221
99605.081787081129733
99609.60557778031216
99614.59350607531087
99619.416317409806652
99623.280934879105189
99625.646025659909355
99626.259291559472331
99625.162390625409898
99622.78897688750294
99619.739126946427859
99616.69975130930834
99614.383066960319411
99613.098686042547342
99612.79712311689218
99613.297340177494334
99614.074407373816939
99614.670637535178685
99614.71336786262691
99614.101032412392669
99612.931997189632966
99566.274113585517625
99542.837954835427809
99538.56339142973593
99553.582680451014312
99582.052306406956632
99615.132279459910933
99644.206536054654862
99662.124975161976181
99666.283826026046881
99659.176623352250317
99647.794880004410516
99639.206477716696099
99638.878385811200133
99648.297360064781969
99665.557407064217841
99686.69209911354119
99706.905914886388928
99722.879404257953865
99733.213658031832892
99739.030427663499722
99743.44613922679855
99749.467529536792426
99758.177871794294333
99767.867026617444935
99774.753476806523395
99775.433075265900698
99768.836692813536501
99757.596349470826681
99745.371884178326582
99736.059401209073258
99732.312757227366092
99735.546453431787086
99745.336925672760117
99619.509023219347
99625.026670854451368
99631.219013958470896
99637.371481589259929
99642.580802849159227
99645.984517457502079
99646.954550752285286
99645.350600413046777
99641.378341066287248
99635.625754799490096
99629.053180637856713
99622.491710746733588
99616.529268616926856
99611.622817851457512
99607.965889551240252
99605.46025742214988
99603.826835111540277
99602.777458528449642
99602.246358446762315
99572.219584257240058
99569.358596061574644
99588.641952347563347
99622.178595330056851
99658.19794419403479
99685.647314676869428
99697.936287676493521
99694.505072589483461
99680.455997748096706
99664.857411885313923
99656.503207083325833
99659.821712349192239
99673.98350956417562
99694.679458037877339
99716.783174281648826
99736.336396545695607
99751.223367909959052
99760.486308102525072
99764.829859096324071
99767.148608634059201
99771.059230992483208
99779.221921991455019
99790.89152611947793
99802.06305700604571
99808.27620168228168
99807.671253200343926
99800.458088073384715
99790.437568950510467
99781.944712257289211
99778.039358195179375
99779.889221982157324
99786.103429107082775
99626.317719809856499
99631.128329737839522
99637.551209107157774
99644.8093328433024
99651.84268230581074
99657.355647449061507
99660.155731956721866
99659.380485299843713
99654.806212869341834
99646.799422272262746
99636.359330969629809
99624.827518147751107
99613.60135869642545
99603.93154622874863
99596.621469084187993
99591.971851209178567
99589.879367830217234
99589.90810812417476
99591.621522176952567
99625.857064023410203
99646.422292245712015
99679.079228328118916
99711.813847446464933
99733.803958130098181
99739.553016431353171
99729.718334700635751
99710.661967110849218
99691.444861476091319
99680.574006923823617
99682.326936680721701
99696.016334383981302
99716.60172093793517
99739.111973275299533
99759.395612226857338
99775.023471374268411
99785.159691970140557
99790.45649917278206
99793.565263548254734
99798.347889598750044
99807.247898566332879
99820.056586539561977
99833.624085725125042
99843.078015203092946
99845.140491784317419
99840.335217882355209
99831.952080583636416
99824.230429227318382
99819.93717090843711
99819.006548239616677
99633.249250294276862
99638.143637890389073
99645.05100054864306
99652.801708236307604
99659.844525765234721
99664.48088472316158
99665.280825989189907
99661.425879400063423
99652.957852089617518
99640.656005715049105
99626.097723206708906
99611.125319381040754
99597.617699851543875
99587.114373952761525
99580.584804029989755
99578.157605503729428
99579.488735505510704
99583.849625431394088
99722.843120687684859
99748.449621695675887
99771.67851797316689
99785.25552504848747
99785.763676649396075
99773.198946470714873
99752.454985125295934
99730.634886482075672
99714.803075186748174
99710.081725471332902
99717.770447069095098
99734.501483802450821
99755.063260219962103
99775.244895983283641
99792.464995595626533
99805.738004681523307
99815.444832796842093
99823.579379945163964
99832.678919997779303
99843.964038185265963
99857.177474144467851
99869.554872970547876
99877.334464583007502
99878.09024911931192
99872.737042366919923
99864.111735005542869
99855.89959439157974
99849.378970448015025
99633.459614671330201
99635.981233514539781
99641.410259859738289
99648.983468855905812
99657.18268777996127
99664.064771695411764
99667.631539613284986
99666.451653501106193
99659.923863545249333
99648.487482130571152
99633.475768059841357
99616.927300629031379
99601.086700139247114
99587.956455810912303
99579.203334065387025
99575.572752060412313
99577.149767069757218
99583.18191003188258
99819.02472178118478
99831.886511041186168
99838.315848164318595
99836.385984584485414
99825.468841525216703
99806.912404630362289
99784.593270153185586
99764.271031512296759
99751.770088588542421
99749.389215909977793
99757.186183095938759
99771.309400427693618
99788.020289652107749
99805.43378078720707
99822.726498135176371
99839.561479191339458
99855.838289438077481
99871.785543295030948
99886.525982835053583
99898.542452025489183
99906.306843639831641
99908.132901651028078
99903.696864050129079
99894.449123606871581
99883.185823410371086
99872.356111558765406
99862.61979332131159
99634.767871092728456
99639.780736556465854
99647.843666011583991
99657.496977630085894
99666.695000512423576
99673.219113073224435
99675.286691659741336
99671.95215466467198
99663.142300568375504
99649.902153734030435
99634.03410583200457
99617.710812909514061
99603.29499291452521
99592.749259765987517
99587.475925783379353
99587.977018008488812
99594.032773789003841
99869.202911477652378
99877.370407768408768
99886.064967915546731
99891.926483067742083
99891.603338152286597
99884.027558167697862
99869.303566187765682
99850.074766867313883
99830.056031246276689
99812.531264761986677
99800.256502634496428
99794.76724723863299
99796.751318329901551
99806.118046468152897
99821.626670111858402
99841.74988409501384
99864.738366555902758
99888.020670247235103
99908.709426416389761
99925.070414315327071
99935.299270146031631
99937.878399968016311
99932.912181671825238
99921.965980155378929
99907.463054245701642
99892.146964852727251
99877.993809201710974
99647.944731128634885
99657.801718724163948
99668.880537285571336
99679.352830732881557
99687.291922159754904
99691.102432034269441
99689.817156450168113
99683.386664160221699
99672.526968045713147
99658.707481378864031
99643.939641002070857
99630.290281957975822
99619.696522438098327
99613.719643076517968
99613.236312717184774
99618.309289111755788
99901.37051506775606
99911.752908617432695
99924.872442154141027
99935.391191504939343
99938.809140655270312
99933.699521567003103
99922.069731440904434
99907.907698598704883
99893.934954935975838
99879.719291684334166
99864.837716435024049
99851.07293607723841
99842.223668141683447
99842.198964754847111
99851.838560741365654
99869.189850184659008
99890.638891214490286
99912.443870821094606
99931.667221903742757
99946.882232190386276
99956.377716388335102
99958.251851980327046
99952.158304911587038
99939.224038885862683
99921.86283886556339
99903.386491199169541
99886.246525875292718
99871.736746686437982
99677.378934903739719
99689.490650075182202
99699.825662358940463
99706.916477390492219
99709.704904998972779
99707.853516685208888
99701.634856654112809
99691.969659509719349
99680.185823653941043
99667.910387984316912
99656.689069668544107
99648.089778159672278
99643.22308959372458
99642.736975952648208
99646.677818642361672
99932.018524900602642
99951.158757927783881
99966.468197740861797
99972.424155531349243
99968.818517250037985
99960.361748585070018
99951.891920292226132
99944.767246345683816
99936.570842110566446
99924.629099194775335
99908.651318234173232
99894.731620130056399
99887.807891404721886
99890.464854592719348
99901.092213086929405
99915.72482331401261
99930.972487373815966
99945.103708040202036
99957.451890727534192
99966.498146101119346
99970.039153754463769
99966.305580545114935
99955.048630773642799
99937.971403332601767
99918.369009233123506
99899.377201291979873
99883.367407989731873
99709.721545809909003
99719.323115586536005
99724.823020212730626
99725.809506428457098
99722.552473670963082
99715.793265557163977
99706.699204703749274
99696.595122428654577
99686.727109309489606
99678.190934059035499
99671.947554854137707
99668.541157132654916
99668.297737134300405
99671.184686594060622
99971.927768258974538
99990.138672586064786
99997.129251109276083
99994.685902714772965
99989.507654577450012
99987.115438525113859
99987.822582843364216
99987.272293432703009
99981.115554469448398
99968.449893626835546
99953.405552137788618
99942.715765779954381
99938.364434487943072
99939.72516859647294
99943.917041202221299
99948.948957359287306
99955.047336970004835
99962.780232616452849
99971.117571776441764
99977.352530364791164
99977.889844630582957
99970.668340311240172
99956.394839055079501
99937.952931489184266
99918.796143096347805
99902.400679377737106
99737.496382053388515
99741.224947969792993
99740.308377818117151
99735.511017832148355
99728.12321040473762
99719.53340792383824
99711.02059557652683
99703.544746124927769
99697.723163875401951
99693.808845240666415
99691.9027297898283
99691.81667623067915
99693.450878934570937
100005.96504718702636
100012.7526345813676
100011.73174836180988
100010.39673233866051
100014.10782068777189
100022.0276419564907
100028.98702849625261
100029.57307637314079
100023.1843542526185
100011.45953849505167
99999.401706796124927
99990.085555078403559
99982.718340701947454
99975.938556319539202
99969.74767875931866
99966.522663624768029
99968.264289746759459
99974.64148408616893
99982.610402972568409
99987.426520950626582
99985.331015769537771
99975.564804277455551
99960.090176071505994
99942.472571435311693
99927.091519302688539
99755.266502996732015
99752.942099247215083
99747.18314575839031
99739.533742634797818
99731.60227582056541
99724.615318681448116
99719.224126044879085
99715.630830247027916
99713.555359047080856
99712.63924308285641
99712.338171164286905
99712.46767892272328
100020.90342378815694
100021.89414366026176
100024.85734046489233
100033.93414960782684
100047.54642140139185
100060.58114967761503
100067.69763879968377
100067.37188353137753
100061.27832109882729
100050.70747790075256
100038.79242746518867
100025.81131868230295
100010.87054700996669
99995.425310903883656
99983.304108933894895
99977.847357246471802
99980.323498109341017
99988.018231894078781
99995.502567317336798
99997.817570696090115
99992.949548105927533
99981.579036516530323
99967.028680857431027
99954.028347081170068
100027.77847769009531
100034.44910126562172
100047.22467253389186
100064.76595167233609
100081.99167100872728
100094.45593472609471
100099.18503838778997
100097.49430512760591
100091.04988740822591
100079.89967812527902
100064.36999049181759
100045.60091288136027
100024.85709025916003
100005.8532102763711
99993.631694887619233
99990.698727394395974
99995.317966187838465
100002.65887932156329
100007.43375007137365
100006.29330140062666
99999.188488545405562
99988.981110972890747
99979.82418397514266
100054.30296332166472
100073.58515621795959
100093.88322717514529
100109.7304114675062
100118.5128530679649
100119.94746732569183
100116.35893543191196
100108.89528584413347
100096.37142382300226
100077.7088578173134
100055.06532451350358
100032.45333784837567
100014.88896304255468
100006.04224772444286
100005.87207349709934
100010.44644331156451
100015.03597199328942
100015.72369358301512
100011.92195386366802
100005.94681772174954
100001.43081316557073
100125.91390536965628
100129.67117619985947
100128.42077632734436
100124.46321773398085
100116.90795636996336
100103.42836616693239
100083.43912976534921
100059.90353669540491
100038.89420989177597
100025.1346045674145
100019.68652178552293
100020.05481780179252
100022.01218713866547
100022.29604419188399
100020.10511979232251
100017.39369323002757
100016.94756034271268
100126.16434069929528
100119.06009582629486
100104.72287284978665
100084.51187601944548
100063.12770035097492
100046.13761967954633
100036.10668842513405
100031.79151164196082
100029.81187464427785
100027.687403187374
100025.10998687542451
100023.82318921881961
100025.95004640244588
100124.91448422374378
100117.24900253904343
100102.40156800889235
100083.78824947912653
100066.5810243756714
100053.66693638496508
100045.1895697289001
100038.88946402800502
100033.16892292979173
100028.30207457685901
100026.29236058733659
100028.93952320353128
99869.177700217565871
99867.458169140314567
99877.499816057606949
99888.913347228546627
99893.859707788331434
99892.319915844433126
99891.078749079242698
99897.16141778221936
99911.270114991420996
99928.412263941456331
99942.524656469846377
99950.930487865829491
99955.523436589443008
99961.068244500216679
99972.292151871806709
99991.664785085915355
100018.44301402159908
100047.04980442368833
100070.20637165763765
100081.30330847452569
99895.166654994114651
99872.913713486763299
99868.040660018974449
99876.638376473783865
99887.364507408667123
99890.705112045514397
99886.181463050757884
99881.516132739983732
99885.384237718681106
99899.34410581618431
99917.291851382819004
99931.7052091807127
99939.26282734250708
99942.911981546785682
99949.384618652897188
99964.317557723261416
99988.950186797970673
100020.21663982939208
100050.68233627885638
100073.10017542251444
100082.82013408235798
100080.36442728679685
99968.103568228092627
99938.849515161971794
99902.584849549413775
99876.071478964018752
99868.468530322075821
99875.810241868355661
99885.73906755297503
99887.602429928942001
99880.353638499247609
99872.561568853925564
99874.398789851955371
99888.366330884484341
99907.383536559093045
99922.293502635948244
99929.141849672698299
99931.903274863012484
99939.148061378087732
99957.414193133954541
99986.955046494491398
100022.13043480017222
100054.14951192995068
100075.60025592973398
100083.86053353078023
100081.14352375248563
100072.21298751281574
100062.51949261513073
99989.246325438769418
99979.333994798871572
99948.324038083155756
99908.846637912793085
99878.698032937536482
99868.686206246187794
99875.517057680248399
99885.311412792143528
99885.610163271121564
99875.605855006520869
99864.729241553533939
99864.626859892407083
99878.639430033654207
99898.911065220556338
99914.424828857649118
99920.671673409073264
99922.50950908746745
99930.304844646860147
99951.509241845007637
99985.460805335300392
100024.10776936613547
100057.3324485909543
100077.79812072437198
100084.63841027978924
100081.67108101012127
100073.51447706401814
100064.32582850202743
100057.10023493906192
99984.325534658157267
99998.533616631757468
99989.033741717066732
99956.456813060038257
99913.841489515602007
99880.32081771765661
99868.350286543136463
99874.970836594206048
99884.771815917541971
99883.776761282133521
99870.968681593527435
99857.431772821772029
99855.938737887539901
99870.256811619765358
99891.915019206004217
99908.17087375925621
99913.824129489919869
99914.723169204225997
99922.843593881465495
99946.561506033074693
99984.412116466832231
100026.22610188776162
100060.37965521367732
100079.88214323886496
100085.35438901845191
100081.99845505694975
100074.65111321558652
100065.9343375377648
100057.79955881895148
100053.26243560049625
99961.914008687948808
99989.660758989848546
100006.26721042417921
99997.446018422240741
99962.9381790561456
99917.470452691661194
99881.178986061262549
99867.959181475511286
99874.762788769075996
99885.042566719319439
99883.073015820307774
99867.742492550081806
99851.723296962853055
99848.86719897382136
99863.496392040746287
99886.475738151944824
99903.456750067867688
99908.407825318776304
99908.348624588557868
99916.58674200923997
99942.45705296783126
99983.683424167247722
100028.29969753419573
100063.21111270782421
100081.79628449511074
100086.03750434429094
100082.29200731441961
100075.64532734469685
100067.46361230051843
100058.46876904949022
100051.93143227612018
100054.24641726448317
99963.541924792894861
99994.101255101457355
100012.33114208024926
100004.33155252604047
99968.167814483123948
99919.945415275302366
99881.550109592368244
99867.405838195758406
99874.669666630215943
99885.304401403001975
99882.809362767598941
99865.491108266403899
99846.869496557861567
99842.870148771457025
99858.172917253657943
99882.501929164558533
99900.197781128998031
99904.538781409384683
99903.50896661846491
99911.774063678560196
99939.317592272651382
99983.282292081887135
100030.20725345343817
100065.73366217083822
100083.49238644170691
100086.65152649964148
100082.56843603486777
100076.38713813024515
100068.7112634346413
100058.93191617938282
100050.57595455212868
100051.33450633070606
100068.52651727516786
99747.402693798867404
99763.166114985229797
99773.306182943357271
99769.464111329027219
99747.895035955036292
99722.543334101443179
99964.545454490726115
99997.211142627085792
100016.71271597596933
100008.77588970317447
99971.623457789362874
99921.437670132072526
99881.506443386300816
99866.838267405255465
99874.645175694153295
99885.805078679783037
99882.835261184111005
99863.897464068882982
99843.655568648362532
99838.85106713049754
99854.618421684033819
99880.019859947933583
99898.216693748196121
99902.021563820089796
99900.081451173216919
99908.371023094543489
99937.083343749225605
99983.05998288509727
100031.66393409456941
100067.59942534656147
100084.75675093714381
100087.13084689622337
100082.76205737009877
100076.93277002307877
100069.66289643607161
100059.42271236657689
100049.52395845505816
100049.14780043513747
100066.29121561636566
100100.62740775884595
99723.059972966104397
99749.495917366701178
99765.37829232106742
99775.368885660922388
99770.522326779959258
99747.206633555746521
99721.090249955886975
99965.151556327808066
99998.84000224560441
100019.50710921484279
100011.04060723276052
99973.369999718444888
99922.030648476895294
99881.278298547491431
99866.491725396670518
99874.6812859550555
99886.217890916683245
99882.818835818718071
99863.012447000481188
99841.9259536202444
99836.804140265056049
99852.82956862350693
99878.879453768735402
99897.336061975467601
99900.819568877093843
99898.35912952045328
99906.668732708058087
99935.965722180262674
99983.060219337930903
100032.58808932485408
100068.72095483142766
100085.50955877781962
100087.4158834770933
100082.8761197906133
100077.24287958345667
100070.10216905428388
100059.59508095042838
100048.93775574158644
100047.846860275371
100065.0453436934331
100100.19786897179438
100140.39789643243421
99484.115835144591983
99464.965998835628852
99446.568094942034804
99431.058916116380715
99420.439483658730751
99416.212982459823252
99419.231162422744092
99429.396045558198239
99445.740177062238217
99466.61864220930147
99489.600303154162248
99419.395427881056094
99417.699642112231231
99415.420954758956213
99416.133384709071834
99421.645113305727136
99430.093424959501135
99438.508685090884683
99446.086295613291441
99453.780098025556072
99463.262889893056126
99473.477282521183952
99482.876490812923294
99489.08883511237218
99493.065771915658843
99497.093575880440767
99503.623056513184565
99511.857151378382696
99517.505551464855671
99515.195040822727606
99503.176354098832235
99485.271912060503382
99469.931161537722801
99466.44290606204595
99479.664525024360046
99507.154531335108913
99540.601321103589726
99569.897954600688536
99587.597808260019519
99590.3682894383237
99580.102289774338715
99562.072712244276772
99543.399032910470851
99529.952881676203106
99525.523884815789643
99530.774761452441453
99542.684588514210191
99515.916338048424223
99521.448954316423624
99527.962002057684003
99534.654785998907755
99540.424536887570866
99544.079371793326573
99544.355358685090323
99540.277966299923719
99531.375379718490876
99517.841386191765196
99500.670874981340603
99481.70339701246121
99463.248661163204815
99447.841376340089482
99437.764511295608827
99434.714897123369155
99439.537494095915463
99452.006739283940988
99470.83714090079593
99493.97701851738384
99518.60111152054742
99400.076084666070528
99406.41671168305038
99418.296107812711853
99436.081956430673017
99456.477722887721029
99473.649561756159528
99483.726639999440522
99486.979840486921603
99487.029025172407273
99488.371932982394355
99492.532443360731122
99497.90695429884363
99501.540728000050876
99502.538150507942191
99503.417113949253689
99507.307324613168021
99514.950771213465487
99523.81407845216745
99529.06450335077534
99527.598450567849795
99520.688003897390445
99513.525409606954781
99512.491594061357318
99521.92067288699036
99541.579048891479033
99566.557635439472506
99589.475428252044367
99603.759182508802041
99605.748760872127605
99596.260700953411288
99579.618498881420237
99562.411025936467922
99550.752735260670306
99548.636787966344855
99556.386069668951677
99570.443068419204792
99523.583251891774125
99527.266246190512902
99532.625061797123635
99538.978850072220666
99545.342863274097908
99550.375916794364457
99552.635980539722368
99550.859638879279373
99544.326454471549368
99533.035896101297112
99517.92997430957621
99500.706039455166319
99483.770370577811264
99469.766922209193581
99461.112997995180194
99459.57087190799939
99465.88399923632096
99479.719644069176866
99499.617733363367734
99523.320941375364782
99547.880862138277735
99411.772666044853395
99438.509665722041973
99471.82502920726256
99503.407656884432072
99525.873840470667346
99534.978299753143801
99531.792941228908603
99522.851503855548799
99515.177245836588554
99512.555846233837656
99513.715216977041564
99515.329897780713509
99514.7975858215068
99513.902654926030664
99515.915100904545397
99523.391210181100178
99535.662768897745991
99549.024590764587629
99559.253955411113566
99564.117376102236449
99564.487091829112615
99563.706501197317266
99565.756022426532581
99573.36056537560944
99586.142581832245924
99600.362994579307269
99610.62706887855893
99612.945653209608281
99606.024455802253215
99593.051074404429528
99579.497659775719512
99571.286239073306206
99572.09611421196314
99582.055900239181938
99530.104023714229697
99533.527467293402879
99538.855889298414695
99545.180269942255109
99551.153473908460001
99555.27695114382368
99556.240569270492415
99553.169486855549621
99545.821371690923115
99534.708308080851566
99521.300362207111903
99507.778128623060184
99496.637638124506338
99490.200454632999026
99490.08124732603028
99497.036046193097718
99510.745152062008856
99529.86832735396456
99552.211013450869359
99574.977550444105873
99439.798450055721332
99477.288178799397429
99519.497942234025686
99556.031647781201173
99578.368356928869616
99582.663155130590894
99572.091140436416026
99555.123811001947615
99540.476368413728778
99532.704965556549723
99531.184669139518519
99532.361874388414435
99532.689700234666816
99532.243682780230301
99534.162378912471468
99541.715738561062608
99556.064039755496196
99575.057825409749057
99594.031281541698263
99607.984316303598462
99613.992326433464768
99612.529705666049267
99607.303265927024768
99603.327657853107667
99604.01376486303343
99609.176457560592098
99615.252935208263807
99617.630739235901274
99614.056169537725509
99605.701220867369557
99596.791610861837398
99592.452246555796592
99595.989186742008314
99607.016476904638694
99531.782608611698379
99532.618695968747488
99535.790468003993738
99540.649863763188478
99546.253303552788566
99551.462076809708378
99555.00846919225296
99555.789887460137834
99553.286232697806554
99547.71476403788256
99540.008340256448719
99531.724330318917055
99524.875167293910636
99521.306201234241598
99522.535548176645534
99529.315374502722989
99541.554607750440482
99558.210834558689385
99577.479201360547449
99597.015506118084886
99530.38582402539032
99572.325513240444707
99604.385725074316724
99619.849936051803525
99617.879724274927867
99602.773513434469351
99582.447704585647443
99564.950013706664322
99554.98347671762167
99552.448822277103318
99554.581296894844854
99557.840045499629923
99560.400128231922281
99564.364998155404464
99572.08194085759169
99585.70438178195036
99604.932244861105573
99626.248099398231716
99644.314989057224011
99653.964036576275248
99653.231937442789786
99644.671051286364673
99633.633104771739454
99625.844595711154398
99623.94322582364839
99625.866497722148779
99627.646056366735138
99626.197286950511625
99621.681244223131216
99616.998566588081303
99615.690365616581403
99620.312749130549491
99533.023046022615745
99532.556675315950997
99534.34262980351923
99538.034057402488543
99542.833124970784411
99547.682378918208997
99551.591198003821773
99553.842792738374555
99554.114958981386735
99552.695012908792705
99550.450632166670403
99548.58559244137723
99548.49495722015854
99551.408295175948297