/*--------------------------------*- C++ -*----------------------------------*\
  =========                 |
  \\      /  F ield         | OpenFOAM: The Open Source CFD Toolbox
   \\    /   O peration     | Website:  https://openfoam.org
    \\  /    A nd           | Version:  12
     \\/     M anipulation  |
\*---------------------------------------------------------------------------*/
FoamFile
{
    format      ascii;
    class       volScalarField;
    location    "0.0145";
    object      pMean;
}
// * * * * * * * * * * * * * * * * * * * * * * * * * * * * * * * * * * * * * //

dimensions      [1 -1 -2 0 0 0 0];

internalField   nonuniform List<scalar> 
106891
(
99610.647621557771345
99610.874681309011066
99611.127285336042405
99611.405782425659709
99611.710667748688138
99612.042385283857584
99612.401672172316466
99612.789110701225582
99613.205145721061854
99613.648671567672864
99614.113837681317818
99666.645134819103987
99666.446246871564654
99666.24644172785338
99666.04606130393222
99665.845867074312991
99665.646694506605854
99665.449126871128101
99665.252979433251312
99665.057275979794213
99664.86088873159315
99664.663307419483317
99664.465392547659576
99664.268949577395688
99664.075832239701413
99663.887002935967757
99663.70154068894044
99663.517246716743102
99663.33174371367204
99663.143467197616701
99662.952216081772349
99662.758751384622883
99662.563629170384957
99662.366750137443887
99662.167692619943409
99661.966522204165813
99661.764231697539799
99661.562460561297485
99661.362778776951018
99661.16592365221004
99660.971751432618476
99660.779335695668124
99660.587723573727999
99660.396082151433802
99660.203817349771271
99660.010560165042989
99659.81631960865343
99659.621424911631038
99659.426397833318333
99612.311784133402398
99612.396034385805251
99612.497800332101178
99612.618054329403094
99612.757831763869035
99612.918199480627663
99613.100153948165826
99613.304631754886941
99613.5323877260671
99613.784024122243864
99614.060013178503141
99614.360777016510838
99614.686668990645558
99615.038215262495214
99615.415942937775981
99615.820574416153249
99616.25270380199072
99616.712556560625671
99617.19890708035382
99617.705327235700679
99666.473949271690799
99666.273964589548996
99666.074913586038747
99665.877070680813631
99665.680590192219825
99665.485293020785321
99665.29052398026397
99665.095175668990123
99664.898148854685132
99664.699256437641452
99664.499935624466161
99664.302316049492219
99664.108400568991783
99663.91884207984549
99663.732549836073304
99663.547181570364046
99663.360390908099362
99663.170688098340179
99662.97801119502401
99662.783113364304882
99662.586600552473101
99662.388417027337709
99662.188114928110735
99661.985494640102843
99661.7811608149932
99661.576625262707239
99661.37377881698194
99661.173861695890082
99660.977039982317365
99660.782657565403497
99660.58973319742654
99660.397244512103498
99660.204349313411512
99660.010360139975091
99659.814870051457547
99659.618037353749969
99615.024868837193935
99615.158120208085165
99615.30876697509666
99615.477704419667134
99615.665899382729549
99615.874307091507944
99616.103863586773514
99616.355426068708766
99616.629702042700956
99616.927298759765108
99617.248632706250646
99617.594066332661896
99617.963892915620818
99618.358574221289018
99618.778594555391464
99619.224704661944997
99619.697480480288505
99620.197400955745252
99620.723540075719939
99621.270788986279513
99666.51261716974841
99666.312680803835974
99666.115211250944412
99665.919940133564523
99665.725996535431477
99665.532264289373416
99665.337634990806691
99665.141163056992809
99664.94236404800904
99664.741641854925547
99664.540549793702667
99664.341149881685851
99664.145356288194307
99663.953904778463766
99663.765794727689354
99663.578612760902615
99663.389911362610292
99663.198402545633144
99663.00406996019592
99662.807676445809193
99662.610086840053555
99662.41142468455655
99662.211094823622261
99662.008573372935643
99661.804113088743179
99661.598752053760109
99661.394092067755992
99661.191641922196141
99660.991855853004381
99660.794595643223147
99660.599192030349514
99660.404696381214308
99660.21011664812977
99660.014497430587653
99659.817007058212766
99659.617482470639516
99617.946672140329611
99618.143260238532093
99618.357804747109185
99618.59114367046277
99618.844129868812161
99619.117617302923463
99619.412371220241766
99619.729062491402146
99620.068265707493993
99620.43049683602294
99620.816198093889398
99621.225777992876829
99621.659589061542647
99622.118125398934353
99622.601681189917144
99623.110821564929211
99623.645041646785103
99624.203784706827719
99624.78045131804538
99666.344414732200676
99666.148190544670797
99665.95493277523201
99665.762575006563566
99665.569113734105485
99665.37325314701593
99665.174497218162287
99664.973284291176242
99664.77107848248852
99664.569768460831256
99664.371137947586249
99664.176156485889805
99663.984827796986792
99663.795842945037293
99663.607000311953016
99663.41637254053785
99663.222949062037515
99663.026732872589491
99662.828547010503826
99662.629304600981413
99662.42920996157045
99662.227828592294827
99662.024805331442622
99661.82002025921247
99661.613888407562627
99661.407702202210203
99661.202845758860349
99661.000157357950229
99660.799734101718059
99660.601231876920792
99660.403936360904481
99660.206836491503054
99660.008890775148757
99659.809117412834894
99620.521135941482498
99620.743999887388782
99620.983859159387066
99621.241259724047268
99621.51681700264453
99621.811234627719386
99622.125258242813288
99622.459661745509948
99622.815139646932948
99623.19234572869027
99623.591870114163612
99624.014219940683688
99624.459882006558473
99624.929218026896706
99625.422782346271561
99625.940814554473036
99626.483981442026561
99627.051562583306804
99627.643400845918222
99628.252997717121616
99666.376149475283455
99666.180040950610419
99665.987678481178591
99665.795603581034811
99665.601105507681496
99665.402772851331974
99665.200755463418318
99664.99646164115984
99664.792145133716986
99664.590029185841559
99664.391593408741755
99664.197022322085104
99664.005316756258253
99663.814745485346066
99663.623554976627929
99663.430419789321604
99663.234810679670773
99663.03691671458364
99662.837588829977904
99662.637637757550692
99662.437204203670262
99662.236051633415627
99662.03368559073715
99661.829626738661318
99661.623804564762395
99661.416930934603442
99661.210300030797953
99661.005069784339867
99660.80183277928154
99660.600402198979282
99660.400012470519869
99660.199609655392123
99659.998233073027222
99623.547887511798763
99623.827977995402762
99624.124952250873321
99624.439279074955266
99624.771575540100457
99625.122510700341081
99625.492847162866383
99625.883364669745788
99626.294799725539633
99626.727784360700753
99627.18292078540253
99627.660760379105341
99628.161807113108807
99628.686468073108699
99629.2350647286803
99629.807763878721744
99630.404293753468664
99631.023587522242451
99631.660795421223156
99666.220449654007098
99666.02607253351016
99665.831644893580233
99665.634019420846016
99665.431633765052538
99665.225227004048065
99665.017249261814868
99664.810675015527522
99664.608056784112705
99664.410539950855309
99664.217499869715539
99664.026937131711747
99663.836694335477659
99663.645120390501688
99663.451184227771591
99663.254614648220013
99663.055703201243887
99662.855213186747278
99662.65408125644899
99662.453064330184134
99662.252103571983753
99662.050404626264935
99661.846878864293103
99661.640988612256479
99661.433098345994949
99661.224265281867702
99661.015787077340065
99660.808611888322048
99660.60301749498467
99660.398675907155848
99660.194812855799682
99659.990647632075706
99626.336004631331889
99626.653564362364705
99626.987537148612319
99627.33803454459121
99627.705391841940582
99628.09015787577664
99628.493056255363626
99628.914957909219083
99629.356781248905463
99629.81939009524649
99630.303546921059024
99630.809850301433471
99631.338758144178428
99631.890519784195931
99632.465262369674747
99633.062907167390222
99633.682902530112187
99634.323871820888598
99634.981026095629204
99666.069293045962695
99665.869977356313029
99665.667564742398099
99665.461110349628143
99665.251565481172292
99665.041355424342328
99664.833316865799134
99664.629761249569128
99664.431610459912918
99664.238205573215964
99664.047415334163816
99663.85667745070532
99663.664236678057932
99663.469341092088143
99663.271914083888987
99663.072389384615235
99662.871612205111887
99662.670325716011575
99662.468935808312381
99662.267307932910626
99662.064934329901007
99661.860947647684952
99661.654722519713687
99661.446388227006537
99661.236637751411763
99661.026781434789882
99660.817888523248257
99660.61031254658883
99660.403848031506641
99660.198024608500418
99629.454583081125747
99629.822312459378736
99630.206060554613941
99630.605917963432148
99631.022142358749988
99631.45520615123678
99631.905822878485196
99632.374906566532445
99632.863465696471394
99633.372492387206876
99633.902871799116838
99634.455172260859399
99635.029742394151981
99635.626469596594688
99636.245232507164474
99636.884981842522393
99637.544779763673432
99638.219825238411431
99665.905064333695918
99665.69545091263717
99665.482702750567114
99665.268137974184356
99665.054063628282165
99664.842999576620059
99664.636888406981598
99664.436421884980518
99664.241194112197263
99664.049443501848145
99663.85907121024502
99663.668052559980424
99663.475303268947755
99663.280523023204296
99663.083667842278373
99662.884980687114876
99662.684856772320927
99662.483595318582957
99662.281316728811362
99662.077613074317924
99661.871949311112985
99661.664099313289626
99661.45420379920688
99661.243153518851614
99661.032115494424943
99660.822024469773169
99660.613322308883653
99660.405893861301593
99632.206811663854751
99632.605432189448038
99633.019319036975503
99633.448442220193101
99633.893021291383775
99634.353496046169312
99634.830466326180613
99635.324734281224664
99635.837240908222157
99636.368927608506056
99636.920696668617893
99637.493172308619251
99638.086806254461408
99638.701465072837891
99639.337061588041252
99639.992361725613591
99640.666338227689266
99641.354032291535987
99665.738233326715999
99665.521869721298572
99665.305080137841287
99665.089327084904653
99664.876273851914448
99664.667336605489254
99664.463654392398894
99664.265192474835203
99664.071121177243185
99663.879512245752267
99663.688429443180212
99663.496468917815946
99663.302827376581263
99663.107161891501164
99662.909297248435905
99662.709376075916225
99662.507413768020342
99662.303359823607025
99662.097104369880981
99661.888643799204146
99661.678324476451962
99661.46711015389883
99661.25599705602508
99661.045880343721365
99660.837385586783057
99660.630592512636213
99660.42536409656168
99635.332224135141587
99635.773623488013982
99636.229439728675061
99636.699563169488101
99637.184196384259849
99637.683899588257191
99638.199441019722144
99638.731800826164545
99639.282066332307295
99639.85126355518878
99640.440143588348292
99641.049176400658325
99641.678357628901722
99642.327515701341326
99642.995583329437068
99643.681467714355676
99644.380993363476591
99665.994972351691104
99665.776211171207251
99665.55733364263142
99665.338466280532884
99665.120350925048115
99664.904098979983246
99664.690874823456397
99664.481590804221923
99664.276808761773282
99664.076437663461547
99663.879917125144857
99663.686249938342371
99663.49426286907692
99663.302646934243967
99663.110290771510336
99662.915992617185111
99662.718679044075543
99662.517751547653461
99662.313287636206951
99662.106078533892287
99661.897050259052776
99661.686878906490165
99661.476284461401519
99661.266268886683974
99661.057740234449739
99660.851101795429713
99660.646582009605481
99638.434062364292913
99638.912422056208015
99639.404216083770734
99639.909624847015948
99640.429098043881822
99640.963306049146922
99641.513087311628624
99642.079322405494167
99642.662881157171796
99643.264389672985999
99643.884399372342159
99644.52286095317686
99645.179665182688041
99645.853621571906842
99646.543882924786885
99647.246513322825194
99666.053255065751728
99665.834625987365143
99665.61517234738858
99665.39498499041656
99665.175009940649034
99664.956875267627765
99664.741897211613832
99664.530502185880323
99664.322421323435265
99664.117472315541818
99663.915665442473255
99663.717102374313981
99663.521408087544842
99663.327603342433576
99663.1341234681895
99662.939124092881684
99662.741191823210102
99662.539862193865702
99662.335405207370059
99662.128322760705487
99661.919370470233844
99661.709367545772693
99661.499470546812518
99661.290850349905668
99661.084427566966042
99660.880729976313887
99660.67992759111803
99660.481749859420233
99641.121193520113593
99641.627512792023481
99642.146837909138412
99642.679676027852111
99643.226717209472554
99643.788782547708252
99644.366654694196768
99644.961027812736575
99645.572409163025441
99646.201127952444949
99646.847170576656936
99647.510428676585434
99648.190148377034348
99648.885546531513683
99649.593723828016664
99665.88294643163681
99665.664670873098657
99665.444718386876048
99665.224357505183434
99665.005138539534528
99664.788388344502891
99664.574396380543476
99664.362703713544761
99664.153158065935713
99663.946207311804756
99663.742555226315744
99663.542523196767434
99663.345435060968157
99663.149752470824751
99662.953639412298799
99662.755680327492882
99662.555486315235612
99662.35305002318637
99662.148426065861713
99661.942021933820797
99661.734522140774061
99661.526789139868924
99661.319999670231482
99661.115164570670458
99660.913104736624518
99660.713968131836737
99660.517421147538698
99643.376817778233089
99643.905777552907239
99644.447853263001889
99645.003797787736403
99645.57435806535068
99646.16018092748709
99646.761773899183027
99647.379473833192606
99648.013396997295786
99648.663499593210872
99649.32951452684938
99650.010909377029748
99650.706764041198767
99651.414795540826162
99665.725790338794468
99665.50576473394176
99665.28536747477483
99665.0666382645868
99664.85049260139931
99664.63634411431849
99664.42313950767857
99664.210509690310573
99663.99918830920069
99663.790275627776282
99663.584666967464727
99663.382159615881392
99663.181848209715099
99662.982528416978312
99662.783237987416214
99662.583530049741967
99662.38317443834967
99662.181727474395302
99661.978804763988592
99661.774467358831316
99661.56941709748935
99661.364689652837114
99661.161365220017615
99660.96024755689723
99660.761847285553813
99660.56619880386279
99645.480770948488498
99646.029911371340859
99646.592486803929205
99647.169266869270359
99647.760832379688509
99648.367598551063566
99648.98968587021227
99649.627101875012158
99650.279598850247567
99650.947052482777508
99651.628793532363488
99652.324419351498364
99653.031681280801422
99665.554626669603749
99665.335608018925996
99665.117906944113201
99664.9021109767491
99664.687512182659702
99664.472884742339374
99664.257718094813754
99664.042699265613919
99663.829330384891364
99663.618818958988413
99663.411591312862583
99663.206949396204436
99663.004120671961573
99662.80268981475092
99662.60252242765273
99662.40341421678022
99662.204718930035597
99662.005509003953193
99661.805287163879257
99661.603943205351243
99661.402016978012398
99661.200722586247139
99661.001153443547082
99660.804119289779919
99660.609643884119578
99647.442056737345411
99648.010293635394191
99648.592294560410664
99649.188538442147546
99649.799322050850606
99650.424648283180431
99651.064470735436771
99651.718502739371615
99652.386701298251865
99653.068479687935906
99653.763801916546072
99654.470541716334992
99665.397060741233872
99665.18141537324118
99664.967297633687849
99664.753680143126985
99664.539216830889927
99664.32328809259343
99664.106434405883192
99663.890153393469518
99663.675710341223748
99663.463876660825917
99663.2548931457859
99663.048514171459829
99662.844697282693232
99662.64363145949028
99662.445167544996366
99662.248410806743777
99662.051922526326962
99661.854482949202065
99661.65565786989464
99661.455998151373933
99661.256483738528914
99661.058147439020104
99660.861678161250893
99660.667344028508523
99665.225265205328469
99665.012879754183814
99664.800511944165919
99664.586987121190759
99664.371473467574106
99664.154322559465072
99663.936672467883909
99663.719872664456489
99663.504821219714358
99663.2921234897658
99663.082304649622529
99662.875767486126279
99662.672954541703803
99662.47405064549821
99662.278354488284094
99662.084386373753659
99661.890459716320038
99661.695541807741392
99661.499556736656814
99661.302994445824879
99661.106858456070768
99660.911831729536061
99660.718239837078727
99664.852868631336605
99664.640440501534613
99664.425853343753261
99664.209235684931627
99663.991716825592448
99663.7747235212737
99663.559234217202174
99663.345561476482544
99663.134228660477675
99662.926004443012062
99662.721751010758453
99662.521776843670523
99662.325689684686949
99662.132226638685097
99661.939610520930728
99661.746746392382192
99661.553270859119948
99661.359315891255392
99661.165410693822196
99660.972042624969617
99660.779073195182718
99664.039976914471481
99663.823287459745188
99663.607680736808106
99663.393688577838475
99663.181646852186532
99662.97235139728582
99662.766728814356611
99662.565540053852601
99662.368704299049568
99662.175216858289787
99661.983618843994918
99661.792696391770733
99661.601657698178315
99661.410190124137443
99661.218619340055739
99661.02737323504698
99660.836152388175833
99663.238903886609478
99663.030350150933373
99662.824279070613557
99662.621729747799691
99662.423325344134355
99662.228821739074192
99662.037026701014838
99661.846617316812626
99661.656814390938962
99661.467365192773286
99661.278069135267287
99661.08876500032784
99660.899101692106342
99663.073037452762946
99662.867490795993945
99662.66462769600912
99662.465416497987462
99662.269899579856428
99662.077522068764665
99661.887206776460516
99661.698173667231458
99661.510173040063819
99661.322958125980222
99661.136043813690776
99660.94871159028844
99680.943733436070033
99680.725482392823324
99680.506165916187456
99680.284328867332079
99680.061175643262686
99679.838983492358238
99679.619034273040597
99679.400558579931385
99679.181564200436696
99678.960348688298836
99678.736308773455676
99678.510120665509021
99678.283027463578037
99678.055718869552948
99677.828152777801733
99677.599527332524303
99677.368392750824569
99677.13347606480238
99676.895054918364622
99676.655134614455164
99681.144786257602391
99680.923054886952741
99680.704700942020281
99680.485698427859461
99680.264227685664082
99680.041353297056048
99679.819562099524774
99679.600499345659046
99679.383420741607551
99679.165927462410764
99678.945877328456845
99678.722780567943119
99678.497660278051626
99678.271927353620413
99678.046241622287198
99677.820111775639816
99677.592133932761499
99677.360680146957748
99677.1248570826574
99676.885365511494456
99676.644451404034044
99676.404918840082246
99681.592529076981009
99681.353889480436919
99681.123809689990594
99680.901580138350255
99680.683401556743775
99680.464931792026618
99680.24406940791232
99680.021839887587703
99679.80090628596372
99679.582905716684763
99679.367088740298641
99679.150924504065188
99678.932069031885476
99678.709931987512391
99678.485574192221975
99678.26063510304084
99678.035813627706375
99677.810223216351005
99677.582042209323845
99677.349726793909213
99677.112871576537145
99676.87269880544045
99676.631756733244401
99676.392499440655229
99676.156596022672602
99675.9247181515384
99681.823261066354462
99681.577338554459857
99681.336849798928597
99681.10524920107855
99680.882244381224154
99680.664010560911265
99680.445726806516177
99680.224908324336866
99680.002800214497256
99679.782310096052242
99679.565273886648356
99679.350819879764458
99679.135936257211142
99678.917914626174024
99678.69631758320611
99678.472830447790329
99678.249342218594393
99678.026122571653104
99677.801646542648086
99677.573746230395045
99677.340876827438478
99677.102981725591235
99676.861765857305727
99676.620069888434955
99676.380370865648729
99676.144202397568733
99675.912189692855463
99675.684157274226891
99682.05590012659377
99681.808821994476602
99681.562219384883065
99681.321127873074147
99681.089040782782831
99680.865741513393004
99680.647302800643956
99680.428759503396577
99680.207743962382665
99679.985743234152324
99679.765960642966093
99679.550140968305641
99679.337107362414827
99679.123528592725052
99678.906335267747636
99678.685190417061676
99678.462061796788475
99678.23908094340004
99678.01660181938496
99677.792899947220576
99677.565339965483872
99677.332140657075797
99677.093482394935563
99676.851642902212916
99676.609750281248125
99676.370147574401926
99676.133973349104053
99675.901708270321251
99675.673239143987303
99675.448091769154416
99682.292218566712108
99682.048338980137487
99681.800660254753893
99681.552744320200873
99681.310185379596078
99681.076970960246399
99680.853076820130809
99680.634658225884777
99680.416562399273971
99680.195976738948957
99679.974333383783232
99679.755069320744951
99679.540106402637321
99679.328149059787393
99679.115523576576379
99678.898943628199049
99678.678055193158798
99678.455302516318625
99678.233235739273368
99678.011962208518526
99677.789210514849401
99677.561932269440149
99677.328251051483676
99677.088634602056118
99676.845916537829908
99676.603522143152077
99676.363789999173605
99676.127671210444532
99675.895429279349628
99675.667096360542928
99675.442304867247003
99675.220122595099383
99682.293799722756376
99682.049556109530386
99681.80118360837514
99681.552407710594707
99681.309135444113053
99681.075613470602548
99680.851805049183895
99680.633672639334691
99680.415709486216656
99680.19504783427692
99679.973259364545811
99679.754073435949977
99679.539556435440318
99679.328337233222555
99679.116442162310705
99678.900325341659482
99678.679607490645139
99678.456950150313787
99678.235117007410736
99678.014249729545554
99677.791919822091586
99677.564775053368066
99677.330787828512257
99677.090619457609137
99676.847399575621239
99676.604781242509489
99676.364998775170534
99676.128773658710998
99675.896279559237882
99675.667629006959032
99675.442744697444141
99675.22082742791099
99674.999438010127051
99695.732650278441724
99695.447844556387281
99695.159679371747188
99694.868951891097822
99694.579233596174163
99694.293649412065861
99682.295137805442209
99682.050855885565397
99681.802009558465215
99681.55247851414606
99681.308433048281586
99681.074364276224514
99680.850340403208975
99680.632229973358335
99680.414341755604255
99680.193588949856348
99679.971656828041887
99679.752474321867339
99679.538260771601927
99679.327554794057505
99679.116160121862777
99678.900278980261646
99678.679550386557821
99678.45697664481122
99678.235544135255623
99678.015269503215677
99677.793438155014883
99677.566477319109254
99677.33226339124667
99677.091577118568239
99676.8478724155284
99676.604958215393708
99676.365028264830471
99676.128684939147206
99675.896035884405137
99675.667241963630659
99675.442390786338365
99675.220825330659864
99674.999930107529508
99674.775948978669476
99696.012345887487754
99695.730979586747708
99695.445885072083911
99695.157384599981015
99694.86643370850652
99694.576828662626212
99694.291690584417665
99682.30084367080417
99682.056478622151189
99681.807269967845059
99681.557288043608423
99681.312922950208304
99681.078690830283449
99680.854732146748574
99680.636806464448455
99680.41903435921995
99680.198238204000518
99679.976242618300603
99679.757055397378281
99679.542980505008018
99679.332544417338795
99679.121387767154374
99678.905585341446567
99678.684845433643204
99678.462292294323561
99678.240956994093722
99678.020831479021581
99677.799156017965288
99677.5722214224661
99677.337819852080429
99677.096839391160756
99676.852903974388028
99676.609884182864334
99676.369899758443353
99676.133500466661644
99675.90078133624047
99675.671898596774554
99675.447040558603476
99675.225666589583852
99675.00500157015631
99674.78115632943809
99674.551744915763265
99595.730429521587212
99595.954672321939142
99596.207085841873777
99596.48853773130395
99596.799738100380637
99597.141060441615991
99597.512757272008457
99597.914662218405283
99598.346053217013832
99598.80469271702168
99599.282691349508241
99650.7921394512814
99650.597627830473357
99650.404472761219949
99650.212331316099153
99650.020205888344208
99649.827355694011203
99649.633652970704134
99649.439377770395367
99649.244750694546383
99649.049833609402413
99648.854479795627412
99648.658582067597308
99648.46257193715428
99648.2671498307609
99648.072423102421453
99647.877936849065009
99647.683049877887242
99647.487422005971894
99647.291717470201547
99647.097640172374668
99646.90671266890422
99646.719373659580015
99646.534573629731312
99646.350018370139878
99646.163086563523393
99645.971839214544161
99645.776036821698654
99645.576798031979706
99645.376228396969964
99645.176513007070753
99644.979352268521325
99644.785451547955745
99644.594407435331959
99644.404911037869169
99644.215292691005743
99644.024233140953584
99597.364870333854924
99597.434281080961227
99597.519530865611159
99597.621203369402792
99597.7400477034098
99597.877003002053243
99598.033226493818802
99598.210091307104449
99598.409133048291551
99598.631844374773209
99598.87966393303941
99599.153901060737553
99599.45565037590859
99599.78567622450646
99600.144464699609671
99600.532260623280308
99600.949035263533005
99601.394615014258306
99601.868034742539749
99602.367607423482696
99602.886061035183957
99650.817072881865897
99650.62535946672142
99650.433425067400094
99650.240019567645504
99650.044072296557715
99649.845459366901196
99649.645260992459953
99649.44494291805313
99649.245681937245536
99649.047864158303128
99648.851104895584285
99648.654739980775048
99648.458738595290924
99648.263704251570744
99648.070026126209996
99647.877454108995153
99647.685025383689208
99647.49184105983295
99647.297836934696534
99647.104041850907379
99646.911673282374977
99646.721335402995464
99646.532790932906209
99646.344749367359327
99646.155291613744339
99645.962767393197282
99645.76674196573731
99645.567951856719446
99645.368048326577991
99645.168971004532068
99644.972332319972338
99644.778736914580804
99644.587619608821115
99644.397680006688461
99644.207312033584458
99644.015165328324656
99600.030840655686916
99600.1497541556746
99600.284900739774457
99600.436750978871714
99600.605889017882873
99600.793090548264445
99600.999290009902325
99601.22566981035925
99601.473612065165071
99601.744492216064828
99602.039651184764807
99602.360308674004045
99602.70746068994049
99603.081861296042916
99603.483886590358452
99603.913704969105311
99604.37106158286042
99604.855722262786003
99605.366466230116202
99605.9016965059418
99606.453987918750499
99650.671006420889171
99650.478124451998156
99650.280983560180175
99650.079189121694071
99649.873865710134851
99649.667167907449766
99649.461433828968438
99649.258216635571443
99649.057901141495677
99648.859847824496683
99648.663102140708361
99648.467215715863858
99648.272603639779845
99648.079688947109389
99647.888335930969333
99647.697624985026778
99647.506381775456248
99647.313870513215079
99647.120116478559794
99646.925830269276048
99646.731831265671644
99646.538737697555916
99646.346456193612539
99646.154074495279929
99645.960483744056546
99645.764929155659047
99645.567572724175989
99645.369261798739899
99645.171640246364404
99644.976140983271762
99644.783292836509645
99644.592527649278054
99644.402535341796465
99644.211703685490647
99602.890943728052662
99603.073515422773198
99603.273010194257949
99603.489880833731149
99603.72474237451388
99603.978367938005249
99604.251666831405601
99604.545739025255898
99604.861799651625915
99605.20106244237104
99605.564646394763258
99605.953492172746337
99606.368209496038617
99606.809103125226102
99607.276298721641069
99607.769570921052946
99608.288733169873012
99608.83266480176826
99609.400052590193809
99609.9845170659828
99650.699290921300417
99650.503903999633621
99650.302792026326642
99650.096006968728034
99649.885368210147135
99649.67368563778291
99649.46394519569003
99649.258142653503455
99649.056569476248114
99648.85831032852002
99648.662006208804087
99648.466912089381367
99648.273168127925601
99648.081233092554612
99647.891033867417718
99647.701612110628048
99647.511588422363275
99647.31962141157419
99647.125112823356176
99646.92847673088545
99646.730774456838844
99646.533340735593811
99646.337325462896843
99646.142823921894887
99645.949072277056985
99645.754989648106857
99645.56008469358494
99645.364509984006872
99645.169148245986435
99644.975131157058058
99644.782981041556923
99644.592280185097479
99644.401823716034414
99644.2103257655981
99605.643328596357605
99605.870303470743238
99606.11445412345347
99606.376036613495671
99606.655440353410086
99606.953239323280286
99607.270174073608359
99607.607134463192779
99607.96513752786268
99608.345172122833901
99608.748141754229437
99609.174819511041278
99609.625791598882643
99610.101341014276841
99610.601592241902836
99611.126254272661754
99611.675153697680798
99612.247107215793221
99612.840915510518244
99613.450406284900964
99650.539369700622046
99650.332863201838336
99650.12092032918008
99649.906030218713568
99649.691208039686899
99649.479262572960579
99649.272123937815195
99649.069952674894012
99648.871845375193516
99648.676387740531936
99648.482398381747771
99648.289514132397017
99648.097825341130374
99647.907441467556055
99647.717815669879201
99647.527941465188633
99647.336495114708669
99647.14248417399358
99646.945668643907993
99646.746596487006173
99646.5466784984892
99646.347631836135406
99646.150481382821454
99645.95515587257978
99645.760870636833715
99645.566718470130581
99645.372501313555404
99645.178445869823918
99644.985269698212505
99644.793348108141799
99644.602492153295316
99644.411842415327555
99608.668425968557131
99608.953608288560645
99609.256490861676866
99609.577290804314543
99609.916317917086417
99610.273985728985281
99610.650801939918892
99611.047451979015023
99611.464731681611738
99611.903412254585419
99612.364203712859307
99612.847699476333219
99613.354210272154887
99613.883902033048798
99614.436548810743261