/*--------------------------------*- C++ -*----------------------------------*\
  =========                 |
  \\      /  F ield         | OpenFOAM: The Open Source CFD Toolbox
   \\    /   O peration     | Website:  https://openfoam.org
    \\  /    A nd           | Version:  12
     \\/     M anipulation  |
\*---------------------------------------------------------------------------*/
FoamFile
{
    format      ascii;
    class       volScalarField;
    location    "0.0145";
    object      pPrime2Mean;
}
// * * * * * * * * * * * * * * * * * * * * * * * * * * * * * * * * * * * * * //

dimensions      [2 -2 -4 0 0 0 0];

internalField   nonuniform List<scalar> 
106891
(
771094.31411933898926
770362.90427398681641
769621.27410316467285
768872.10886383056641
768121.80295944213867
767375.63027381896973
766640.41936302185059
765916.54072189331055
765206.32119750976562
764506.0713939666748
763811.63609313964844
1060366.8282794952393
1059294.118631362915
1058223.7443714141846
1057157.6129741668701
1056098.8672142028809
1055047.9851131439209
1054001.0513896942139
1052951.3329887390137
1051894.0533180236816
1050830.1006603240967
1049764.0931663513184
1048701.06911277771
1047644.9856834411621
1046598.2200603485107
1045559.3378276824951
1044522.3708229064941
1043481.0279426574707
1042433.1361827850342
1041381.7604713439941
1040335.336462020874
1039304.9257564544678
1038297.4779090881348
1037312.1305599212646
1036342.8676071166992
1035384.4596996307373
1034435.5692729949951
1033497.2859172821045
1032569.596508026123
1031649.681173324585
1030732.2293529510498
1029809.5282077789307
1028874.7845935821533
1027926.2589168548584
1026968.308801651001
1026006.9436130523682
1025046.3980770111084
1024088.2575149536133
1023132.4679584503174
776855.6313304901123
776085.71697616577148
775323.14968490600586
774569.59410667419434
773826.79871368408203
773095.81155204772949
772375.84595489501953
771663.62760353088379
770953.48527145385742
770238.95937538146973
769514.77073860168457
768779.36074829101562
768034.56050300598145
767286.15185356140137
766539.26848220825195
765800.80212020874023
765071.99861717224121
764355.9685173034668
763650.27792167663574
762950.52199554443359
1059153.5314426422119
1058082.0305099487305
1057016.2413597106934
1055958.6357364654541
1054910.5733757019043
1053869.307430267334
1052828.6779651641846
1051783.5425205230713
1050733.6305541992188
1049682.7518100738525
1048635.7753314971924
1047596.7691268920898
1046568.7765254974365
1045550.0014667510986
1044532.7832679748535
1043508.8185024261475
1042475.2052230834961
1041436.2917995452881
1040402.5176753997803
1039384.7957286834717
1038388.6825389862061
1037412.3751983642578
1036450.0945682525635
1035497.3833179473877
1034552.7982158660889
1033616.5897121429443
1032688.3870086669922
1031765.7549877166748
1030843.5865478515625
1029913.9434146881104
1028968.6946296691895
1028003.9580669403076
1027023.4358215332031
1026036.0346355438232
1025050.725902557373
1024072.7464580535889
776061.33916282653809
775286.02690505981445
774515.86144638061523
773752.1575927734375
772997.45508003234863
772254.35206413269043
771523.7843074798584
770803.81625366210938
770089.53363227844238
769374.70701217651367
768653.81262016296387
767924.45190811157227
767187.13549041748047
766445.96228981018066
765704.54633903503418
764968.78824806213379
764239.88329696655273
763521.80082702636719
762813.69318962097168
762113.99983787536621
1059121.4706344604492
1058039.7206020355225
1056963.531717300415
1055895.1550693511963
1054837.0004405975342
1053788.3618717193604
1052744.5946502685547
1051700.8497085571289
1050656.647289276123
1049614.9679794311523
1048579.0096473693848
1047551.8176307678223
1046536.412618637085
1045531.9417037963867
1044531.2125511169434
1043524.9196834564209
1042509.1392612457275
1041488.6359539031982
1040473.9000244140625
1039474.3450508117676
1038493.7486839294434
1037529.5397396087646
1036576.5167636871338
1035630.6390323638916
1034689.9075984954834
1033753.4253692626953
1032820.4234256744385
1031888.6474685668945
1030953.7341365814209
1030009.8214282989502
1029049.6455688476562
1028067.8598690032959
1027066.2162303924561
1026054.7118625640869
1025045.882080078125
1024047.9532680511475
774516.26485824584961
773742.44437217712402
772974.7058219909668
772214.23311996459961
771462.77482414245605
770721.26484489440918
769988.79306602478027
769262.34364128112793
768537.67582130432129
767810.82320594787598
767079.81093215942383
766344.80559921264648
765608.46667671203613
764873.21142768859863
764142.97968101501465
763418.72921562194824
762702.56608390808105
761994.72246742248535
761290.4255428314209
1058149.0164070129395
1057052.9595699310303
1055963.1253890991211
1054883.2984867095947
1053815.777904510498
1052758.5375480651855
1051707.7744693756104
1050662.62380027771
1049624.73805809021
1048595.5965442657471
1047577.0557422637939
1046571.2783241271973
1045577.8226547241211
1044590.8445796966553
1043602.0117301940918
1042607.5068492889404
1041611.2908058166504
1040621.3042907714844
1039643.5600509643555
1038679.531343460083
1037726.6370105743408
1036780.5503177642822
1035837.7563648223877
1034896.1459732055664
1033955.0997791290283
1033013.7823619842529
1032069.5568656921387
1031119.0417823791504
1030158.5072154998779
1029182.1778831481934
1028184.3502330780029
1027164.7886638641357
1026132.9648303985596
1025103.1465282440186
774622.30677604675293
773830.20779037475586
773048.6470890045166
772276.51503562927246
771513.14019775390625
770758.11528396606445
770010.82393646240234
769270.06749534606934
768533.8354606628418
767799.60801124572754
767065.11395072937012
766329.40046310424805
765592.90669059753418
764857.72360038757324
764125.67237281799316
763399.83153915405273
762681.41390800476074
761972.13572692871094
761273.37636375427246
760579.44448661804199
1058425.6142616271973
1057306.1449165344238
1056191.7375335693359
1055085.612434387207
1053992.1445446014404
1052912.5024757385254
1051846.0283946990967
1050792.4050121307373
1049752.3172149658203
1048726.3729305267334
1047714.9203872680664
1046717.911979675293
1045733.9855918884277
1044758.9521617889404
1043787.4673805236816
1042816.9689540863037
1041849.759204864502
1040889.6444816589355
1039938.4196357727051
1038994.8756446838379
1038055.7788276672363
1037116.7881088256836
1036174.2094669342041
1035227.8715476989746
1034279.7910671234131
1033330.3176002502441
1032376.5643920898438
1031414.6774616241455
1030441.207498550415
1029451.2932929992676
1028438.9908542633057
1027403.3427295684814
1026353.5164241790771
773321.91810607910156
772526.88815689086914
771744.12063407897949
770972.74399566650391
770211.28077697753906
769457.96504974365234
768711.15835380554199
767969.28826713562012
767230.81853485107422
766494.2896842956543
765759.13814926147461
765025.40206336975098
764294.54760932922363
763567.24943351745605
762846.28295516967773
762132.11821556091309
761427.72911071777344
760733.23143577575684
760045.61568450927734
1057714.355640411377
1056574.0715065002441
1055440.4139423370361
1054318.7027187347412
1053212.9467430114746
1052124.8108654022217
1051055.113862991333
1050005.2021541595459
1048976.6354122161865
1047969.740291595459
1046982.2513809204102
1046009.8968448638916
1045048.3621807098389
1044094.5014553070068
1043147.2170219421387
1042208.2625370025635
1041278.9630851745605
1040357.5607357025146
1039438.8785953521729
1038517.4514980316162
1037588.9765071868896
1036651.5436859130859
1035707.1077194213867
1034759.5818538665771
1033810.1169567108154
1032854.8844566345215
1031888.4596824645996
1030906.3373889923096
1029904.6406364440918
1028879.9737510681152
1027832.9814071655273
1026772.0111808776855
773006.13397598266602
772201.9145336151123
771409.94269180297852
770629.55238723754883
769859.39486122131348
769098.12447547912598
768344.92296028137207
767599.12948799133301
766859.775390625
766125.39980697631836
765394.97736167907715
764667.95114326477051
763944.92997932434082
763225.68578910827637
762511.7734489440918
761802.58149909973145
761099.91615295410156
760403.18669700622559
759708.8717155456543
1056988.363037109375
1055824.8545532226562
1054673.2479515075684
1053540.3083477020264
1052429.5321197509766
1051341.8490047454834
1050278.1380405426025
1049240.1909866333008
1048229.193187713623
1047243.0728893280029
1046276.2967796325684
1045323.7337779998779
1044383.4342479705811
1043455.7876491546631
1042541.5547409057617
1041639.4923286437988
1040744.4908084869385
1039848.7140121459961
1038946.0917739868164
1038033.9960651397705
1037112.8590240478516
1036184.325870513916
1035250.290168762207
1034310.6871814727783
1033361.6922607421875
1032397.6268997192383
1031414.0645217895508
1030408.4888515472412
1029379.9460716247559
1028330.8373470306396
772067.93387985229492
771269.41927146911621
770481.70593643188477
769704.63787078857422
768937.91479873657227
768181.14661598205566
767433.60075569152832
766694.05550575256348
765960.9673957824707
765233.24495124816895
764510.36195755004883
763792.6505184173584
763079.86664009094238
762372.66360855102539
761670.3751277923584
760972.98819160461426
760280.20824432373047
759586.07499313354492
1056279.2721176147461
1055092.8598175048828
1053929.0725593566895
1052793.3669090270996
1051686.8885707855225
1050608.2724189758301
1049557.5102195739746
1048535.6204147338867
1047541.7514686584473
1046571.5230751037598
1045620.7743835449219
1044687.6106052398682
1043771.6589508056641
1042872.0537662506104
1041985.8770942687988
1041106.273832321167
1040224.4795322418213
1039335.1920013427734
1038438.3402786254883
1037535.2898254394531
1036626.1324253082275
1035709.46213722229
1034782.4201164245605
1033840.8347263336182
1032880.3133907318115
1031898.0486946105957
1030893.237642288208
1029866.7952499389648
772142.80428504943848
771338.9731559753418
770545.34850311279297
769762.78649711608887
768991.66449928283691
768231.61590385437012
767481.39755821228027
766739.18739318847656
766003.22565650939941
765272.61471366882324
764547.32462120056152
763828.09831619262695
763115.10259819030762
762408.86992073059082
761708.67950439453125
761013.60040283203125
760323.04139709472656
759630.58486938476562
1055731.8240432739258
1054536.3024158477783
1053373.2274570465088
1052243.8084106445312
1051145.7756843566895
1050078.3092021942139
1049042.631326675415
1048037.474536895752
1047059.0426235198975
1046103.700252532959
1045170.2187767028809
1044258.0688571929932
1043366.6106071472168
1042492.3970470428467
1041626.6916885375977
1040758.7250385284424
1039881.9516696929932
1038996.7186737060547
1038105.5700969696045
1037207.9894599914551
1036300.701114654541
1035380.0805740356445
1034442.904670715332
1033486.9516048431396
1032510.927173614502
1031513.7038307189941
1030495.4131908416748
771669.18547630310059
770869.56614685058594
770081.10542488098145
769304.20543479919434
768537.75478553771973
767779.66391181945801
767027.80440139770508
766280.81910705566406
765538.72130966186523
764802.24890327453613
764072.75065803527832
763350.85625839233398
762637.33259582519531
761931.48084259033203
761232.08489990234375
760538.01229095458984
759843.3340950012207
1057777.8378028869629
1056534.1182880401611
1055315.0026988983154
1054127.7417373657227
1052976.8319549560547
1051862.6522960662842
1050784.7403697967529
1049742.557201385498
1048733.5712909698486
1047752.7105407714844
1046795.4681034088135
1045859.8505535125732
1044947.189302444458
1044059.2944927215576
1043194.1734237670898
1042342.621696472168
1041491.5718593597412
1040631.1244144439697
1039758.6764736175537
1038876.5862674713135
1037986.2715587615967
1037085.6050682067871
1036171.1902599334717
1035240.8619155883789
1034293.5214061737061
1033327.5913372039795
1032340.8325309753418
771449.39195442199707
770658.64768600463867
769876.93637084960938
769102.38083457946777
768332.92194747924805
767567.16887283325195
766804.72856712341309
766045.9887523651123
765291.52043724060059
764542.0744743347168
763798.33333396911621
763061.39235305786133
762332.21840667724609
761610.13394546508789
760895.37376976013184
760181.16196632385254
1058356.7558631896973
1057117.4164390563965
1055902.2217025756836
1054714.6475086212158
1053558.6903610229492
1052438.4354934692383
1051356.5587959289551
1050314.1169776916504
1049307.726261138916
1048328.8980369567871
1047368.7256355285645
1046424.3722629547119
1045500.1110248565674
1044601.8942489624023
1043730.0501174926758
1042875.8074913024902
1042025.6609325408936
1041168.6044311523438
1040300.0123195648193
1039419.5872459411621
1038528.0911159515381
1037625.1528778076172
1036709.9207592010498
1035781.3952770233154
1034837.6016654968262
1033875.1433601379395
1032890.6427783966064
1031882.6490917205811
771221.40948104858398
770434.658935546875
769652.87284660339355
768874.2771053314209
768097.89046096801758
767323.46400833129883
766551.21396064758301
765781.27464866638184
765014.11532402038574
764250.3356990814209
763491.5928897857666
762739.62292098999023
761995.16679000854492
761258.97861480712891
760525.93911743164062
1057756.0551586151123
1056552.4266872406006
1055373.0375366210938
1054220.1243286132812
1053098.6824932098389
1052013.907398223877
1050967.6071147918701
1049955.4174098968506
1048967.2849903106689
1047993.1390342712402
1047030.1818561553955
1046084.3985900878906
1045163.6717929840088
1044269.9717693328857
1043396.5941715240479
1042531.5279865264893
1041663.9680614471436
1040787.6887340545654
1039900.4206466674805
1039001.7522315979004
1038091.8179950714111
1037170.3478031158447
1036236.0724220275879
1035285.7820892333984
1034315.8582420349121
1033323.5390625
1032308.3743114471436
771176.80690574645996
770386.59584426879883
769599.52593803405762
768814.46412658691406
768030.72757148742676
767248.05376052856445
766466.07850074768066
765684.9498176574707
764904.86041069030762
764127.53801345825195
763354.84246444702148
762588.33207702636719
761828.52630805969238
761071.1702938079834
1057362.1694850921631
1056187.1516666412354
1055033.7087459564209
1053908.7475509643555
1052818.7735919952393
1051763.8371429443359
1050737.2764530181885
1049728.7811489105225
1048729.4518585205078
1047737.4736385345459
1046759.2096099853516
1045802.8512954711914
1044871.9037017822266
1043962.8278636932373
1043067.0173568725586
1042175.0720100402832
1041280.0206813812256
1040377.6542549133301
1039465.7588958740234
1038542.9384517669678
1037608.1322174072266
1036659.9327831268311
1035696.0464763641357
1034713.4365005493164
1033709.9273490905762
1032685.7142944335938
771272.98922729492188
770475.02053833007812
769679.15297698974609
768884.19940757751465
768089.42373275756836
767294.32178688049316
766498.73904037475586
765702.64495086669922
764907.27285003662109
764114.73821449279785
763326.55941390991211
762544.57326316833496
761764.13800239562988
1057120.9522361755371
1055963.049072265625
1054831.3189697265625
1053731.4372463226318
1052661.5201377868652
1051613.7834987640381
1050578.8440246582031
1049549.661563873291
1048525.4720783233643
1047511.974006652832
1046517.0436515808105
1045544.8781089782715
1044594.7302570343018
1043661.7442874908447
1042739.0412464141846
1041820.0257682800293
1040899.1843357086182
1039971.9201107025146
1039034.909029006958
1038085.2502002716064
1037121.5838203430176
1036143.6124610900879
1035149.7419204711914
1034137.6454658508301
1033106.1582069396973
771504.3287181854248
770698.19941711425781
769892.32750701904297
769085.6586799621582
768277.67407989501953
767468.05122947692871
766656.44138336181641
765843.6801586151123
765032.02117347717285
764223.64335250854492
763421.56041717529297
762621.36602783203125
1057020.3284015655518
1055876.9050941467285
1054762.3811683654785
1053673.5731105804443
1052602.0359306335449
1051539.7402439117432
1050481.7463684082031
1049427.8147945404053
1048382.2855110168457
1047351.590202331543
1046340.6193656921387
1045350.7542419433594
1044380.589147567749
1043426.9197692871094
1042484.2361259460449
1041545.3358898162842
1040602.8856468200684
1039651.1988773345947
1038686.9662036895752
1037709.5603981018066
1036720.0488471984863
1035717.7756156921387
1034699.0469207763672
1033661.2241668701172
1057003.313512802124
1055869.8795032501221
1054760.3441925048828
1053667.0477848052979
1052581.6466579437256
1051499.413646697998
1050419.9313049316406
1049346.7827758789062
1048285.1385078430176
1047239.495153427124
1046213.0596218109131
1045207.8218555450439
1044223.6842403411865
1043256.6936874389648
1042298.8311519622803
1041340.9980049133301
1040376.1331691741943
1039400.6243171691895
1038413.9429130554199
1037416.6206493377686
1036407.3751411437988
1035381.6934185028076
1034336.6588916778564
1055953.9390983581543
1054838.5055255889893
1053731.1297283172607
1052626.0015354156494
1051521.9888858795166
1050422.2259654998779
1049331.5574779510498
1048254.4953117370605
1047195.4285526275635
1046158.1968994140625
1045144.3140354156494
1044150.8761024475098
1043170.3590717315674
1042193.559663772583
1041213.3992214202881
1040226.4535636901855
1039231.3795757293701
1038226.3491744995117
1037207.5604724884033
1036170.8216152191162
1035114.5231266021729
1052688.2011432647705
1051559.1935501098633
1050438.2059116363525
1049330.9937171936035
1048241.8801136016846
1047174.2844104766846
1046130.154857635498
1045108.4255046844482
1044103.0969715118408
1043105.6839218139648
1042109.45973777771
1041110.5351963043213
1040105.1295928955078
1039088.0436706542969
1038054.1558418273926
1037000.9103698730469
1035929.60671043396
1049329.7651481628418
1048236.0251941680908
1047163.2858295440674
1046111.5022792816162
1045077.8882389068604
1044056.838586807251
1043041.9789237976074
1042027.3872547149658
1041007.0286865234375
1039974.1145534515381
1038922.8710803985596
1037851.6674346923828
1036764.0425262451172
1049292.8655891418457
1048195.980396270752
1047118.904842376709
1046061.035192489624
1045018.1158771514893
1043983.7312412261963
1042950.7411499023438
1041912.0752353668213
1040860.9691715240479
1039792.6417007446289
1038706.5281925201416
1037606.5182437896729
1165367.1657009124756
1164322.62744140625
1163295.8515663146973
1162270.495943069458
1161236.583812713623
1160188.9137020111084
1159122.6309013366699
1158031.2401599884033
1156908.6365528106689
1155752.3132209777832
1154564.1483020782471
1153348.4169483184814
1152110.1916694641113
1150855.3922119140625
1149591.2591037750244
1148325.2193851470947
1147061.8910694122314
1145802.1259880065918
1144545.1383819580078
1143291.7059574127197
1167663.3213443756104
1166585.8178234100342
1165542.5920715332031
1164515.8997135162354
1163489.0321941375732
1162451.7760372161865
1161398.8778533935547
1160325.1089763641357
1159222.5950088500977
1158083.6222763061523
1156905.0108222961426
1155690.2941379547119
1154446.6677188873291
1153182.2359886169434
1151904.840950012207
1150622.3216609954834
1149341.0593490600586
1148063.9728755950928
1146790.8977699279785
1145521.3282718658447
1144256.8438739776611
1143002.8233051300049
1171091.328706741333
1169930.0917835235596
1168810.4506855010986
1167733.8862037658691
1166690.8030776977539
1165662.9870281219482
1164633.2665786743164
1163591.4612312316895
1162532.0170497894287
1161448.9881649017334
1160333.6454811096191
1159177.1278800964355
1157976.2231636047363
1156735.3249435424805
1155463.904146194458
1154173.0188446044922
1152873.0158367156982
1151572.0324859619141
1150275.2679195404053
1148984.2145919799805
1147698.153507232666
1146417.2646408081055
1145144.3783721923828
1143885.2837257385254
1142647.9982528686523
1141439.3677158355713
1173340.3075141906738
1172145.4016094207764
1170985.5951976776123
1169865.4766101837158
1168787.3854961395264
1167741.798999786377
1166710.13352394104
1165675.169017791748
1164626.3750305175781
1163558.1938362121582
1162464.7530460357666
1161336.2155780792236
1160162.3997573852539
1158940.0165481567383
1157674.862829208374
1156378.8183670043945
1155065.1983699798584
1153745.7525444030762
1152429.0360431671143
1151119.4065208435059
1149816.8600196838379
1148519.6273746490479
1147228.1941719055176
1145946.495096206665
1144681.4823627471924
1143441.5798492431641
1142232.9566230773926
1141057.1183700561523
1175500.460620880127
1174271.8265552520752
1173078.4566040039062
1171917.9920997619629
1170796.1238956451416
1169715.6961994171143
1168667.3935432434082
1167632.3308563232422
1166592.6182651519775
1165537.3522281646729
1164460.7183361053467
1163356.700870513916
1162215.0718040466309
1161025.0729007720947
1159783.1351280212402
1158495.91330909729
1157176.9943981170654
1155842.0754737854004
1154504.6250076293945
1153173.6148052215576
1151852.5171775817871
1150539.5737476348877
1149232.4783039093018
1147932.546199798584
1146644.8413524627686
1145376.61354637146
1144135.4752140045166
1142926.7117919921875
1141751.0419940948486
1140606.395170211792
1177555.9537143707275
1176287.9768009185791
1175064.459451675415
1173873.2150020599365
1172712.2039260864258
1171587.9900550842285
1170504.4280109405518
1169452.0701713562012
1168411.7125644683838
1167365.5169944763184
1166302.4951553344727
1165217.0851745605469
1164103.2828464508057
1162950.4434337615967
1161747.151050567627
1160489.5044136047363
1159184.7226161956787
1157847.7079811096191
1156495.690731048584
1155143.7282009124756
1153801.3854331970215
1152471.2098236083984
1151150.2913932800293
1149835.5263767242432
1148528.5885696411133
1147235.1924591064453
1145963.2573757171631
1144720.6044025421143
1143511.4651336669922
1142335.9029541015625
1141191.7804164886475
1140077.5424919128418
1178175.9388484954834
1176913.4327220916748
1175692.483642578125
1174501.4013671875
1173338.9193992614746
1172212.4036445617676
1171125.9270820617676
1170070.0574169158936
1169025.6633930206299
1167974.7140769958496
1166905.9521293640137
1165813.6072311401367
1164691.6778526306152
1163529.2097358703613
1162314.2617454528809
1161042.9778270721436
1159723.2024688720703
1158371.1753177642822
1157005.6244869232178
1155642.2997436523438
1154290.8447017669678
1152953.4694137573242
1151626.2601833343506
1150305.6397647857666
1148993.6026134490967
1147696.5956783294678
1146422.6330718994141
1145179.1568908691406
1143969.9628562927246
1142794.6677894592285
1141651.1334819793701
1140538.0131912231445
1139457.1989002227783
1248820.5121917724609
1246911.0644016265869
1245007.4112739562988
1243132.1376247406006
1241303.730396270752
1239538.2144317626953
1178606.5637969970703
1177347.9298839569092
1176128.9437923431396
1174938.2766399383545
1173774.8019390106201
1172646.2279300689697
1171557.0076065063477
1170497.7655868530273
1169449.3571891784668
1168393.701789855957
1167319.5830211639404
1166221.3539600372314
1165093.1217632293701
1163923.8806114196777
1162701.4149608612061
1161421.6502952575684
1160092.7137355804443
1158731.3641719818115
1157356.9884223937988
1155985.9616851806641
1154628.3363494873047
1153286.1310062408447
1151954.8504867553711
1150630.4616222381592
1149315.1415634155273
1148015.5627574920654
1146739.917121887207
1145495.6960754394531
1144286.2686290740967
1143110.9378871917725
1141967.6716976165771
1140855.4334259033203
1139776.1451072692871
1138734.6431903839111
1251124.9744834899902
1249219.9901084899902
1247294.5548629760742
1245375.5463695526123
1243486.0653762817383
1241645.0817203521729
1239868.7935276031494
1178832.3951263427734
1177575.2895641326904
1176356.869161605835
1175165.9311923980713
1174001.6455936431885
1172871.9472351074219
1171781.2914180755615
1170720.3509731292725
1169670.0226745605469
1168612.0983409881592
1167535.356273651123
1166434.1616878509521
1165302.5687675476074
1164129.5013427734375
1162902.663948059082
1161617.9192848205566
1160283.5535430908203
1158916.8760452270508
1157537.8321418762207
1156162.9557418823242
1154802.2026805877686
1153457.5680809020996
1152124.3017539978027
1150798.0785388946533
1149481.11057472229
1148180.3056697845459
1146904.0142974853516
1145659.5491924285889
1144450.1094837188721
1143274.9849395751953
1142131.9943389892578
1141020.2117290496826
1139941.5969219207764
1138900.8223686218262
1137899.6263771057129
749820.94954490661621
749064.69485855102539
748306.49485015869141
747549.02426719665527
746796.22507286071777
746049.38880920410156
745311.43954467773438
744580.09218406677246
743856.28486633300781
743136.57601356506348
742416.87449073791504
1039740.24294090271
1038625.6723308563232
1037519.6153144836426
1036414.8675155639648
1035306.5540218353271
1034195.1781253814697
1033083.7675514221191
1031974.7579956054688
1030868.7946357727051
1029765.109224319458
1028662.9805774688721
1027563.9468460083008
1026471.4098415374756
1025388.0825996398926
1024315.9724769592285
1023256.7351493835449
1022210.3570041656494
1021175.8253726959229
1020153.5403366088867
1019147.3062877655029
1018161.8473320007324
1017198.8188800811768
1016254.2769031524658
1015321.2865180969238
1014394.9178695678711
1013474.9328212738037
1012564.0907669067383
1011662.1136512756348
1010764.3877658843994
1009864.9190578460693
1008959.7801780700684
1008047.6001605987549
1007128.042760848999
1006200.7188663482666
1005264.5546531677246
1004317.8792533874512
756601.13919639587402
755813.57468605041504
755030.46560478210449
754252.63536071777344
753481.67303466796875
752718.64611053466797
751963.17928695678711
751213.33688926696777
750466.29006385803223
749719.11181831359863
748969.73080825805664
748217.33321762084961
747462.95081329345703
746708.26552200317383
745956.2445011138916
745207.97023582458496
744466.48305892944336
743730.8431396484375
743003.09126663208008
742281.88713836669922
741563.85363388061523
1039780.3147716522217
1038657.5235118865967
1037546.7951107025146
1036437.7370891571045
1035323.8269271850586
1034207.4665508270264
1033096.3148498535156
1031995.2996997833252
1030903.4142932891846
1029815.2009220123291
1028726.1613254547119
1027637.487964630127
1026555.522066116333
1025486.7692108154297
1024434.9484577178955
1023400.5324993133545
1022379.9002113342285
1021367.7623844146729
1020361.9910278320312
1019366.387752532959
1018388.3259029388428
1017432.537670135498
1016496.4878044128418
1015571.2976226806641
1014648.681079864502
1013726.2603950500488
1012806.3935050964355
1011890.191593170166
1010975.4292068481445
1010057.9263381958008
1009134.1803569793701
1008201.9495429992676
1007259.9538192749023
1006307.7004661560059
1005344.413423538208
1004369.1006183624268
755814.09428024291992
755018.7572021484375
754228.91513633728027
753445.49434471130371
752670.24934196472168
751904.43083572387695
751147.80344200134277
750398.55729103088379
749653.84448051452637
748910.45259857177734
748165.73958778381348
747418.17394638061523
746667.97847938537598
745916.14283561706543
745164.99049949645996
744415.72238159179688
743671.77633476257324
742933.50588798522949
742203.69936943054199
741481.94353675842285
740763.73458480834961
1038870.5599403381348
1037756.7209548950195
1036642.5233573913574
1035520.7093544006348
1034397.9228229522705
1033288.0019721984863
1032198.9682292938232
1031126.889310836792
1030059.6819305419922
1028987.6945934295654
1027912.1365699768066
1026843.4523887634277
1025792.8033618927002
1024764.9745311737061
1023757.7173767089844
1022763.1364765167236
1021772.0876140594482
1020780.1416206359863
1019791.4849090576172
1018816.9885578155518
1017865.2689533233643
1016935.1221961975098
1016015.056526184082
1015091.9898567199707
1014160.081657409668
1013221.0070915222168
1012279.2441787719727
1011337.0185356140137
1010393.745813369751
1009446.3545036315918
1008490.3148803710938
1007521.7137413024902
1006538.9725818634033
1005542.529447555542
754272.79573440551758
753474.31838798522949
752683.72923278808594
751903.25804328918457
751134.42964744567871
750377.14123725891113
749629.48908042907715
748888.33650588989258
748149.90320205688477
747410.69561195373535
746668.22206115722656
745921.89936828613281
745172.4825325012207
744422.60286331176758
743674.30653190612793
742931.99815940856934
742197.09462547302246
741473.11247634887695
740759.82272148132324
740052.7125244140625
1039145.536262512207
1038031.1834621429443
1036915.4866352081299
1035792.3978729248047
1034672.2128028869629
1033572.3148231506348
1032501.8258380889893
1031454.3207054138184
1030413.1766700744629
1029365.2723541259766
1028311.5515060424805
1027265.2591876983643
1026240.4321575164795
1025242.409387588501
1024266.0687351226807
1023299.5367012023926
1022330.402587890625
1021352.9203987121582
1020372.7730388641357
1019404.2464790344238
1018459.0319709777832
1017535.6398620605469
1016619.4388885498047
1015693.1805305480957
1014748.2629623413086
1013786.8992652893066
1012817.3079433441162
1011846.7005825042725
1010877.0262928009033
1009904.2392616271973
1008920.9348011016846
1007921.0799255371094
1006903.2126350402832
1005870.3097171783447
753602.28813552856445
752792.77479553222656
751992.9398365020752
751205.99911880493164
750433.79989624023438
749676.02858734130859
748930.22487640380859
748192.49264717102051
747458.32479095458984
746723.58783149719238
745985.25543785095215
745242.2608470916748
744495.1315746307373
743746.67048072814941
742999.91410827636719
742260.45641899108887
741531.06329345703125
740815.56263160705566
740113.15332794189453
739417.65896415710449
1038327.4073963165283
1037207.1394138336182
1036083.8741188049316
1034970.0066299438477
1033882.2570686340332
1032827.9672584533691
1031799.8567161560059
1030781.3096389770508
1029759.2804698944092
1028734.2120037078857
1027718.7566146850586
1026727.0037651062012
1025763.4247035980225
1024820.559965133667
1023883.6044235229492
1022937.7993679046631
1021977.2379760742188
1021009.8524208068848
1020052.7770233154297
1019118.2332897186279
1018202.4849948883057
1017288.1604690551758
1016355.9660625457764
1015397.065092086792
1014415.7636775970459
1013423.4152431488037
1012429.5603713989258
1011435.8976306915283
1010437.0417900085449
1009424.9728221893311
1008394.5729503631592
1007345.8444194793701
752233.02911949157715
751423.32872581481934
750628.86244583129883
749852.13700485229492
749092.62024879455566
748347.09457969665527
747610.77071189880371
746878.59237098693848
746146.32833099365234
745411.20259857177734
744672.39656066894531
743930.55045700073242
743188.23017311096191
742448.3227367401123