/*--------------------------------*- C++ -*----------------------------------*\
  =========                 |
  \\      /  F ield         | OpenFOAM: The Open Source CFD Toolbox
   \\    /   O peration     | Website:  https://openfoam.org
    \\  /    A nd           | Version:  12
     \\/     M anipulation  |
\*---------------------------------------------------------------------------*/
FoamFile
{
    format      ascii;
    class       volScalarField;
    location    "0.0145";
    object      T;
}
// * * * * * * * * * * * * * * * * * * * * * * * * * * * * * * * * * * * * * //

dimensions      [0 0 0 1 0 0 0];

internalField   nonuniform List<scalar> 
106891
(
301.30740781729770106
301.28537366963195154
301.26575346115737375
301.250842208624249
301.241852932544532
301.24116720084265353
301.24838059666876688
301.26582996580776808
301.29122736950677108
301.32589723015070149
301.36487499189144046
298.76936253192218373
298.79826737292660255
298.82117353689255879
298.83101150024157278
298.82534446658820571
298.8075897797003222
298.78612838956212272
298.7711688228992557
298.76984842546147547
298.78329260485071472
298.80528120885776389
298.82568484262475295
298.8358288409853003
298.83301412909662531
298.82173636962005503
298.81068741329960403
298.80801438495842604
298.81781550069285913
298.84035659233688875
298.87428867533157018
298.91878287492926347
298.97318847251654006
299.03433277796773382
299.09460638420290479
299.14331209164623715
299.17089291225619263
299.17336623261712703
299.15464438672893266
299.12316230415507334
299.08968325187794335
299.06324596200312271
299.04911558972321473
299.04886363316569486
299.06093821103229402
299.08129508075177228
299.10452898832949131
299.12528128406916039
299.14047967857430876
301.41525737018042719
301.41342557531822877
301.41249637894452462
301.41126388349732679
301.40833867714417238
301.40250789943678456
301.3928881292368942
301.3793499311522055
301.36236798686621796
301.34330453591235255
301.32404918396122184
301.30656028154612613
301.2931156610538892
301.28537992309907168
301.28530939214954287
301.29310639043376341
301.30988237007187536
301.33441963263521757
301.36584685361691527
301.40126989979950167
298.77410506253380618
298.79411397671680106
298.80317436242052054
298.79963988203934377
298.78707796461276303
298.77316342280079198
298.76686195674551527
298.77418917296364498
298.79551754483139803
298.82453573566857585
298.85076601839381283
298.86541929030266829
298.86588450550118523
298.85595020720802495
298.84403176008783021
298.83809935264906699
298.84256399456933195
298.85823271017318348
298.88441092977052449
298.92140927933718331
298.96995093049707748
299.0279448216409719
299.08846325027195689
299.14056168194923657
299.17359901593977156
299.18205415803618052
299.16759986890758682
299.13846387839043928
299.10545139434458406
299.07793634455885012
299.06228091760635834
299.06113289380283504
299.07418034488733838
299.0983492352745543
299.12836955136634742
299.15766700035447911
301.42054333664697197
301.41990946965285048
301.42087857295274489
301.42256593907677598
301.42378838221515025
301.42325260112215801
301.42011426608809188
301.41391890227595241
301.40460873385643481
301.3928581645134841
301.37948021604660198
301.36598591860331453
301.35395476332649878
301.34516556167875478
301.34110954768215151
301.34283211622971521
301.35118264814173017
301.36655935091692982
301.38746372876340729
301.41338650351497108
298.77548161598349452
298.78684861079693746
298.78929821558529056
298.78333640001437743
298.77329971552939014
298.76569251613830147
298.7672977396636611
298.78203425950874816
298.809017620868417
298.84230913520053718
298.87252107313889837
298.8913928469830239
298.89614556931672951
298.8900192789037078
298.88008706702873951
298.87357155111084239
298.87499439343565655
298.88610081502633875
298.90761312043463249
298.94074816824212348
298.98666666348066201
299.04328581229822248
299.1038735098332495
299.15819862327407463
299.19552212630787835
299.2091237809996187
299.19920553161182397
299.17286351921569576
299.14002472674013688
299.11051316510827291
299.09107763682561654
299.08597233504679025
299.09604449516058366
299.11992474481428417
299.15269311737745284
299.18690954230135048
301.4199821377495141
301.42342835947295043
301.4279446451053559
301.43248057885978142
301.43601924329124131
301.43759520544392672
301.4368081914301456
301.43337880367056414
301.42770220703988571
301.41998623343107511
301.4111699335527419
301.40187760004999973
301.39368490195118966
301.38738924918072826
301.38439556807463759
301.38551657000675732
301.3919334283851299
301.40314708752418937
301.41876915682206572
298.78030256843197776
298.77663522280460029
298.77047472420309759
298.76518721940897194
298.76491464055845881
298.7737035019225118
298.79370089893689055
298.8233671916305525
298.85789695743790162
298.89051600183296387
298.91449932872046702
298.92638342125007966
298.92726065214054643
298.9213824377169999
298.91455605385857552
298.91182067744682627
298.91737560429407949
298.93418885178886057
298.96441243233374507
299.00802463940266307
299.06181279628248149
299.11897016535186822
299.16994872332708155
299.2051267243376742
299.21860155106634238
299.21065140031623741
299.18662778919849643
299.1563070926035266
299.12937617750833397
299.11311401494009488
299.11170736456881514
299.12635059684453154
299.15507797431286008
299.19263255143675906
301.41046411898884116
301.41566796913718917
301.42408430057469104
301.43451481246120238
301.44542778240099778
301.4553776744396032
301.46309757975404864
301.46780408993231504
301.46896242549576073
301.46682853308897165
301.4616168337901172
301.45449959475797641
301.44605713264155611
301.43764422842417616
301.43005392610251647
301.42431559753174497
301.42128017803793227
301.42136954748940525
301.42518566482374354
301.43124909444230752
298.78410057047153714
298.77871130537766931
298.77695375254830878
298.78074252178834058
298.79078498476536652
298.80729745615775528
298.83008301999689138
298.85693533949330458
298.88474565171077302
298.91006921847974809
298.93049896428465217
298.9437278617336915
298.94901728777853123
298.94714939739247939
298.94124457988760923
298.93648093866113413
298.93846120071265204
298.95211274570749538
298.97966338496502203
299.02013749031493717
299.06970760370222706
299.12200150463928594
299.16927106172994399
299.20404317969405383
299.22103947199707363
299.2192744908125519
299.202654048414729
299.17964004115435728
299.15913299175900875
299.14852439132260997
299.15181884371196475
299.16964178470971092
299.19930323621053958
301.39895374945393769
301.41196268213548137
301.42841545211604171
301.44670418554943581
301.46491407239398086
301.48103869183358938
301.4935314233327972
301.50116419999437767
301.50367260902606859
301.50106660577966977
301.49456135418836311
301.48511494635295094
301.47438387343203203
301.46364469181554568
301.45415057997115582
301.44722378939559349
301.44265807902201004
301.44191991550775356
301.44224079441119102
298.78732675458553558
298.78524531584372426
298.79227144806168326
298.80833467268581671
298.83152729618581134
298.85918116416945622
298.88859312093302378
298.91724155233686133
298.94294642145160878
298.96452831472015532
298.98098146109884965
298.99076751131224228
298.99269798291595635
298.98773677239444169
298.97998751041069454
298.9759003682863181
298.98197291975299095
299.00171306653072634
299.03485051374093473
299.07819946841686942
299.12626674172622643
299.17239740570738604
299.2091848498453146
299.23028623145313531
299.2332498186626708
299.22132373084588153
299.2014172928107314
299.18337186909610637
299.17572939240460528
299.18310194005158564
299.20555515137243674
299.23863715275967934
301.3865062809028359
301.40057710206502861
301.41939873443425313
301.44153417043594345
301.46514869851574758
301.48795880923165669
301.50792562812154074
301.52303390961105833
301.53235834150990513
301.53529247818863723
301.53263540418242883
301.52528261925039033
301.51509743270452191
301.50371270117301492
301.49249508427686806
301.48325281300822098
301.47529330835629935
301.4710897125484621
301.46649340735297073
298.82676942479577065
298.83947611663876387
298.86008297505406972
298.88618920011737146
298.91488413219582299
298.94375717045460306
298.97055656475049545
298.99361330284779115
299.01146080970295316
299.02306133853602432
299.02735989318478005
299.02420039874220947
299.01474599195972814
299.00390790503581684
298.99831274516645863
299.00417242381217875
299.02480607746673513
299.05944626741472803
299.10423357633544583
299.15354985342054306
299.20048669182443746
299.2382797750606187
299.26152589859270847
299.26752644406707304
299.258215822702482
299.24038719323272062
299.22312973060610375
299.21476789046329259
299.21988983236695958
299.2380142202883917
301.38067942999259685
301.3991501530429673
301.42275744320397735
301.4496421369123027
301.47733465496037297
301.50336433616132581
301.5251481806828906
301.54115260154890166
301.55019191688046476
301.55261969224585528
301.54908152380932052
301.5415079432294192
301.53157756054019956
301.52104212519765269
301.51198932216300364
301.50356493985782436
301.49859853229605733
301.49236839906001251
298.89660967610984699
298.91479047503236188
298.93445320360945061
298.95632415445089691
298.98101345128247885
299.00699723615525727
299.03206467011949599
299.05291405279336914
299.06624929998696416
299.07024618613928624
299.06496325605252196
299.05221193002114433
299.03650551346180464
299.02496976221431169
299.02470778177229249
299.04002420631229597
299.07084887716155208
299.11338284148155253
299.16113366050171862
299.20617404518958438
299.24169176371862022
299.26274449608428085
299.26782179796828132
299.25975428142629653
299.24566085691657236
299.23383672511448594
299.23134376047295291
299.24057211808860757
301.34419655830447482
301.3624871849617648
301.38761547861656709
301.41806613595031195
301.45139307093569414
301.48488522865005734
301.51539744072550775
301.5407762234805773
301.55903966824229201
301.57002336305583867
301.57369190736261544
301.57173755223385569
301.56560854408172645
301.55698322715352333
301.54828601769639818
301.53853065865115468
301.53150456149325009
301.5217042314596938
298.97253454586609678
298.98232672775009178
298.99562366671813152
299.01545211750061526
299.04123361509613233
299.0690133127928334
299.09334091234717334
299.10950098008379427
299.11494481866697015
299.10866805921489231
299.09340576952956781
299.07342267432159133
299.05581866148895642
299.04901151487035804
299.05903785902330583
299.08703867628759099
299.1288702003315052
299.17681477166706827
299.22115181889557789
299.25358255316314171
299.26975533167978938
299.26969604997128727
299.25813166438911139
299.24292872611567873
299.23260664143930398
299.23322095047740277
299.24624033577970295
301.33620174924607227
301.36378039294783093
301.39813276734116698
301.43673213936602906
301.47668865160216001
301.51459145623118729
301.54792670289754142
301.57428742044618275
301.59307496068760202
301.60378925166924091
301.60791954719707064
301.60650285429505857
301.60143350528153405
301.59491529582919611
301.58609536256443562
301.57891412744925219
301.56768190408558894
299.00265248145279884
299.01247524766739616
299.02739213413951802
299.05045586006315261
299.08118543672037504
299.11615821354837408
299.14850152123568705
299.17118794513243074
299.17881042814036618
299.16914962679294376
299.14470329022270789
299.11207380433802427
299.08073994443526544
299.06056346051474293
299.05861737065220041
299.07771505231806941
299.1155253077814109
299.16454130337757533
299.21441424882988258
299.255775948472035
299.28154902893646749
299.28877477333907109
299.27981593712513586
299.26121250778732019
299.24146655156715724
299.228656604642822
299.22808091987866419
301.36202580143134355
301.4028388768472837
301.44780278837856713
301.4943686456292653
301.53949652296228123
301.58096384159165382
301.61613791725761757
301.64432188363610976
301.66401390210546651
301.67614950385041084
301.68067791879064998
301.67905311146500935
301.67265863490962374
301.66060782635923943
301.64713017893342339
301.62621110086217868
299.01808266189516416
299.03260163311608721
299.05003047867347732
299.07226021028145624
299.09989952562796134
299.13210660005529462
299.16622119035241667
299.19779441264410025
299.22032994685150697
299.22658558220035729
299.21368727872538784
299.1857113198777256
299.15265755815119064
299.12650691512828871
299.11580018364247735
299.12365671782981735
299.14767037717422227
299.18145982722347753
299.21688822100406924
299.24678928887607299
299.26540167880830268
299.2698423928777629
299.26183047914969393
299.24685148608773488
299.23227300378539439
299.2253388376852854
299.23031524563100447
299.24781461396185023
301.43307359621110209
301.48380735849553957
301.53416818586998716
301.58169871338031953
301.62513811732873137
301.66278521252593237
301.69479386382676012
301.71988314617709648
301.7389424187779241
301.75080725477317856
301.75601202051046812
301.75414774252078587
301.7436151614418236
301.72691625295937001
301.69853753149487829
299.04077284102174872
299.0738121809759491
299.11010784187914169
299.14760190551550068
299.18563317344461439
299.22427272199200843
299.26099367688658504
299.28936156427795368
299.30101596530346342
299.29078054738550918
299.2599721730422857
299.21968547057377918
299.18252311755907158
299.159053650854446
299.15383716361532151
299.16547938664177764
299.18897695929371139
299.21785219654213961
299.24567035356682254
299.26647179930824905
299.27641981327440135
299.27513688507661982
299.26592205988686146
299.25469222123922464
299.24812640989426882
299.25098943271274265
299.26516766554715332
301.51498782156062362
301.57318673070869863
301.62663830063024761
301.67399587340611333
301.71372383704647291
301.74626196662836719
301.77074751556352794
301.78835850011461162
301.79794770731649578
301.80003832532304386
301.79363304208135332
301.77730150921553332
301.7524094079731185
301.7148406265802123
299.0922360417716277
299.14081655989480169
299.1887688748669234
299.23432100047580207
299.27709527080406815
299.31451055128809458
299.34033882543525351
299.34709534428952793
299.33122707901776494
299.29633852385495629
299.25318861845971696
299.21592282868368784
299.19293740842772422
299.18705877403630211
299.19514966667907174
299.21148228021866089
299.23069940974858127
299.24834303670809277
299.2609103311770582
299.26656703338989018
299.26552305287128775
299.26075491548164109
299.25737392735385356
299.2606540838547744
299.27380987062463191
299.2975604811143171
301.57257613139859131
301.63300429691429372
301.68748863314618802
301.73387515809326942
301.77218002852458767
301.80114340429440745
301.82161384914320479
301.83241418930452937
301.83393505915807964
301.82520543502306509
301.80494571553958849
301.77449902466491949
301.73003895688987086
299.15710405535747896
299.20337781149714829
299.24903946039705716
299.29495591145160915
299.33849013858474564
299.37213604743715223
299.38730687072575165
299.37921550604596632
299.35135692721877376
299.31213374789376758
299.27358389266589711
299.24495401340794842
299.22889082765988178
299.22385776139719837
299.22636508990603943
299.23341805183770248
299.24215268635583698
299.24980610876679066
299.2541860139785399
299.25433537136416362
299.2517554590627924
299.25049699375927048
299.25543061311486781
299.27026818518231721
299.29673675704094649
301.63274225237228165
301.69279582437638965
301.74639596986446577
301.79284896323861176
301.83013060364476132
301.85771526231093276
301.87370999692541318
301.8770765590385281
301.86720344999969257
301.84176647416086325
301.80402872430494199
301.74879858497337182
299.21111787808712279
299.25612186164875084
299.30331457214350621
299.35031571047352372
299.38991802000299458
299.41371296467434604
299.41634759258312215
299.39919538858481474
299.36923717786390853
299.33411492253929964
299.30220352492602842
299.27729959563072271
299.25900604571171471
299.24634478322707309
299.23901414848785407
299.23654713154115825
299.23838144325196708
299.24282849225335212
299.24801049732832325
299.25349618135118135
299.26122182413797645
299.27398266170280294
299.29467249326881984
299.32521947521490802
299.2740859326038958
299.32689358296096316
299.37721324984090643
299.41869545772505035
299.44383655488564955
299.44868628196758209
299.43378882378908656
299.40577681586557901
299.37270475649893342
299.34028573489780456
299.31212860451154256
299.28963462113893002
299.27157171716993389
299.25736167730178749
299.24782287872176312
299.24332088428030829
299.2430674792117884
299.24585198770603256
299.2513436487799936
299.26068674451323659
299.27629109105652105
299.30070656124536299
299.33519232940022903
299.36669312709534552
299.4098358435739442
299.43915152241038413
299.44995796609930494
299.44294442156950709
299.42283899077182241
299.3972158441425222
299.37172078399112252
299.34771677044608396
299.32399824643215425
299.29998570396583091
299.27591651146065033
299.25354561886695137
299.23551285345035922
299.22385823951196926
299.21936042670347433
299.22298165278203896
299.23558291839998446
299.25867716054210632
299.29340411895242369
299.33940001083891502
299.45639058923967468
299.44053187721590348
299.41760151119041211
299.39355542248449638
299.36991621396936125
299.34492692320020524
299.31678964703610291
299.28620441645313122
299.2573233243164168
299.23481304568377936
299.22202989983753696
299.22044737673553527
299.23007558348120938
299.25054052322388998
299.28155338343185576
299.32290540179997151
299.37326387901725866
299.40611683196124204
299.38138962815742161
299.35175540806250183
299.31747547348101079
299.28229247679888658
299.25200402554827406
299.23145959028107654
299.22325738121475069
299.22820213065853068
299.24667781814235923
299.27883413466906859
299.32409471596054118
299.38006357446005268
299.37533624882746608
299.35434188362586383
299.3270513214116022
299.29535015143159171
299.26429818152820417
299.23896548831049813
299.22369925482291819
299.22123738887358968
299.233899031827832
299.26325299614939013
299.30933479176445644
299.36918960099609421
298.51046687765511933
298.43687934115621374
298.40563855567387463
298.41174065204864974
298.44858490906841553
298.51205809566062044
298.59974623371459757
298.70597105219792411
298.81760888219787375
298.91684698368078443
298.98773884045152727
299.02207369755592481
299.02123931750423935
298.99408176399055037
298.9525044435450809
298.907207169055539
298.86460029883409106
298.82404650230949983
298.78036265755218892
298.72691501299362926
298.69745275227921866
298.56994170539906008
298.47565285859110418
298.42030415458583548
298.40042874672298012
298.41057562789586655
298.44908589218709949
298.51726853227256697
298.61344654117345954
298.72676302749039223
298.83824369507146912
298.9284669195690185
298.98495700352975746
299.00578706315707223
298.99807046288822221
298.97272977503678248
298.93947293762550999
298.90423889078658704
298.86684006263658375
298.82380456449317307
298.77080229249907006
298.70642485620254547
299.0507050410782881
298.9228390669902069
298.77975057481728527
298.64572614116571003
298.5400612339041686
298.47018060356344904
298.4336152294929434
298.42552570109467069
298.44497966438723324
298.49521411891197431
298.57732774697177547
298.68294549047618602
298.79358371088039803
298.88876896958981888
298.95461300677385452
298.98819447443952413
298.99587190404065495
298.98724854952638452
298.96973020337503613
298.9464251696355177
298.91611556371350389
298.8758391726245236
298.82380608308983483
298.76081516821420792
298.690149165261289
298.61779520834204504
299.13416140510321384
299.0387231870904543
298.91944119215747833
298.79494273934682269
298.68923840524922753
298.61984259469124936
298.59008702950251291
298.59099965302920054
298.61122938345044986
298.64630474928497961
298.69812844059856616
298.76882003981296521
298.85251744695682419
298.93352816527630011
298.99439851963404635
299.02572477784639204
299.02973215230161941
299.01720232926277276
298.99943053278980187
298.98205482986782044
298.96394362051591997
298.94057210109588141
298.90793899631160002
298.86626100738232026
298.81961646438310254
298.77349461592899615
298.73415458968395342
298.70784815009960766
299.0851860837718732
299.05167180842693142
299.01131288324495472
298.96722908114014672
298.93116326447324127
298.91821414676599034
298.93618452128345098
298.97822794092422782
299.02570072269867296
299.06074965407515265
299.07749432445007187
299.08234149694072812
299.08550633704271604
299.0914039419275241
299.09510338518032313
299.08814867208036503
299.06830946650802616
299.04256615902625072
299.02305614268647105
299.01891619131572497
299.03099402031705267
299.05272638793979922
299.07625970939909621
299.09735880740441871
299.11749012886770061
299.14076478832777184
299.16939170645304102
299.20215641559303776
299.2364853380669274
299.27094403024926805
299.2863430794851638
299.30454352446764688
299.3112268796176636
299.29489799726241017
299.25622861403928709
299.20950381699799436
299.17405131572957089
299.16371610495156119
299.17687497905308192
299.19883428357775301
299.21426499176953939
299.21982110885716111
299.22444015977106346
299.23883084666891818
299.26612867519565953
299.2983590680476027
299.32308135358420031
299.33509074636168634
299.34069372689771171
299.3519467343895144
299.37773727802772328
299.41711981130077902
299.46079434390424012
299.49848381479387172
299.52533487858721628
299.54356808980031701
299.5585809693540682
299.57396301680898887
299.5894529014756813
299.60393787131880572
299.61873989915125094
299.63838745824250509
299.45119842220333339
299.48732380739414793
299.51237130236097528
299.51456365943113269
299.49234558012716434
299.45986740202749843
299.43659880102285342
299.43564031930651481
299.45502785940993817
299.47902747271456292
299.49251998405560471
299.4928737170974955
299.49094111617682756
299.50031091158081153
299.52552605823677823
299.55827184107226913
299.58536357405637318
299.60097904134664759
299.61199262189563797
299.63128013671627059
299.66788579792876135
299.71975724634103244
299.77536173314450707
299.82200073835048215
299.8536243638818064
299.8724788901004672
299.88466325932193968
299.8945935800549023
299.90283826562256309
299.90881837648930741
299.9154787990083264
299.92955010634818791
299.95766537678900931
299.46712095189820957
299.46710811507233529
299.4611768733099666
299.44322100180431789
299.41055535904547469
299.3754867699708484
299.66664239196438757
299.70461820109477458
299.7318648726904371
299.73597271395755115
299.71498963665635529
299.68238030874545075
299.65813247425330701
299.65542810242607175
299.67234131045199774
299.69264262523029174
299.70104241189619643
299.69551382796726102
299.68838918973926866
299.69421090328910395
299.71777093906678147
299.7500017397604779
299.77643695975609717
299.79060756369892715
299.79965028382787295
299.81724391874826097
299.85234379810401606
299.90250186307207514
299.95531299380320434
299.99753539305839922
300.02365753149814509
300.03684247816869402
300.0438782748281028
300.04936540944663648
300.05346528591638844
300.05492065618966535
300.0565161285306317
300.06612222544094948
300.09069409657240612
300.13019117068904507
299.55288430375162534
299.57291033141251546
299.58381657745417215
299.59004590868613604
299.58407385266269785
299.56223189532926199
299.5376006315194104
299.85518718302671459
299.88856513374167889
299.91137942945096029
299.90926603308184895
299.88158700835589343
299.84127655766241105
299.80932428565188275
299.79956787467693857
299.81008950274878089
299.82423396029599871
299.82580014343875519
299.8128695914437003
299.79814306888499686
299.7967660665655103
299.81378100750407611
299.84003777284686976
299.8602412045832466
299.86749318713827961
299.86911205529764857
299.87955229463301521
299.90804551683805812
299.95230584065723178
299.99928894156801107
300.0350689695594042
300.05409495739246495
300.05991720451544325
300.05981498835745924
300.05862492558043186
300.05616992560970857
300.05077295828834849
300.04496732330710529
300.04702523594016839
300.06469042744726039
300.09809581871616047
300.136455138007193
301.31398853321496745
301.2745889312819827
301.23287249652446462
301.1924103074709933
301.15639950911617007
301.12988455122257392
301.11481527263242697
301.11588746773446701
301.13288580804226058
301.16759573702347552
301.21583369149578857
298.68023436341030674
298.70048066151673538
298.71013697640768214
298.70965421499755621
298.70169042769146017
298.68928097901670071
298.67655632721101711
298.66937325658773261
298.67286339021308095
298.68919077066004775
298.71456827925413791
298.74219978824413602
298.76406015788842296
298.77647577278116842
298.78010570520706324
298.77939370802033636
298.778847094637797
298.78120099927446063
298.78724812826988
298.79811933213812836
298.81605234575152963
298.84387218621185411
298.88311224045651215
298.93136119335986223
298.98153148089244269
299.02420667640251395
299.0514619444758182
299.06014171796181245
299.05195388638776421
299.03319790901792885
299.01198535550918223
298.99634680951385235
298.99143251534383126
298.99917447454015473
299.01809868127810432
299.04355975357765374
301.40325369416069634
301.40350985744805712
301.4052437539451148
301.40794190873003799
301.41035411258229715
301.41088234295477832
301.40749010622090509
301.39838103479399933
301.38216638536130176
301.35831438063343057
301.32749061447674421
301.29152583650778752
301.25348065842223377
301.21721598148860721
301.18658845702083227
301.16630454083599489
301.15850907467358866
301.16672828003839868
301.19040030215637671
301.22941253913165838
301.27955326486573995
298.65029893681702333
298.68008417254810638
298.70501933126189442
298.72206662274356859
298.72891487286779011
298.7249123931596273
298.71359834442438341
298.70227574302435869
298.69907513816650635
298.70919701071420604
298.73129971375180958
298.75834066277087686
298.78111315628137845
298.79356667128820391
298.79587191031873772
298.79270290460686965
298.78994835724165569
298.79210658746285389
298.80090947270565493
298.81682881229062332
298.84039795980282861
298.87197355549398026
298.91060207303053176
298.9531194624521504
298.99396157749708891
299.02650023711305494
299.04541463246329158
299.04896565724334323
299.03948118363314279
299.02304476923683296
299.00729091769835577
298.99954571460961006
299.00447681288397916
299.02324677267370134
299.05298804752834485
299.08756740889265302
301.38746215407741147
301.38665768590885818
301.38853478879997283
301.3926987824275443
301.3980364131348324
301.40282500316993719
301.40483082887965338
301.40185102933622829
301.39212991478871118
301.37471941014473487
301.35009467898942148
301.31973849713602931
301.28683231659380226
301.25513835932440543
301.2289050915946973
301.21248448307886747
301.20829654282442789
301.21883814096275955
301.24376437865061007
301.28115403465392319
301.32779291526537691
298.67524857862690624
298.71907012064872333
298.75521350970410595
298.77596754470766882
298.77873853132956583
298.7667191619635787
298.74842234745540281
298.73545897382706471
298.73635417337953868
298.75265598920202592
298.7779877049401307
298.80245725315677419
298.81748760075379323
298.82109046907316952
298.81660203399485454
298.81061668896848005
298.80944260792426803
298.81702174292394147
298.83483143131417137
298.86233797063965767
298.89739612285131898
298.93656665985514564
298.9755340252932001
299.00996160103704824
299.03591167009943774
299.0504925495374664
299.05282434362709409
299.04518324724904232
299.03217114285052958
299.02070776028597265
299.01725387357743102
299.02618701920670219
299.04811305842463298
299.07967350823111019
301.37239059634271143
301.37208381440342464
301.37551900674191074
301.38184958401950553
301.3894686675167236
301.39623204718566285
301.3999003035592068
301.39858714499143844
301.39086126796837561
301.37658562222526371
301.35651763824699856
301.33325070375406085
301.30975748328381769
301.28990147463105131
301.27723145601589749
301.27411122241505836
301.28261446568347992
301.30265796825756297
301.33232503052704487
301.36916282394463451
298.69705378924322758
298.74875631870298776
298.7894845788810585
298.81137603750624976
298.81244040075125667
298.79719460422586508
298.77622193275254858
298.76219313419858281
298.7637888280403331
298.78145908790548901
298.80770724016855411
298.83138612602090234
298.84306923885310425
298.84041171365441869
298.82866378450262346
298.81744617747432358
298.81661538418518376
298.83231635849642771
298.86491554831218309
298.90933123006396954
298.95733839524797304
299.00063195177813213
299.03354045805986061
299.05407682262421076
299.06307949534806312
299.06261735164213178
299.05499524808266187
299.04291637274144477
299.0305526045070792
299.0230228224502298
299.02538381822517977
299.04086111681010607
299.0692080610457424
299.10607341559625638
301.34436415144409693
301.34283870354374812
301.34655016765788105
301.35464470294130024
301.36563107620202118
301.3775534557962601
301.38809926049725618
301.39520022890656037
301.39716914836810702
301.39360199870702672
301.38461675861009326
301.37201886646687399
301.3579100043311314
301.34527587237664648
301.33708124557142582
301.33520503351894604
301.34192685250263821
301.35676019568217043
301.37914503044009962
301.40610546349159904
298.77569052679473316
298.81938297678198069
298.84085158647661729
298.83955930037478765
298.82279227182095838
298.80218230611382069
298.78960003894064812
298.79241793137049399
298.81034378565271936
298.83578838906345254
298.85842213532146161
298.86974683408101328
298.86724369464519668
298.85669551037403835
298.84765861099162976
298.85045360682596538
298.87143295175934554
298.9101273723383656
298.95970461745196189
299.00947411671489817
299.04950611068210264
299.07432929557273837
299.083665497050049
299.08151681174763326
299.07299251364565862
299.06176264453944214
299.05066456523366014
299.04247837490771644
299.0407116875978204
299.04865025642209275
299.0677129505484686
299.09680077292335909
301.32514300653031114
301.33018085343832126
301.34056792779023226
301.35507237116871693
301.37188723096261356
301.38878774002739647
301.40378122469508071
301.41502359348419304
301.42165320302569853
301.42320228233506896
301.42074825122364246
301.41545180021927308
301.40960823186463813
301.40547576474881453