# Forces                    
# CofR                      : (0.00000000000000000000e+00 0.00000000000000000000e+00 0.00000000000000000000e+00)
# Time                      forces(pressure viscous)	moments(pressure viscous)
0.013                       	((3.63507312027775590321e-16 1.52785928791662681760e+04 -2.42624264987135673831e-14) (4.51555233812730216769e-01 -5.54287208224807110418e-03 -1.94218628844582651138e-06)) ((7.99223087147620248061e-02 6.39111534304765648386e-15 7.32431344191081734607e+00) (-4.17533626892607162930e-06 -4.03506146822592802470e-05 -4.32355996920865057187e-02))
