# Forces                    
# CofR                      : (0.00000000000000000000e+00 0.00000000000000000000e+00 0.00000000000000000000e+00)
# Time                      forces(pressure viscous)	moments(pressure viscous)
0.014                       	((-1.16659458518118858306e-15 1.52178191843937274825e+04 -2.42152349474557448408e-14) (4.37764134505397251029e-01 -5.60281034319246550035e-03 -4.00108448266311153910e-06)) ((3.83966519671101735867e-02 6.38343250881094918349e-15 -1.29905589982786295877e+00) (-6.21972164693863013049e-06 -5.58848405285968874781e-05 -4.17879902480086037886e-02))
