/*--------------------------------*- C++ -*----------------------------------*\
  =========                 |
  \\      /  F ield         | OpenFOAM: The Open Source CFD Toolbox
   \\    /   O peration     | Website:  https://openfoam.org
    \\  /    A nd           | Version:  12
     \\/     M anipulation  |
\*---------------------------------------------------------------------------*/
FoamFile
{
    format      ascii;
    class       volScalarField;
    location    "0.0063";
    object      alphat;
}
// * * * * * * * * * * * * * * * * * * * * * * * * * * * * * * * * * * * * * //

dimensions      [1 -1 -1 0 0 0 0];

internalField   nonuniform List<scalar> 
106891
(
8.3961909397088924908e-06
8.3899098663282175653e-06
8.3825730721118546702e-06
8.3766243598987133245e-06
8.3692380182097125547e-06
8.3628489596804402419e-06
8.3546161411766449304e-06
8.347230055442211936e-06
8.3381114875000659158e-06
8.3300397732746682622e-06
8.3194420779746600396e-06
1.1341873951548622228e-05
1.139273310645529611e-05
1.1441744268365338161e-05
1.1484565154296979631e-05
1.1518591801131744474e-05
1.1543136107703323931e-05
1.1559682163390174963e-05
1.1570403115979798348e-05
1.1578340484962769481e-05
1.1586381169770719856e-05
1.1596599500771173047e-05
1.1610532182675222592e-05
1.1628344929407001811e-05
1.1649832404964070937e-05
1.167433614549185881e-05
1.1700706986696582303e-05
1.1727197565809364214e-05
1.1751898650416203252e-05
1.1773063143453160734e-05
1.1789468158071115465e-05
1.1801862093973606836e-05
1.181129739992746157e-05
1.1819410279567779302e-05
1.1827658674937458876e-05
1.1837808989820144601e-05
1.1850853586709918949e-05
1.1867959714659022865e-05
1.1890057396156010684e-05
1.191734882303450303e-05
1.1948734288607538109e-05
1.1982596139810218274e-05
1.2017040217510413562e-05
1.2049445397309997569e-05
1.2078695703283512356e-05
1.2103622807768888098e-05
1.2124295237996476335e-05
1.21396582469563336e-05
1.2149928785151564733e-05
8.9154197610748626935e-06
8.904574772016912509e-06
8.8951736165255229421e-06
8.8845412512950580494e-06
8.8754495497392215693e-06
8.8651257542167431086e-06
8.8565610805893887095e-06
8.846887478376581161e-06
8.8391457992851388281e-06
8.8303655584654462777e-06
8.8234206322285925624e-06
8.8152079281987247972e-06
8.8084913095121095036e-06
8.8001583301670131641e-06
8.7931694144528697139e-06
8.7841653897993113471e-06
8.7763934736675753456e-06
8.7665233668317508851e-06
8.7579999720116883641e-06
8.7464621233183708417e-06
1.1981068231375718408e-05
1.204265857302231962e-05
1.2096070489978850014e-05
1.2137014895307442826e-05
1.2163938052303916359e-05
1.2178544099600316326e-05
1.2184004602445356488e-05
1.2184932724024522156e-05
1.2185773818674350849e-05
1.2189981196891834368e-05
1.2200031514592666251e-05
1.2216445526425298438e-05
1.2238752922349144164e-05
1.2266011294968435274e-05
1.2296160079012374974e-05
1.2327061357423718495e-05
1.2356071309323007711e-05
1.238128699907039045e-05
1.2401247593135161166e-05
1.2416505268031098486e-05
1.242826051459914261e-05
1.2438191715874480516e-05
1.2448071772691072129e-05
1.2459972874544085464e-05
1.2475256969465381803e-05
1.2494979205201490997e-05
1.2519892597852642333e-05
1.2549943780999167582e-05
1.2583824256310779369e-05
1.2619561081660300313e-05
1.2655235556848532403e-05
1.2688928183477735928e-05
1.2718822476381207067e-05
1.2745221037840878765e-05
1.2766758390721471682e-05
1.2783531822267637113e-05
9.3780381174636877827e-06
9.3667917458474029527e-06
9.3571765464512510918e-06
9.3459370570930590835e-06
9.3364325277363511787e-06
9.3252797522533921579e-06
9.3161208375416942288e-06
9.3054471381233428031e-06
9.2969317416511139401e-06
9.287057473090003801e-06
9.2792100210683147523e-06
9.2699113081311324621e-06
9.2623182019143844389e-06
9.2529469774710828867e-06
9.2452322761873151889e-06
9.2352965121198606269e-06
9.2270596670151200104e-06
9.2164526583228133412e-06
9.2075817516938403935e-06
9.1952739233071216864e-06
1.2681472081048493792e-05
1.2712563337244087305e-05
1.2737380650610617705e-05
1.2756738317067567985e-05
1.2771600510113906646e-05
1.2783797268859608997e-05
1.2795444208566093068e-05
1.2808486457900520279e-05
1.2825164224913023029e-05
1.2846820796650182514e-05
1.2874045860882038091e-05
1.2905844245427106672e-05
1.2940613946512132012e-05
1.2976203947927548912e-05
1.3009952688191526283e-05
1.3040210059577661498e-05
1.3065657581034000194e-05
1.3085134785962014873e-05
1.309910538392466629e-05
1.3108183823250714551e-05
1.3114418648740718508e-05
1.3119741890839912001e-05
1.3126271198160529609e-05
1.3135697285957290031e-05
1.3148992166194244536e-05
1.3167167593697891176e-05
1.3190505308163817387e-05
1.3218698736330015717e-05
1.3249730455357773592e-05
1.3282379979327349847e-05
1.3314120097644390993e-05
1.3344311320692579727e-05
1.3371259001857893631e-05
1.3395738243100292349e-05
1.3416978147883795939e-05
1.3434913229367910801e-05
9.8535194076646959415e-06
9.8436317364213760263e-06
9.8316766977629504141e-06
9.8216517107383703473e-06
9.8095528425965753587e-06
9.7996546520066295092e-06
9.7877901661001902583e-06
9.7783086948382191752e-06
9.7671460688435015387e-06
9.7582522281385916917e-06
9.7476404458655623546e-06
9.7390473074187341573e-06
9.7284931268889601855e-06
9.7199662690985408906e-06
9.7089975943653855352e-06
9.7002212936621806601e-06
9.6888498505322827889e-06
9.6796624755386750303e-06
9.6666820018409897448e-06
1.3346777282990015729e-05
1.3371634587907656164e-05
1.3393061053445485758e-05
1.3413141656999193812e-05
1.3434048114360644057e-05
1.3457472344091266059e-05
1.3484125064674557204e-05
1.3514391262483497002e-05
1.3547797626949688874e-05
1.3584001506273725519e-05
1.3622290599612786295e-05
1.3660868769410814834e-05
1.3698015446180950263e-05
1.3731502547754385093e-05
1.3759281161097819895e-05
1.3780330976994187704e-05
1.3794195171658215279e-05
1.3801577056983378058e-05
1.3803738962736995913e-05
1.3803322851827044276e-05
1.3802476153328289415e-05
1.3803735931696613104e-05
1.3809241321933230548e-05
1.3821041330082326626e-05
1.3839869405179136585e-05
1.3865909499987689047e-05
1.3898550507072368314e-05
1.3936755653259553004e-05
1.3977748050734333988e-05
1.402034945961910082e-05
1.4061824327242162096e-05
1.4101376176336358662e-05
1.4137449554780890184e-05
1.4169333050741265051e-05
1.0377918790642997918e-05
1.0365765091615391065e-05
1.0355517318251392317e-05
1.03427828547807333e-05
1.0332148715159087546e-05
1.0318934699213876859e-05
1.0308134458428046289e-05
1.0294954342449582512e-05
1.0284364109903733637e-05
1.0271706123955184369e-05
1.0261597134197523971e-05
1.0249426157329410674e-05
1.0239681959937117306e-05
1.0227748873564541606e-05
1.0218330113701073428e-05
1.0206290865876386254e-05
1.0196950908423493772e-05
1.0184786214899852708e-05
1.0175219393127319159e-05
1.0161513676444133348e-05
1.4080826143712353441e-05
1.4110818438343717323e-05
1.4131295733889524566e-05
1.4144334968158744185e-05
1.415287081177236249e-05
1.4159631873873341606e-05
1.4167918380343993301e-05
1.418032754414034612e-05
1.4200068962711488683e-05
1.4228314122025281376e-05
1.4264593418496207387e-05
1.4307306275708149408e-05
1.4352379589245607767e-05
1.4395728074785455413e-05
1.4434075324790270159e-05
1.4465000766391893368e-05
1.4488015231835362433e-05
1.4503442441881563121e-05
1.4512681957763008618e-05
1.4517760989310334225e-05
1.4521436646504252849e-05
1.452619737118882803e-05
1.4534505667257419077e-05
1.4547833207756082511e-05
1.45677207125210566e-05
1.4593668517713042252e-05
1.4625470152185690082e-05
1.4660840426534223037e-05
1.4699118524533304938e-05
1.473783949027712001e-05
1.4775668296690686783e-05
1.4811576012309892516e-05
1.4845047463005335537e-05
1.0904348656936224075e-05
1.0893689060595915743e-05
1.0880113953856307456e-05
1.0868844423649136316e-05
1.0854542285968023956e-05
1.084285566920323624e-05
1.08283437164029589e-05
1.0816572332009084348e-05
1.0802312175251522743e-05
1.0790851068345421146e-05
1.0776942679372682237e-05
1.0765927823730847494e-05
1.0752412654983905122e-05
1.0741946475959182378e-05
1.0728668837986730505e-05
1.0718646356885868753e-05
1.0705679163820956782e-05
1.0695688854300524273e-05
1.0681191844785461239e-05
1.4804914403235773485e-05
1.4821612866489414345e-05
1.4834158646938529777e-05
1.4845605236326691017e-05
1.4858516162293497012e-05
1.4875243952786444348e-05
1.4897644522379833109e-05
1.4927123646582697892e-05
1.4964571359972339424e-05
1.5008833055629699891e-05
1.505712025501266029e-05
1.5105398322576699723e-05
1.5149589857974625462e-05
1.5187048688532169664e-05
1.5216327831631236225e-05
1.5237463907607415642e-05
1.5252061339416734802e-05
1.5261825513808602051e-05
1.5268604037258372947e-05
1.5274423927438979807e-05
1.528170202245734239e-05
1.5292691152792745138e-05
1.5308233883353591801e-05
1.5329706189492227212e-05
1.5356254629759040091e-05
1.5388267351567722513e-05
1.5423207982022406917e-05
1.5460608158877028916e-05
1.5498142958230221099e-05
1.5534823922031638444e-05
1.5569624894274393639e-05
1.5602072663145202331e-05
1.1470245554948772367e-05
1.1459088648790717553e-05
1.1444689783413051996e-05
1.1432870056822744338e-05
1.1417604624369283076e-05
1.1405167447494536642e-05
1.1389465086830557892e-05
1.1376608309354801794e-05
1.136079314482891771e-05
1.13479410021803296e-05
1.1332246828560695723e-05
1.1319783940545138757e-05
1.1304548063052810285e-05
1.1292884028754326877e-05
1.1278272379071318423e-05
1.1267377015952708837e-05
1.125346972050210353e-05
1.1242958583118455837e-05
1.1227596088118090874e-05
1.5578412875771263321e-05
1.5589824238687443735e-05
1.5603707706130524386e-05
1.5622923028584734852e-05
1.5648875987642063291e-05
1.5682387794093847398e-05
1.5723090012397290691e-05
1.5769860419260902328e-05
1.5820724350166623682e-05
1.5872320393236951774e-05
1.5921174097776155432e-05
1.5963809981779056058e-05
1.5998084564694908897e-05
1.6023806267430304359e-05
1.6042256291284408748e-05
1.6055086693518217018e-05
1.6064235362529722149e-05
1.607179936969334533e-05
1.607889418768491984e-05
1.6087974082167774107e-05
1.6100181538017130579e-05
1.6117517080920377076e-05
1.6139090729744283534e-05
1.6165502365145154832e-05
1.6196184785956747654e-05
1.623009187088181825e-05
1.6265269372725454293e-05
1.6300720607704763127e-05
1.6335531409438902437e-05
1.6368756487854993476e-05
1.2054236491147276217e-05
1.2039109345055578891e-05
1.2026869901246367976e-05
1.2010901374327527066e-05
1.1997902278998335841e-05
1.1981206168806223837e-05
1.1967401994598971096e-05
1.1950189929800989665e-05
1.193601007259295933e-05
1.191862526077010399e-05
1.1904752763695498536e-05
1.1887845503914884016e-05
1.187492089457503478e-05
1.1858956916359453967e-05
1.1847082726037351459e-05
1.1832141416840556605e-05
1.1821035494630711946e-05
1.1805046661138846715e-05
1.6389383356612362812e-05
1.6412178078370749347e-05
1.6440503814066192279e-05
1.6475236603914419648e-05
1.6515384643981884588e-05
1.6558784004717412092e-05
1.6603867198853305422e-05
1.6649893319537794391e-05
1.669527615496718177e-05
1.6739004348495857587e-05
1.6779242511432782963e-05
1.6814246947679077361e-05
1.6843202281048642627e-05
1.6865931317245316573e-05
1.6882184735329869481e-05
1.6893910188977260292e-05
1.6902007751823172003e-05
1.6909382198613971253e-05
1.6916738163260237968e-05
1.6927418544554065697e-05
1.6941965179867923065e-05
1.6961175429349953397e-05
1.6984664394971295644e-05
1.701245212124638878e-05
1.7043907930524643057e-05
1.7077441218874146029e-05
1.7112744049231777527e-05
1.7148811279236860031e-05
1.269746383751685271e-05
1.2682375851210380614e-05
1.2669850381168656884e-05
1.2653918438575310131e-05
1.264053673339478563e-05
1.2623510762999241592e-05
1.2608907325509279289e-05
1.2590962548293777612e-05
1.2575619381732189924e-05
1.2557186555187212345e-05
1.2542168203411078559e-05
1.2524200655053605144e-05
1.2510261505038210408e-05
1.2493418111510766634e-05
1.2480761062481723306e-05
1.2465125333668165616e-05
1.2453501098507962935e-05
1.2437839701182606402e-05
1.7281500330384981322e-05
1.7307701717250972145e-05
1.7336686404345937344e-05
1.7369879019455015658e-05
1.7406399097331441787e-05
1.7444851433390074711e-05
1.7483616278950819638e-05
1.7521532756793339213e-05
1.7558848599055266494e-05
1.7595522711118658556e-05
1.7630918543707148918e-05
1.7664288062071391018e-05
1.7694485035308829676e-05
1.7719951282572141799e-05
1.7741446393265456025e-05
1.7758712317205750664e-05
1.7774225538915214127e-05
1.7788744407394355119e-05
1.7805494253342941024e-05
1.7824966666088989714e-05
1.7848123416911367299e-05
1.7874415085932821186e-05
1.7903776551924944485e-05
1.7935287520290877554e-05
1.7968259774332072029e-05
1.8002533559185299769e-05
1.8037481590890420535e-05
1.3286347208717333036e-05
1.3268900009765508203e-05
1.3252961374120017645e-05
1.3234579961144363145e-05
1.3217407058235094685e-05
1.3197138814600098078e-05
1.3179040534843419736e-05
1.3157583279977256682e-05
1.3139048856344001353e-05
1.3118019975628707403e-05
1.3100074390932607633e-05
1.3080287062702215529e-05
1.3063547301562065554e-05
1.3045135367649652157e-05
1.3029514721746499319e-05
1.3011909118721533293e-05
1.2997118681897869261e-05
1.8056717611005040577e-05
1.8062496963979548245e-05
1.8064435260470927241e-05
1.806906364859236041e-05
1.8081698667037647609e-05
1.8104572504150360683e-05
1.8136987891489143279e-05
1.8177086393157404216e-05
1.8221845669991126946e-05
1.8268239973097263006e-05
1.8314307094155400727e-05
1.8357143097043116436e-05
1.8394183745717731474e-05
1.8423289119210617588e-05
1.8444163926114508857e-05
1.8456856084551356395e-05
1.8464592553118021106e-05
1.8469412046785877601e-05
1.8475681331872172169e-05
1.8485392215766432999e-05
1.85006568770627659e-05
1.852174721253969022e-05
1.8548226263740954573e-05
1.8578446317800931546e-05
1.8610997216649354354e-05
1.864492287213055229e-05
1.8678911236116663223e-05
1.360836010187764389e-05
1.3591899650973427675e-05
1.3567651484406970011e-05
1.354979516714379337e-05
1.3523852771625222239e-05
1.3504655842950981856e-05
1.3477692388525506505e-05
1.345812868490617133e-05
1.3431387479190496712e-05
1.3412562205537286692e-05
1.3386867177011495448e-05
1.3369190161095461495e-05
1.3344529597285464069e-05
1.332781381677570752e-05
1.3299643187910325541e-05
1.3293439891795364396e-05
1.4133206438752312969e-05
1.4152829487622624452e-05
1.4158119627299647396e-05
1.4154342827948169294e-05
1.414776554880350504e-05
1.414034947465386164e-05
1.4132728333995273442e-05
1.4125315105959450465e-05
1.4124587814173001707e-05
1.4152409868778209005e-05
1.4223820857951151761e-05
1.4289812507174735819e-05
1.4344405282572056127e-05
1.4385559110534805666e-05
1.4412707893940265681e-05
1.4428079990789558821e-05
1.4434121585506839376e-05
1.4435507839081696604e-05
1.443564283946545263e-05
1.4439002120046239756e-05
1.4447672358962594145e-05
1.446358855565134037e-05
1.4486318674826125936e-05
1.4514874272438378928e-05
1.4546941390717406427e-05
1.4580550679343604127e-05
1.461403924484752912e-05
1.4645615093716525098e-05
1.0569380058978496964e-05
1.0550945385164274264e-05
1.0537108746393874183e-05
1.051745117134273886e-05
1.0502907465157204373e-05
1.0482746291108233785e-05
1.0468220264675267181e-05
1.0448418015658448272e-05
1.0434480921652541834e-05
1.0415289544601478327e-05
1.0402026701047925841e-05
1.0383340598151897849e-05
1.0370500687494769431e-05
1.0349064159009651782e-05
1.0346655137197296599e-05
1.3414956901350623075e-05
1.3420782652330101093e-05
1.3420922981280500831e-05
1.3422206745946566319e-05
1.342968975682648905e-05
1.3446269989538670383e-05
1.347179205851630397e-05
1.3505223035288117952e-05
1.3543785592172117167e-05
1.3583732505018858899e-05
1.3621431720776362037e-05
1.3653715776770472052e-05
1.3678441494435867213e-05
1.3694627007154885437e-05
1.370315094491030575e-05
1.370532678912271768e-05
1.3704407197492795493e-05
1.3702908603278343174e-05
1.370417192184199322e-05
1.3709796783127546526e-05
1.3722048898409455942e-05
1.3741030067098580379e-05
1.3766693458473185251e-05
1.3797595443196004618e-05
1.3831679520534776256e-05
1.3867009976111811041e-05
1.3901643188282153011e-05
1.0066505979747453081e-05
1.005409524134011084e-05
1.0036952775705955483e-05
1.0024154703846800224e-05
1.0006880463317256854e-05
9.9943138614531553814e-06
9.9774345155817366376e-06
9.9653836269940550171e-06
9.9489222506901622091e-06
9.9372285160808916616e-06
9.9208398019379159973e-06
9.9091825996876247481e-06
9.8908846384404571324e-06
9.8828401130394477923e-06
1.2889461994888115731e-05
1.2904804287267862816e-05
1.2919891343585691309e-05
1.2937034866850797191e-05
1.2958073147961199194e-05
1.2983544397004637803e-05
1.3012568038956372232e-05
1.304365126003085906e-05
1.3074739489636008174e-05
1.3103357295561797536e-05
1.3127655244935390732e-05
1.314668327773354076e-05
1.3160187865354540184e-05
1.3168973945830038364e-05
1.3174236202933463168e-05
1.317780858057957346e-05
1.3181103961562103097e-05
1.3186500046582646262e-05
1.3194964091043491917e-05
1.3208443203541193648e-05
1.3227017227510693605e-05
1.3250882831530307556e-05
1.3278595040432970229e-05
1.330852743240837165e-05
1.3338725468538570158e-05
1.3367236670552350115e-05
9.6874893400976890261e-06
9.6713300637455638497e-06
9.6593734844706980711e-06
9.643225018876015205e-06
9.6316369125205418691e-06
9.6159504367691466957e-06
9.6047815394365793963e-06
9.5892964457462863729e-06
9.5782106232119447302e-06
9.5624376434771281421e-06
9.5511147280436636792e-06
9.5336474133281816644e-06
9.5250371544044914362e-06
1.2424394091387725792e-05
1.2436054552876587328e-05
1.2450140673158815367e-05
1.2468103940688192671e-05
1.2490295606251727205e-05
1.2515359114789540777e-05
1.2541853672514787467e-05
1.2567927490394059173e-05
1.2591676427713087614e-05
1.2612120794499872853e-05
1.2628810515512216314e-05
1.2641420322601727572e-05
1.2650500435709814706e-05
1.2656942821919659359e-05
1.2661959862574630905e-05
1.2666687608500520385e-05
1.2673257214107918218e-05
1.2682529705670732978e-05
1.2696440053220235794e-05
1.271528708071041138e-05
1.2739263223676082476e-05
1.2767096669406186821e-05
1.2797154796501320666e-05
1.2827480461716367699e-05
1.2856145784375223412e-05
9.30568611006055557e-06
9.2944372441592611525e-06
9.2791116914290721349e-06
9.2682184981440282346e-06
9.2533277571007492606e-06
9.2427716987614388694e-06
9.2279518903509809822e-06
9.2173066811079736445e-06
9.2020250452622755514e-06
9.1910206659496260733e-06
9.1739530713661158882e-06
9.1655034590564569795e-06
1.199717943045161363e-05
1.2011137965201357144e-05
1.2028514236563767853e-05
1.204957049486792895e-05
1.2073724871316341635e-05
1.2098837513396641939e-05
1.2123016200048458032e-05
1.2145088947596424501e-05
1.2164051681753383806e-05
1.2179156655633912893e-05
1.2190474047922610296e-05
1.2198299376748108838e-05
1.220329615769275018e-05
1.2207214067624481906e-05
1.221120325121708111e-05
1.2217413152388486127e-05
1.2226790885357590472e-05
1.2241399466674301528e-05
1.2261235328739361356e-05
1.228653809315052964e-05
1.2315838453508523364e-05
1.2347307437798530263e-05
1.2378890660378736143e-05
1.2408411807345355468e-05
1.157395521269759962e-05
1.159005640094459804e-05
1.1609289830969117205e-05
1.1630693271264991006e-05
1.165321672877978805e-05
1.1675079440250409402e-05
1.1695051613379329068e-05
1.1712177508850011545e-05
1.172576381036961494e-05
1.1735358714638444586e-05
1.1741588382362649478e-05
1.1745118240117863461e-05
1.1747684867252178266e-05
1.1750829390348208783e-05
1.1756769713021114377e-05
1.1766262993109546153e-05
1.1780858910355535688e-05
1.1800377986624637779e-05
1.1824613078354593876e-05
1.1851945579787654493e-05
1.1880568133047436107e-05
1.1908445532833750394e-05
1.1933730739495562975e-05
1.1199421478937841723e-05
1.1234646165141182225e-05
1.1267216670775751739e-05
1.1295625180956038648e-05
1.1318422996608018787e-05
1.1335137995958488911e-05
1.1345952699178936477e-05
1.1351460584772805575e-05
1.1352854936023936493e-05
1.1351667976184558282e-05
1.1350031644240336895e-05
1.1349288979483474396e-05
1.1351822428332515418e-05
1.1358019484988525022e-05
1.1368790672402168216e-05
1.1383823841174949302e-05
1.1402599787903724087e-05
1.142390766628535743e-05
1.1446131540782911751e-05
1.1467827756073669862e-05
1.1487682165356271938e-05
1.0898490268855330255e-05
1.0921421210955658802e-05
1.0936435445313794106e-05
1.0942789400476060632e-05
1.0941586886178782033e-05
1.0934852548330901401e-05
1.092587178183315928e-05
1.0917077846636655741e-05
1.0910978027955230642e-05
1.0909778975251339871e-05
1.0914295444626606005e-05
1.0924235612127439877e-05
1.0939360429155313821e-05
1.0958232904803984504e-05
1.0979233384972973014e-05
1.1000725358939718106e-05
1.1021009314925614449e-05
1.0555202661922684408e-05
1.0548156121657283632e-05
1.0538441957604144792e-05
1.0528983691581519176e-05
1.0521812361925729135e-05
1.0519903544863449298e-05
1.0524442391633064502e-05
1.053423257639844206e-05
1.0548858045388438383e-05
1.0567266316718554802e-05
1.0588059720482669761e-05
1.0609779113005740747e-05
1.0630674367958835796e-05
1.0128040736802195067e-05
1.0121410463919392996e-05
1.0114905337594182295e-05
1.0111392358601245051e-05
1.0112612035818614246e-05
1.0119951508696013273e-05
1.0132809433399157938e-05
1.0151132046866740531e-05
1.0172918477008841801e-05
1.0196389855117537311e-05
1.0219693122670827222e-05
1.0241031273560932446e-05
5.0756509874634275393e-06
5.0774910042569009261e-06
5.0916441143294206674e-06
5.1439349062073157475e-06
5.3190192737513454906e-06
5.6677662876037807215e-06
5.9407315784633174128e-06
6.1081926522255922398e-06
6.1802813688244426872e-06
6.1906093622507907251e-06
6.1777103738926664146e-06
6.1379372520595287943e-06
5.9949426030961683543e-06
5.7541284853045934574e-06
5.5766332908964441422e-06
5.4709618511012971e-06
5.4251398002649530789e-06
5.4150830145515239524e-06
5.4179946106205475391e-06
5.4508552295612523872e-06
7.0796910046752700553e-06
7.0276169068060090033e-06
7.0154598008801382481e-06
7.0206419736708719742e-06
7.0493867333192982306e-06
7.1561009921453535811e-06
7.4881098535235633384e-06
7.8934509310397892533e-06
8.1663732908095413156e-06
8.3109780194730133916e-06
8.3544026352619927254e-06
8.3461600543420970893e-06
8.3150196708835786077e-06
8.2043198236042673432e-06
7.8877947742761251091e-06
7.5781737610746072249e-06
7.3803428805329827721e-06
7.2866711656958464108e-06
7.2628145891848831851e-06
7.265733835386734677e-06
7.3044247006355645272e-06
7.4678355639126867209e-06
1.2427686670427268582e-05
1.2326096678452256773e-05
1.22911831163552002e-05
1.228697713954363467e-05
1.2306763926016181998e-05
1.2389181405544209453e-05
1.264537510386547972e-05
1.2990587468007656799e-05
1.3236985556510728865e-05
1.3367248779090433176e-05
1.3402924872529322373e-05
1.3391033774653596987e-05
1.3355782903860896775e-05
1.326780038814456097e-05
1.3027313605865894564e-05
1.2671419470275479714e-05
1.2398935084435286624e-05
1.2235151810728092236e-05
1.2171466261794623381e-05
1.2167244858766113389e-05
1.2184349527883179387e-05
1.2261668660903793561e-05
1.2474642364955645341e-05
1.2655425138973750259e-05
1.2741155369289511914e-05
1.2758754098155734489e-05
2.8183180403097741633e-05
2.8166091247634137676e-05
2.8180701024276535646e-05
2.8275175778291973045e-05
2.8563800666841781016e-05
2.894403687987762337e-05
2.9306301132469288835e-05
2.9599724383243071935e-05
2.9775142851717043322e-05
2.9837790087694588347e-05
2.9832641092151853551e-05
2.9788212121117593496e-05
2.9656014845393156133e-05
2.9299381535520274575e-05
2.8851497603372706896e-05
2.85079543091953671e-05
2.8310058418152559892e-05
2.8238045405967397125e-05
2.8231931890009990876e-05
2.8287122936236954032e-05
2.852025966460856578e-05
2.8925702518594870302e-05
2.9198129030888377976e-05
2.9322268213768911337e-05
2.933177921955026755e-05
2.929519950302752847e-05
2.9196689869103313359e-05
2.8920935995980223552e-05
6.3885341645809437289e-05
6.3943750663684147183e-05
6.4155572904498877284e-05
6.4395200196823036481e-05
6.4618978430619372394e-05
6.4811543846928103599e-05
6.493495387145130685e-05
6.4976453416386694209e-05
6.4959243567769278595e-05
6.4895494975875548196e-05
6.4729434570881256954e-05
6.4368981994999480622e-05
6.3961633799047498683e-05
6.361530349643254134e-05
6.334820703403256769e-05
6.3183713377545859449e-05
6.3113787010011824239e-05
6.3096316291025021411e-05
6.3140984637063556247e-05
6.3342568057391264295e-05
6.3576180604045081572e-05
6.3708297790985562851e-05
6.3740519216130169574e-05
6.3701718634784213532e-05
6.3625094920030143635e-05
6.345195244513899234e-05
6.3095957554180104082e-05
6.2748921608537616386e-05
6.2465643178693104317e-05
6.2267617508866487941e-05
0.0001013091660320958971
0.00010122214279352265316
0.00010113767747072596617
0.000101033580699832424
0.00010089674658928649139
0.00010072510383090315343
0.00010052134166947311828
0.00010028618492556312517
0.0001000192580088237707
9.9722918537644997879e-05
9.9409247587933061998e-05
9.9097685569917394661e-05
9.8809977434120128091e-05
9.8566117096262852908e-05
9.8377118373087763642e-05
9.8238104130956858452e-05
9.813591547736974193e-05
9.80501795903022087e-05
9.7957066305082231045e-05
9.7839284242966616657e-05
9.7686872000421671493e-05
9.7497916893525885234e-05
9.7276600490351652038e-05
9.7033343201140498336e-05
9.6782242456958233611e-05
9.6538990981922989296e-05
9.6315992734104545069e-05
9.6122067497531746218e-05
9.5957345189143507485e-05
9.5816758795954121868e-05
9.5689591593490380163e-05
9.5562498403422663175e-05
0.00012333101801934303211
0.00012310645949452125912
0.00012287171335376517408
0.00012261166381901208349
0.0001223306686394233728
0.00012204741659348752262
0.00012178123919712698152
0.00012154047059637414381
0.00012131889577498604035
0.00012110552497981064059
0.00012089151893453929296
0.00012067255469635640582
0.00012044935952359210206
0.00012022580751539372669
0.0001200059531825795788
0.00011979126940360008762
0.00011957949653715084775
0.00011936665065336558595
0.00011915070147204671837
0.00011893368207458059386
0.0001187191048731269465
0.00011850979550281769842
0.00011830423170851379661
0.00011809949963601473982
0.00011789318988113648052
0.00011768621224172712075
0.00011748000605792639772
0.00011727665598371666688
0.00011707695404709333596
0.00011688244831770072229
0.00011669241092650224417
0.00011650491316711220633
0.0001163136670136384642
0.00016209682645998223878
0.00016115240212502914864
0.00016017761858330156017
0.00015921058626343085663
0.00015831608026706025789
0.00015753220780764646582
0.00013516008136679925769
0.00013495483030238263024
0.00013473873563470809326
0.00013449735282207241722
0.00013423812194951088503
0.0001339836132689303566
0.00013375482752160476867
0.00013355797669134650122
0.00013338275222940585828
0.0001332109969260001736
0.00013302887644499583044
0.00013283112235701536436
0.00013261898600754667087
0.00013239822287392736394
0.00013217592934651898533
0.00013195662169457287867
0.00013174078619171197477
0.00013152607967719480149
0.00013131090981611441646
0.00013109805967594312598
0.00013089153283517437031
0.00013069262412570271351
0.00013049770704020162188
0.00013030108132360655195
0.00013009934828925543023
0.00012989281659619663668
0.00012968284110685953194
0.00012947101624730984748
0.00012925938509625512678
0.00012905052616611116197
0.00012884651555529645834
0.00012864549630251892421
0.00012844242744210098892
0.00012823139024613808387
0.00015583032923443526424
0.00015491712563216433383
0.00015398287938629085458
0.00015303837813238324161
0.0001521404295710350376
0.00015134933337580127959
0.00015066744266697141012
0.00013315690552826841414
0.00013297969094328774805
0.00013277151586316591147
0.00013252949377135677376
0.00013227366503015488587
0.00013203228687301164562
0.00013182218940957512749
0.00013163757888692777351
0.00013145718376997137964
0.00013125889353918153857
0.00013103235926120599124
0.00013078026565713826018
0.000130511965522137432
0.00013023856519941975972
0.00012996888197195420969
0.00012970649380638260605
0.00012944977328701410689
0.00012919549167504822194
0.00012894303964864690286
0.00012869687585164918463
0.00012846093265163688259
0.00012823470946882946191
0.00012801309726554469448
0.00012779043793773332675
0.00012756631794052125965
0.00012734457953787766782
0.00012712939819735431693
0.00012692340149955672318
0.00012672812433870051961
0.00012654449656137150269
0.00012637165774065167115
0.00012620495451572791876
0.00012603831795172191891
0.00012586902098266116237
0.00012570047645978711702
7.9313370784500762136e-08
7.9377185953182434023e-08
7.9569983129698037277e-08
7.972347467679408587e-08
7.9899259146692573278e-08
8.0279315362595843983e-08
8.0472100753776419368e-08
8.0884024594343146142e-08
8.1351024269211124435e-08
8.1561745005458479649e-08
8.1973982949934338785e-08
6.9802666241012167891e-07
6.9764218020011842806e-07
6.9705812131957619657e-07
6.9593178601357336443e-07
6.9328783475185091592e-07
6.9011232740099789179e-07
6.8747114283676056954e-07
6.8541272192606420989e-07
6.8393822566555771509e-07
6.8292793796834465747e-07
6.8220533267069008425e-07
6.8159793200122817591e-07
6.8099838551895409914e-07
6.8033446085652991732e-07
6.7973509698586585181e-07
6.7925776977968272638e-07
6.7885636499088844147e-07
6.7845232966401085404e-07
6.7807342262196957832e-07
6.7770729803868642061e-07
6.7734872921255742126e-07
6.7696730803391661053e-07
6.7637336616332885861e-07
6.7503705032674934612e-07
6.7251223727960392797e-07
6.6993979907444444297e-07
6.6750223751419434499e-07
6.6524509401178720039e-07
6.6317108760349234111e-07
6.6128475732874947504e-07
6.5956663819983466289e-07
6.5799965678263918524e-07
6.5658409264839883861e-07
6.553626663346014097e-07
6.5437588951653088574e-07
6.5364379285955856572e-07
8.259538152439783141e-08
8.2638176453062576048e-08
8.272512560922239706e-08
8.277605363547662842e-08
8.2828427224320482589e-08
8.284230666225030754e-08
8.2934087685186660846e-08
8.3039313221820290568e-08
8.3150148709587684571e-08
8.3286777239023931246e-08
8.3388633063101213558e-08
8.3412392551539890642e-08
8.3531875895960210323e-08
8.3637761829346307867e-08
8.3762143498681616684e-08
8.4100503949910171176e-08
8.4272204557160062161e-08
8.4667561435450939435e-08
8.5110625294013781516e-08
8.5324463041884537415e-08
8.5734413577835839189e-08
7.0729129038410291568e-07
7.0598122180229823372e-07
7.0466302973107407146e-07