/*--------------------------------*- C++ -*----------------------------------*\
  =========                 |
  \\      /  F ield         | OpenFOAM: The Open Source CFD Toolbox
   \\    /   O peration     | Website:  https://openfoam.org
    \\  /    A nd           | Version:  12
     \\/     M anipulation  |
\*---------------------------------------------------------------------------*/
FoamFile
{
    format      ascii;
    class       volScalarField;
    location    "0.0063";
    object      p_0;
}
// * * * * * * * * * * * * * * * * * * * * * * * * * * * * * * * * * * * * * //

dimensions      [1 -1 -2 0 0 0 0];

internalField   nonuniform List<scalar> 
106891
(
99208.996784354487318
99226.938855448664981
99246.228470439673401
99264.993170531844953
99281.098565998312552
99292.576978099401458
99297.974796518552466
99296.776993514184142
99289.483532599115279
99277.311255009102752
99262.198928524856456
99110.245887567536556
99133.676689485349925
99149.519396626070375
99157.425042780392687
99158.40524577247561
99154.533242333665839
99148.978915581334149
99143.926229602715466
99141.091131566121476
99140.783866137469886
99141.285980393571663
99139.991206039630924
99135.619916596275289
99130.682408568085521
99130.971969923644792
99142.273284914539545
99166.051799946464598
99198.045279979312909
99231.190249390856479
99258.899222916777944
99277.658225876264623
99287.154535794528783
99288.133523578202585
99280.903249376104213
99265.5843576733605
99244.533780153287807
99223.336170407055761
99210.024916249967646
99211.53549589512113
99229.478313586791046
99259.313775977338082
99292.971464192305575
99323.733290228105034
99349.444675965627539
99371.937801537089399
99394.115350564694381
99416.984045477234758
99438.435633148401394
99214.585697306072689
99206.762938625441166
99199.148572718535434
99192.262013027197099
99186.792006146031781
99183.694976126163965
99183.933644689284847
99188.191405615973054
99196.814793277459103
99209.558179000523523
99225.368457176737138
99242.609883610915858
99259.556064127915306
99274.525702945087687
99285.987489684499451
99292.632326640974497
99293.692534238231019
99289.167711370260804
99279.725301718659466
99266.875531475889147
99132.000407665720559
99145.600953613466118
99147.930070551810786
99143.726792806046433
99138.3194917836081
99134.494284260159475
99133.428768152400153
99134.771651714647305
99136.682749572501052
99136.455144550927798
99132.296851164428517
99124.672930848188116
99117.779622206988279
99117.904064352551359
99131.112174195819534
99158.736088318139082
99195.905591906019254
99234.839079871715512
99267.518648985642358
99289.140697994356742
99298.823067931763944
99297.537968625620124
99286.800374307000311
99268.954310999964946
99247.620735956050339
99228.431456936246832
99218.133429608249571
99221.301405616628472
99237.793168588657863
99262.637038251297781
99289.08739731858077
99312.721219693441526
99333.578756347444141
99354.788917956699152
99378.653771242767107
99403.985534927938716
99210.220551804406568
99207.913510445607244
99204.605057991037029
99200.582878413595608
99196.548243167882902
99193.46767905598972
99192.472550490885624
99194.510308442870155
99200.087035855933209
99209.215527566950186
99221.336578266767901
99235.282756494445493
99249.514552143169567
99262.503706807110575
99273.028427052617189
99280.147551497080713
99283.242782889545197
99282.031771611509612
99276.555838149783085
99267.629137873635045
99125.721057822447619
99133.932676808952237
99131.027382248343201
99123.835705581383081
99118.868821951851714
99119.208145854601753
99124.067400820509647
99130.208363531084615
99134.191105895020883
99133.209848257611156
99127.080565921845846
99119.070215277388343
99114.3396676005068
99118.362769336556084
99134.65455692706746
99163.530795152371866
99200.576927502464969
99238.366526932150009
99269.618127677240409
99289.683074725413462
99297.525123566447292
99294.400966492728912
99282.470904602101655
99265.472964776316076
99247.647750498043024
99233.880431947050965
99228.609640254057012
99233.807222986783017
99247.781320885478635
99265.828039531450486
99283.298135125922272
99298.350359303018195
99312.979253701341804
99331.169864742667414
99354.746462026145309
99380.802959343069233
99211.328347239090363
99212.185249371977989
99210.859815083807916
99207.924378318843083
99204.376696342020296
99201.409382592551992
99200.191234549682122
99201.561605536218849
99205.856495804473525
99212.900001589528983
99222.066475912783062
99232.363168928699451
99242.595481044671033
99251.691365893537295
99258.795457873042324
99263.391430032948847
99265.177251985747716
99263.896406031475635
99259.804028869766626
99114.283949725984712
99108.08551233210892
99100.186605415699887
99097.997431265306659
99104.429601512936642
99116.31330500295735
99127.283309359758277
99132.396452792047057
99131.249990650685504
99126.032285382883856
99121.891144640656421
99124.23488399341295
99135.373230516037438
99154.947523937997175
99180.435147476833663
99209.248351808200823
99237.764783957449254
99261.104897028068081
99275.745285631710431
99280.797531108371913
99277.282664975267835
99267.594139504915802
99255.12757887749467
99243.805886401081807
99237.268001183925662
99237.346850384346908
99243.873284540793975
99254.69860542177048
99266.055627545923926
99275.037351057268097
99281.910038644433371
99289.969628294114955
99303.422224059395376
99323.963627679841011
99210.343433216243284
99217.891849960753461
99222.230488094079192
99223.092601088006631
99220.879057335521793
99216.509056017326657
99211.188779066447751
99206.179027410034905
99202.554544912694837
99201.008198752620956
99201.788393411232391
99204.781550863801385
99209.625705823258613
99215.737984229053836
99222.42858066658664
99228.908042529219529
99234.495973599056015
99238.662193815398496
99240.965959657842177
99241.441855289929663
99089.946665704861516
99082.941630922534387
99077.019453747692751
99079.556260876299348
99092.255520752791199
99110.264383632529643
99125.476042448033695
99132.591821195193916
99132.70723107244703
99131.796004840856767
99135.857546213403111
99147.871583545027534
99165.832647268674918
99184.782146138706594
99202.066310451162281
99216.869678295421181
99229.454708136952831
99240.331102999232826
99248.077037219394697
99251.169720180798322
99249.517884644272272
99244.619930765707977
99238.981542233086657
99235.273873716025264
99235.334870853024768
99239.509533026575809
99246.562394201173447
99254.391685529393726
99260.619169508441701
99263.803675872928579
99264.807903775799787
99266.929437959872303
99274.111528573237592
99225.208048665765091
99232.139391184755368
99234.88927400992543
99233.630258172895992
99229.066297990822932
99222.200371510232799
99214.136800879889051
99205.959148715279298
99198.62096532304713
99192.852967086088029
99189.130445309958304
99187.698470101211569
99188.55032274054247
99191.472205350917648
99195.958993325344636
99201.375088756423793
99207.011488426767755
99212.174621217825916
99216.650954465570976
99064.32966098660836
99062.356690789500135
99068.569070999976248
99084.592135046972544
99105.871848149967263
99124.452960979411728
99135.291093884108705
99139.747128409959259
99145.170110734921764
99158.023775286172167
99176.780723745105206
99196.399502914879122
99210.522846649633721
99216.17289407554199
99214.993264570352039
99211.35078028292628
99209.865212171833264
99211.587675043730997
99214.483978998614475
99216.334303789481055
99217.238679790214519
99218.751050999329891
99221.770991423647502
99226.431266253217473
99232.505481828658958
99239.307216119152145
99245.630592458692263
99249.638755696214503
99249.771531933394726
99246.565441716404166
99243.150774054854992
99243.317329200057429
99229.318318698540679
99237.774143334841938
99242.287607050850056
99242.659510301789851
99239.160201251448598
99232.388525536589441
99223.123728124701302
99212.241843071285984
99200.710314725787612
99189.543340962263756
99179.723999744630419
99172.10727887628309
99167.28707490809029
99165.559545512936893
99166.826512878687936
99170.716571143042529
99176.614788329796284
99183.775039038722753
99191.741250781444251
99061.715200297854608
99067.823166464761016
99081.265341243459261
99101.150460137680057
99122.051519296917832
99139.173555463494267
99152.508843305389746
99165.153552225208841
99180.326995666720904
99197.284280362538993
99210.880855903888005
99216.014365297349286
99210.174513400444994
99197.123955081551685
99184.471108246681979
99177.160057831089944
99175.990937798749655
99178.716601652718964
99183.019580019885325
99188.23313157382654
99194.695281784821418
99202.247688237053808
99210.295210751399281
99218.293860986625077
99225.480785213541822
99230.399477591359755
99231.577598697942449
99228.138095433852868
99220.814870533751673
99212.458374156922218
99237.019340084312716
99243.662687831209041
99246.755114570754813
99245.83484242290433
99240.821730449082679
99232.046778687203187
99220.211671837241738
99206.318662641322589
99191.576384148007492
99177.287557280331384
99164.72983417334035
99154.988648168509826
99148.852415129571455
99146.66662852060108
99148.436224038843648
99153.808031522363308
99162.135764675971586
99172.817325112540857
99076.036829618475167
99081.482563726051012
99094.664144197318819
99116.546403328058659
99142.361435502185486
99166.147036940514226
99184.86327706775046
99197.307554530285415
99203.03076913068071
99200.93185837593046
99192.186274608800886
99179.2670667636703
99165.906844951066887
99155.441794114405639
99149.22715232646442
99147.267805710813263
99148.41530032249284
99152.178362242790172
99158.657838531857124
99167.807712533074664
99179.255148502008524
99191.532579239908955
99202.398217645531986
99209.075368906022049
99209.933582045254298
99204.457664320943877
99193.801763048468274
99180.627723326775595
99231.394447641068837
99240.900055473175598
99247.63856369718269
99250.375120639509987
99248.324876749815303
99241.312680431583431
99229.824007214643643
99214.93364709931484
99198.14410870122083
99181.14312639227137
99165.574603205153835
99152.846878493452095
99144.032380153075792
99139.724191247631097
99140.123328879257315
99145.027486713632243
99153.878508210764267
99165.996810894474038
99081.935596342780627
99087.80916503368644
99108.258284543684567
99140.201290371347568
99173.517428357183235
99196.427335352040245
99201.55770055281755
99190.303737968046335
99170.673686681286199
99151.11212931459886
99137.494352957539377
99131.080944361281581
99128.901792269287398
99128.077760146043147
99126.689869747162447
99125.182500140770571
99125.979508551652543
99131.370274631670327
99142.041569924971554
99156.864445272804005
99172.709124189554132
99184.634939496434527
99188.297737477681949
99181.32035301081487
99164.964658877361217
99143.704322607867653
99123.337818812331534
99237.893471464325557
99248.472875766412471
99255.138271296702442
99256.441255010577152
99251.775163474492729
99241.477515949649387
99226.745053383769118
99209.37445300789841
99191.435506467460073
99174.924416693072999
99161.475774828068097
99152.263411907202681
99147.907062430254882
99148.530293085874291
99153.795032513240585
99163.012569613361848
99175.333475088482373
99097.689239335959428
99090.193093231457169
99090.823260406890768
99106.900801716605201
99136.882081042145728
99170.31822529634519
99192.267271254502703
99192.902696539458702
99172.866196723232861
99143.017632388262427
99116.410750690105488
99101.365617663905141
99098.170251471368829
99101.700731573771918
99105.720450779335806
99106.887211057066452
99106.110645432534511
99106.271820908295922
99110.034192215869552
99118.629070413982845
99130.780673869288876
99143.387980544634047
99151.723956827860093
99150.776681527495384
99137.990464414499002
99115.012091819415218
99087.369524654583074
99252.823430194272078
99261.412061863593408
99264.57128521244158
99261.696527089807205
99253.214459643364535
99240.417107688554097
99225.158996647369349
99209.480851821906981
99195.276594574330375
99184.043124881151016
99176.749287653452484
99173.779515893314965
99175.056532089307439
99180.094234044736368
99188.10320346915978
99198.185175390695804
99107.573632271916722
99104.179516551957931
99104.997432866352028
99115.947730642554234
99136.770024155732244
99160.14312734590203
99175.564384588928078
99174.591302622968215
99157.090672658814583
99129.887291473787627
99103.20714256503561
99085.098159895729623
99077.954378582842764
99078.699775467437576
99082.441835312725743
99086.453394766518613
99089.95466526132077
99093.437922632263508
99096.975487281728419
99100.633628951982246
99104.345606633025454
99107.489933571239817
99108.121670998327318
99103.871838158665923
99092.58579002636543
99073.907237702136626
99050.504898094499367
99028.119669210369466
99269.261217433493584
99271.616194004789577
99268.716600466606906
99261.409780985137331
99251.157609630477964
99239.670706346980296
99228.574329084367491
99219.186716934360447
99212.377403205915471
99208.528436423410312
99207.59451821949915
99209.221932117841789
99212.842631960025756
99217.845891493954696
99223.678309854338295
99120.946902703115484
99122.475650129970745
99127.545515074642026
99137.339151091044187
99149.001482565814513
99156.987540514761349
99155.970077902660705
99143.912369398618466
99123.444252104061889
99100.83342267810076
99082.119602898557787
99070.345050407559029
99065.736191483782022
99066.384654022738687
99070.366652176409843
99075.950873910493101
99081.572877004990005
99085.307724999162019
99085.540382063380093
99082.642650614026934
99077.646349728122004
99072.01986772636883
99066.054372788363253
99058.435371683546691
99046.805252322636079
99030.267516529405839
99011.480168934387621
99278.133648695555166
99274.701753822489991
99268.234628141290159
99260.380160834145499
99252.674457824774436
99246.273395181866363
99241.822858021783759
99239.464526345444028
99238.950568665415631
99239.786666359286755
99241.395249381530448
99243.279027028518612
99245.16417854980682
99246.906331041027443
99142.788687509688316
99140.30452653732209
99137.947436235655914
99137.460435839107959
99138.157737359360908
99136.86298359160719
99130.405236563325161
99117.767715546375257
99101.035884673314285
99083.862279546985519
99069.875982696859865
99061.222630105330609
99058.296242371550761
99060.125806062613265
99064.762058559645084
99069.30973607035412
99070.76315565299592
99067.407870282928343
99059.917608616393409
99050.977859195874771
99043.72015136621485
99039.746084767626598
99037.446515635732794
99032.819825441401917
99022.549405897283577
99006.310096944449469
99282.450942583833239
99276.919599205852137
99271.34820924399537
99267.166756728969631
99265.137305160576943
99265.29136534074496
99267.06258858802903
99269.558168857634882
99271.865440910114557
99273.292663527594414
99273.500746667559724
99272.569742990977829
99270.761988092388492
99152.851691726449644
99139.34539742366178
99128.208026697247988
99122.214818883279804
99120.054292561399052
99117.614913985555177
99111.530488457516185
99101.075631591695128
99088.128316585309221
99075.593829055767856
99065.831465683397255
99060.144708327396074
99058.179145845992025
99058.327770185424015
99057.888840824249201
99054.45975927010295
99047.103131447176565
99037.272615140085691
99028.313523425749736
99023.923725645523518
99025.399947260564659
99029.953653378994204
99031.943003299602424
99025.944933130944264
99010.056024772144156
99288.484276436065556
99285.031150341485045
99283.73163646197645
99285.091012356308056
99288.731013330005226
99293.608956666488666
99298.388185128904297
99301.863475551363081
99303.263090466018184
99302.377178165232181
99299.578918482424342
99295.464392512003542
99142.432542351976736
99123.662418344581965
99112.306701051347773
99108.184468530773302
99107.368414030017448
99105.616207620187197
99100.793493222125107
99093.650202863180311
99085.863243455096381
99078.41885746679327
99071.585493658858468
99065.078891254685004
99058.148089320762665
99049.645190026072669
99039.14458968937106
99027.53094199395855
99017.125617890778813
99011.311194561683806
99012.81214400108729
99021.446037268309738
99032.962557333550649
99040.35067027786863
99036.886855524746352
99020.115622347060707
99124.957612635131227
99110.160803879087325
99103.440999182901578
99101.985917480211356
99102.090523609920638
99101.730452196716215
99100.832163345214212
99099.393495094991522
99096.412610960222082
99090.128967396158259
99079.495815170259448
99064.569049051424372
99046.67531332669023
99028.28954162527225
99012.48715818070923
99002.444060870839166
99000.784761689850711
99008.589639160330989
99024.052280539181083
99041.57883092679549
99053.096791806892725
99051.40286948235007
99033.906033316248795
99107.130392881241278
99103.581247043053736
99103.406447690620553
99105.815950336007518
99110.361090689650155
99115.397116282692878
99117.553304227127228
99112.874080313369632
99099.04191035812255
99076.83223971920961
99050.142761040086043
99024.410068155295448
99004.785540090262657
98994.925719735285384
98996.597161558514927
99009.311803853095626
99029.753502366846078
99051.474976449651876
99065.985668070206884
99065.992130925995298
99048.882608278028783
99122.702303759462666
99132.954444016955676
99139.710593331648852
99136.882085044097039
99120.951329045376042
99093.289060399387381
99059.799246954920818
99028.343091930975788
99005.600603839222458
98995.365175109152915
98998.699312660522992
99013.967391889527789
99036.851866534751025
99060.543958341382677
99076.741739757664618
99078.481925954096369
99063.066482490103226
99142.705273062965716
99111.950079470145283
99074.475285326305311
99039.552162953827064
99014.593277945416048
99003.54882156480744
99006.889813576417509
99022.289993963844609
99045.142460936127463
99068.705852773506194
99085.195422766249976
99088.24609575732029
99075.226662135668448
99131.053985124104656
99092.543686735749361
99056.501907981612021
99030.471772796998266
99018.37705867573095
99020.458324813807849
99034.184505547367735
99055.006636104750214
99076.642110565575422
99092.152508071594639
99095.856653198759886
99085.233532021957217
99250.460328322442365
99269.138794768703519
99297.847606814917526
99328.796178409058484
99353.30344091115694
99367.037353954976425
99370.688706368891872
99367.507444176415447
99361.425450570706744
99355.637558375106892
99352.920548375870567
99354.292286613155738
99358.270750829105964
99362.863913653010968
99367.244125258774147
99371.704191818265826
99375.533239559401409
99376.231639654477476
99370.393045081160381
99356.724111710020225
99229.432001497203601
99236.828072551186779
99258.008633503894089
99289.98603253440524
99323.814092378306668
99350.148078392856405
99364.776218893792247
99368.379522756920778
99364.624631627928466
99357.769422840618063
99351.401341990625951
99347.853268566541374
99347.848838630510727
99350.042930779134622
99353.206182049776544
99357.292748070962261
99362.436144962193794
99367.558980678542866
99369.826182335993508
99365.531869558457402
99353.54965121812711
99336.09727238441701
99224.635874186293222
99221.099676744430326
99217.735664960506256
99225.305118901815149
99248.737521048096824
99283.708831334064598
99319.867864115120028
99347.753296317605418
99363.027595434585237
99366.53818803789909
99362.171214355999837
99354.652945025649387
99347.862078675534576
99343.780506714174408
99342.40025731746573
99342.863239897909807
99344.689768374941195
99348.390588348454912
99354.201698794640834
99360.459043625698541
99363.954569068126148
99361.080422712708241
99350.659305723689613
99335.00044432694267
99318.128192304997356
99304.453493515437003
99214.327464810878155
99218.816486619383795
99213.072469414153602
99208.054777131750598
99215.82946580927819
99241.007619045369211
99278.416015203809366
99316.788773333435529
99346.051880215090932
99361.712214373634197
99365.060861696605571
99360.140568358852761
99352.088677739695413
99344.995556451016455
99340.538406260297052
99337.970482444419758
99336.815261314361123
99337.185275549418293
99340.637303635317949
99347.052351871898281
99354.381140529498225
99358.860591760807438
99357.154284747302881
99348.172852802686975
99334.141438488615677
99318.634960263210814
99305.326778900678619
99297.055729802392307
99191.886354121641489
99210.88120895269094
99214.457450745438109
99206.592991564597469
99199.967575209928327
99208.006959539910895
99235.272825010848464
99274.845775030553341
99314.782191906502703
99345.028852828530944
99360.981777582273935
99364.010586092743324
99358.594222581858048
99350.162358311514254
99342.72441761099617
99337.620433502670494
99334.297532838521875
99331.779714392963797
99331.146576261511655
99334.217331935520633
99341.11782077990938
99349.389126503083389
99354.649297522541019
99353.868558343296172
99346.150364618952153
99333.513218288033386
99319.108818118838826
99306.100966701720608
99297.260117234050995
99292.990126636737841
99157.88536729371117
99187.608115419789101
99208.615887512045447
99211.500804199531558
99201.335027552690008
99193.299653212059638
99201.328758129864582
99229.881729242071742
99271.671720069687581
99313.392370344532537
99344.523668744615861
99360.77575128384342
99363.488827674096683
99357.56848993897438
99348.711245834259898
99341.082526839600177
99335.630324213794665
99331.236044040968409
99327.655540317005944
99326.154514447436668
99328.902678739512339
99336.345104396314127
99345.336899229077972
99351.341685336534283
99351.244845284716575
99344.567446255372488
99333.097464929029229
99319.549278736376436
99306.723705845099175
99297.3388692207227
99292.372179166777642
99289.382067386046401
99151.979382751494995
99184.750180418981472
99207.366447445747326
99209.567278138289112
99197.564927553787129
99188.103903519178857
99196.346177645624266
99226.565940451197093
99269.958421958144754
99312.778782954628696
99344.518443077453412
99360.883048190939007
99363.283195890428033
99356.859606127269217
99347.634073126217118
99339.806857522620703
99334.034136578731705
99329.028878341356176
99324.482744220862514
99322.368046081493958
99324.891548766812775
99332.736818898381898
99342.358092284150189
99348.962038191370084
99349.324755125344382
99343.429326833385858
99332.865665555043961
99319.932186275356798
99307.196841181925265
99297.355817521136487
99291.801588662448921
99288.678151742526097
99283.194230546054314
99481.13909464723838
99457.854940223012818
99402.81616922498506
99344.282912560316618
99324.274220518942457
99362.259105880308198
99147.991487550534657
99183.091712320587249
99206.74164617616043
99208.458266003653989
99195.019569497497287
99184.503360812261235
99192.824849858108792
99223.827275012023165
99268.563680096791359
99312.522670523889246
99344.696487481240183
99361.091958813543897
99363.221124278847128
99356.402114946060465
99346.910408670737525
99338.827148115102318
99332.91867129781167
99327.666373426560313
99322.317453424897394
99319.437223884888226
99321.968461155498517
99330.186667520276387
99340.388212181234849
99347.376129870739533
99348.069605855125701
99342.713569400773849
99332.791023921861779
99320.283280759598711
99307.566974422428757
99297.358375698386226
99291.408493387687486
99288.173046369396616
99282.891592363084783
99271.438928334202501
99478.587092833200586
99483.497078188956948
99459.661097588206758
99401.885849151265575
99339.671849960868713
99318.541278160642833
99358.433694129780633
99145.952627132719499
99182.453153331647627
99206.574380415448104
99207.962710010295268
99193.741690590919461
99182.52957845502533
99191.000889579911018
99222.676740426992183
99268.177181036255206
99312.68440619915782
99344.979390862223227
99361.242189510972821
99363.191624582075747
99356.093303802917944
99346.385430098307552
99338.270489682196057
99332.381323918933049
99326.978378299492761
99321.207255157103646
99317.984061728828237
99320.486413084378
99328.919173224989208
99339.462644213097519
99346.579980992988567
99347.461688897921704
99342.365375070352457
99332.761973473796388
99320.465385386807611
99307.730488073138986
99297.330016642968985
99291.218332787888357
99287.919298586173682
99282.74397083207441
99271.471016007461003
99254.016230186840403
99200.686544184587547
99193.032931797817582
99190.132476745071472
99192.010968910602969
99198.273065388231771
99208.175890643251478
99220.757985718999407
99235.006610433207243
99249.927504467603285
99264.51031118487299
99277.788542821013834
99118.91813371128228
99125.760640487278579
99134.390135345922317
99142.800917275933898
99149.025447786116274
99151.785401686036494
99151.497289518345497
99149.1628600127151
99144.997531788510969
99139.214544172675232
99132.858912347044679
99129.731604301952757
99133.521948484194581
99146.687153465405572
99168.39296954179008
99193.211420430350699
99214.592841806254
99229.591112339388928
99241.084435021068202
99254.926079379743896
99275.12028466432821
99300.150203711804352
99323.175442692721845
99336.958198505541077
99338.846124083633185
99331.907270988813252
99323.220983450533822
99319.50374902994372
99322.802339711444802
99330.133039505235502
99336.836953838472255
99340.342811236012494
99342.181861555509386
99346.934554883904639
99359.032337995158741
99379.612526390352286
99271.752501513023162
99277.284451088271453
99280.095521442824975
99279.417046060392749
99274.724610058226972
99265.888746403448749
99253.348621113909758
99238.212380693672458
99222.107204260013532
99206.756093838921515
99193.704561984457541
99184.223700825503329
99179.254413875984028
99179.309353724544053
99184.469351446939982
99194.401801108659129
99208.288415126880864
99224.922331941881566
99242.76183670158207
99260.006478624083684
99275.09690696738835
99109.728251585183898
99111.968362489322317
99117.386774689497543
99124.715718714462128
99131.100555457422161
99134.695226195544819
99134.749653923034202
99131.890270431598765
99127.531877788045676
99123.205258990099537
99121.677907125384081
99125.866691738323425
99138.492791521566687
99160.668886302417377
99188.77259373961715
99215.700206655092188
99234.728090663484181
99243.823116187588312
99246.722473298534169
99250.514321700815344
99261.060356347996276
99278.691239171617781
99297.87259031063877
99311.473202343870071
99315.914030574655044
99313.588633050021599
99310.987243814874091
99313.977036145864986
99323.78637987410184
99336.496831143915188
99346.065959129598923
99348.860595337493578
99346.095364981185412
99343.16327865072526
99346.129037697566673
99357.925693512617727
99255.852646768486011
99260.365538889804156
99263.279703511841944
99263.628763363274629
99260.796273537023808
99254.392998878422077
99244.324504297022941
99231.00566905848973
99215.561465754290111
99199.684700994708692
99185.254194719076622
99173.992982058378402
99167.304771091250586
99166.179370976111386
99171.04173343720322
99181.716891710617347
99197.313766260151169
99216.342601189448033
99236.809051231408375
99256.311079137783963
99272.713031278617564
99098.82595403965388
99102.521435395712615
99108.58740104145545
99114.502966612737509
99118.348748580887332
99119.242440973263001
99117.309786731537315
99114.486678405373823
99112.886391821375582
99115.912997529900167
99126.256141701116576
99147.093733484871336
99177.158692805242026
99210.810807141635451
99239.855269851861522
99256.848217834063689
99259.346534649041132
99251.047081169381272
99240.370157767116325
99236.07442914423882
99242.084623229777208
99255.624605368691846
99270.428687651583459
99281.544437542674132
99288.971547960522003
99296.362236539498554
99307.378546392385033
99322.351648968557129
99337.448412305748207
99346.837661331650452
99346.898388383575366
99339.174237728919252
99329.385367765484261
99324.114639158797218
99243.149909402840422
99245.855880514616729
99247.153014371244353
99245.870859590591863
99241.219462452500011
99232.855835894311895
99220.917571137993946
99206.153887251362903
99190.057170624364517
99174.716008915347629
99162.387347927869996
99155.034715155794402
99154.017436703114072
99159.87027367875271
99172.296946818198194
99190.130153332705959
99211.488769704956212
99233.937459467546432
99254.652448303982965
99271.208623168437043
99088.79311968908587
99091.35320955629868
99095.402551604987821
99098.98760491667781
99101.016508077373146
99102.058372099476401
99102.946404202230042
99104.488193611628958
99108.77285847638268
99117.636006779386662
99134.165144082653569
99160.294875694904476
99194.401912818517303
99230.712038532350562
99260.4253978599736
99274.954158995838952
99270.123251106109819
99249.57681336888345
99223.629992929752916
99203.485162976983702
99196.620559588976903
99204.030510320269968
99221.205441537851584
99242.03852304033353
99262.189680025956477
99280.759900869656121
99298.675875264074421
99315.320998092953232
99328.152825129509438
99333.832250193998334
99330.486309550877195
99319.640153393353103
99306.003530067508109
99295.185515452802065
99227.822399153199513
99229.181296052745893
99230.214636711214553
99229.469414381266688
99225.635852567254915
99217.980566251018899
99206.556113442449714
99192.204275594471255
99176.475715890424908
99161.491313260150491
99149.638464187635691
99143.126743251472362
99143.542902084736852
99151.481809895762126
99166.432094590971246
99186.761309242399875
99210.058886813698336
99233.47786185813311
99253.997423133201664
99269.258322386755026
99085.338106019917177
99084.75200737612613
99082.292778619666933
99079.789116799074691
99080.505787339337985
99086.198855942857335
99096.697334106720518
99110.934852617428987
99127.823667811229825
99148.317132407057215
99174.410817087744363
99206.438185145176249
99239.941010588125209
99266.994883842402487
99278.542983621489839
99269.18406471722119
99241.25217767166032
99204.462904568528756
99171.489715012110537
99153.253866749233566
99154.984424004273023
99174.481319023310789
99204.466101579630049
99236.610347590816673
99264.690512610744918
99285.822381082776701
99299.44551326688088
99305.804805659747217
99305.52648309279175
99299.274156039537047
99288.393231177105918
99275.190611678102869
99214.675839942152379
99213.627120587902027
99211.523236961656949
99207.06371322691848
99199.367421441740589
99188.359262050886173
99174.880653683969285
99160.547965062258299
99147.476083484696574
99137.925300695336773
99133.920577620025142
99136.857743386455695
99147.14504468254745