/*--------------------------------*- C++ -*----------------------------------*\
  =========                 |
  \\      /  F ield         | OpenFOAM: The Open Source CFD Toolbox
   \\    /   O peration     | Website:  https://openfoam.org
    \\  /    A nd           | Version:  12
     \\/     M anipulation  |
\*---------------------------------------------------------------------------*/
FoamFile
{
    format      ascii;
    class       volScalarField;
    location    "0.0063";
    object      pPrime2Mean;
}
// * * * * * * * * * * * * * * * * * * * * * * * * * * * * * * * * * * * * * //

dimensions      [2 -2 -4 0 0 0 0];

internalField   nonuniform List<scalar> 
106891
(
150676.83379745483398
150684.07547569274902
150691.02558326721191
150696.2796688079834
150706.15462684631348
150726.41253852844238
150768.72665977478027
150835.45539093017578
150932.34637641906738
151062.55535888671875
151210.52868843078613
495830.12761688232422
494193.86663055419922
492559.5408935546875
490924.34095573425293
489284.06347274780273
487634.17141151428223
485971.31184387207031
484294.35831069946289
482605.79764747619629
480911.81135940551758
479218.39473724365234
477527.50360488891602
475838.48429679870605
474151.81599807739258
472468.13409805297852
470785.06100463867188
469098.50814819335938
467406.60080528259277
465711.19258880615234
464018.00027465820312
462335.58560371398926
460670.70236206054688
459026.81674575805664
457407.94733428955078
455822.15558624267578
454279.1517162322998
452785.13897132873535
451340.12493133544922
449938.28645706176758
448568.6357250213623
447215.21426963806152
445861.73066711425781
444500.32282066345215
443134.28118133544922
441769.97877883911133
440407.07594108581543
439037.83896446228027
437654.15155982971191
151405.04958534240723
151241.89698791503906
151099.79604530334473
150977.01415824890137
150874.34053802490234
150794.61930274963379
150740.73213768005371
150712.89139366149902
150706.54626274108887
150713.00647354125977
150721.77298164367676
150725.72273445129395
150722.16395378112793
150716.81653022766113
150716.15922927856445
150732.93086814880371
150771.70089149475098
150839.41127014160156
150940.2547492980957
151058.63079452514648
494094.1255989074707
492449.40573883056641
490808.45656394958496
489164.65567588806152
487512.16968154907227
485848.79676628112793
484174.88463401794434
482493.61979103088379
480812.1088752746582
479137.01938247680664
477468.93004989624023
475804.81777000427246
474144.13776969909668
472488.04283332824707
470833.93462181091309
469175.57507133483887
467508.90390968322754
465835.29145431518555
464161.25541305541992
462495.68607902526855
460845.33816146850586
459214.873046875
457610.72455787658691
456041.88734436035156
454516.37399291992188
453037.19271087646484
451601.19365882873535
450200.79432678222656
448825.28774833679199
447460.40196418762207
446090.54206085205078
444705.98407173156738
443308.00976753234863
441904.56169700622559
440500.39045715332031
439092.26764297485352
151546.8950138092041
151383.15080833435059
151237.30433082580566
151107.16107559204102
150994.25103187561035
150902.84675216674805
150837.28234672546387
150798.82065773010254
150783.44291496276855
150782.53193473815918
150785.34050178527832
150783.92204284667969
150774.29921531677246
150760.28272819519043
150746.9220027923584
150745.83621025085449
150762.24250793457031
150803.65202713012695
150875.42412757873535
150962.73717880249023
494185.00917816162109
492507.63847923278809
490835.10844421386719
489158.8969841003418
487475.15057563781738
485785.80140495300293
484093.98344612121582
482403.80017471313477
480722.12218475341797
479054.26800537109375
477398.80149269104004
475750.97390747070312
474110.20493125915527
472478.7735652923584
470854.04487037658691
469227.37681007385254
467592.14001083374023
465949.91814231872559
464308.36254692077637
462675.94786643981934
461058.93277740478516
459462.2692813873291
457892.07416725158691
456354.60832595825195
454853.56228828430176
453388.95818138122559
451956.45113754272461
450548.69064903259277
449156.77383613586426
447770.08770751953125
446375.83307075500488
444963.20879364013672
443530.5720329284668
442085.98988723754883
440638.35990142822266
439188.86074447631836
151605.52835464477539
151454.52266120910645
151319.43487739562988
151199.70832061767578
151097.85388565063477
151017.31308937072754
150959.79104042053223
150923.11214256286621
150901.23551559448242
150885.86743354797363
150870.41281509399414
150850.93071174621582
150829.62051963806152
150809.35854721069336
150799.06043434143066
150802.70734596252441
150826.96237564086914
150877.64170265197754
150940.87933921813965
492792.70894432067871
491065.90473556518555
489332.01242637634277
487592.72161865234375
485855.97343444824219
484128.22712326049805
482413.53785705566406
480717.2373046875
479042.87184715270996
477387.75964736938477
475747.07529067993164
474120.1699104309082
472509.39140510559082
470912.13811874389648
469319.46502113342285
467723.99398231506348
466126.53246307373047
464534.13234329223633
462953.59121513366699
461388.78278350830078
459842.55390739440918
458317.94172477722168
456817.24155044555664
455342.00841522216797
453892.27959442138672
452464.37538909912109
451050.26735496520996
449640.78423881530762
448227.80055999755859
446802.42605018615723
445355.75639152526855
443885.39019966125488
442399.10658264160156
440908.31433296203613
152155.8756275177002
151961.46559906005859
151793.05618858337402
151645.99423599243164
151517.21238327026367
151405.70244789123535
151311.89388465881348
151236.2351131439209
151177.41411590576172
151131.87245941162109
151094.36488723754883
151060.75435447692871
151028.30856132507324
150998.54244232177734
150972.57927894592285
150956.47173500061035
150952.2956485748291
150965.08661842346191
151000.61129760742188
151046.10738182067871
493370.38772964477539
491577.66372680664062
489774.35295867919922
487967.54991722106934
486170.73484992980957
484394.22150230407715
482642.80275917053223
480919.54324913024902
479226.79508209228516
477563.25522804260254
475924.60713005065918
474308.01567268371582
472712.71708297729492
471136.25713539123535
469572.66799163818359
468017.05729484558105
466471.03488540649414
464939.36860656738281
463423.7222843170166
461922.1628532409668
460432.36588668823242
458953.02881050109863
457484.80978012084961
456031.49555969238281
454597.20929718017578
453179.78190803527832
451768.54527473449707
450350.07577896118164
448914.92337036132812
447457.5468692779541
445973.63398933410645
444463.65178871154785
442937.03732490539551
152533.32736968994141
152334.49433708190918
152162.26372909545898
152013.39680099487305
151884.914794921875
151774.8306770324707
151682.03357315063477
151605.18148612976074
151541.94103240966797
151488.92999076843262
151443.55444526672363
151403.89184188842773
151370.83207321166992
151343.94014739990234
151326.43595123291016
151318.19531059265137
151322.33255767822266
151344.32707595825195
151372.66792869567871
492378.95794486999512
490509.74338531494141
488638.74235725402832
486782.60343933105469
484955.11161231994629
483162.06134033203125
481404.19686126708984
479682.26109886169434
477997.0988655090332
476346.79471588134766
474727.52911758422852
473135.74080657958984
471568.38678932189941
470023.30578231811523
468500.39234924316406
467002.40299034118652
465530.38648414611816
464078.53797912597656
462636.34347915649414
461195.53408241271973
459753.86162185668945
458314.5366153717041
456885.15051460266113
455472.90993118286133
454075.72525215148926
452678.51690864562988
451261.56758689880371
449812.10734939575195
448327.32590293884277
446809.62201499938965
445265.27061653137207
443706.5889892578125
153371.10950660705566
153142.25104904174805
152940.76447105407715
152764.57222366333008
152610.9771671295166
152477.91521072387695
152364.40640258789062
152269.60177421569824
152191.85378837585449
152128.45269393920898
152077.22166061401367
152036.40567588806152
152006.03209686279297
151984.16170120239258
151971.22551536560059
151964.68594932556152
151965.20637702941895
151977.33492088317871
151990.25646781921387
491480.08347320556641
489550.01669120788574
487637.7672290802002
485759.26263046264648
483921.21524810791016
482122.29118347167969
480359.76346015930176
478634.73224258422852
476950.34271049499512
475306.91518592834473
473701.00358963012695
472129.09165954589844
470590.94063377380371
469088.96726608276367
467624.29290580749512
466192.64795112609863
464781.82617950439453
463376.10155868530273
461966.21083641052246
460553.47756958007812
459144.7421817779541
457747.05247116088867
456363.88157653808594
454989.39823913574219
453606.07898139953613
452192.56411170959473
450735.89980316162109
449235.91585350036621
447700.6778736114502
446141.86085891723633
154222.53996086120605
153996.59811973571777
153795.09927558898926
153616.27861595153809
153458.66359519958496
153321.62231636047363
153204.90614891052246
153108.06756210327148
153029.98131370544434
152969.64779281616211
152925.54458999633789
152896.63763046264648
152879.32334327697754
152871.51829147338867
152868.75174140930176
152869.43978309631348
152876.73412322998047
152879.58201789855957
490659.7096996307373
488689.30788040161133
486758.78815650939941
484875.63512229919434
483035.1296558380127
481228.63481330871582
479454.57887649536133
477720.7381706237793
476035.14667892456055
474400.70222473144531
472816.96127319335938
471281.73977279663086
469791.52386665344238
468341.74678039550781
466925.10140991210938
465527.91942596435547
464134.89928817749023
462739.48298454284668
461346.48402404785156
459963.5716667175293
458592.78062057495117
457229.81031608581543
455864.85407066345215
454482.87058448791504
453067.15029907226562
451607.64051246643066
450105.96131896972656
448572.12117576599121
155616.6954345703125
155370.73076820373535
155147.39871025085449
154945.71766090393066
154764.34259223937988
154602.47015953063965
154460.09497261047363
154337.94046783447266
154236.76406860351562
154157.24409103393555
154098.74136352539062
154059.8189697265625
154036.03405952453613
154023.76221656799316
154017.45068740844727
154013.9394416809082
154015.36933326721191
154010.69062805175781
490030.97653007507324
488049.29290390014648
486119.2007007598877
484234.41604232788086
482383.49747657775879
480564.15462493896484
478786.74006271362305
477064.66892242431641
475405.83967971801758
473810.93702697753906
472274.06539344787598
470785.40658187866211
469336.87051391601562
467922.01097869873047
466530.04836463928223
465146.68435668945312
463763.75261878967285
462383.57834815979004
461011.13992691040039
459645.59920120239258
458280.28855323791504
456906.37152671813965
455514.06575584411621
454094.37739562988281
452641.88236618041992
451155.9866771697998
449640.23568344116211
157120.24808692932129
156878.22623062133789
156654.46567726135254
156448.66955375671387
156260.58403587341309
156090.68570137023926
155940.44554710388184
155811.63898086547852
155705.76833534240723
155622.44343376159668
155559.96097946166992
155513.97537994384766
155480.97477340698242
155456.17945671081543
155436.38846969604492
155423.18479156494141
155405.05986022949219
493681.63500022888184
491622.19366455078125
489606.52127075195312
487639.62451934814453
485718.59778594970703
483836.97389602661133
481994.89427185058594
480202.0235424041748
478469.78764533996582
476802.79377746582031
475197.74491310119629
473646.73563385009766
472141.99065589904785
470679.7216854095459
469258.49396896362305
467871.24111747741699
466502.95588302612305
465138.76680755615234
463772.12809753417969
462403.36455917358398
461033.08418273925781
459659.11185836791992
458276.80789375305176
456880.21101951599121
455463.68934440612793
454022.57074356079102
452552.29512596130371
158966.36955261230469
158728.44956588745117
158503.73084831237793
158293.11346626281738
158098.36886978149414
157921.86878776550293
157765.57283782958984
157630.30292701721191
157514.69852256774902
157416.47091865539551
157332.0936336517334
157259.9190731048584
157198.13740539550781
157145.4276065826416
157103.77706146240234
157061.20139694213867
494973.98703575134277
492921.01828002929688
490908.48149299621582
488936.73419380187988
487006.00741195678711
485117.6519889831543
483276.39057922363281
481490.26115989685059
479764.34395217895508
478094.93116569519043
476472.90410423278809
474891.70221328735352
473351.60564041137695
471857.57513618469238
470412.5578441619873
469010.46804618835449
467635.58279418945312
466269.93719100952148
464901.87808609008789
463528.45189666748047
462151.69392395019531
460772.66941070556641
459388.1901741027832
457991.41797637939453
456574.80438232421875
455132.03316116333008
453658.54184532165527
452153.32207489013672
160557.23467445373535
160318.10238838195801
160092.11884117126465
159881.00438690185547
159686.2825984954834
159508.46640205383301
159346.80586433410645
159199.06881523132324
159063.30275344848633
158937.67918586730957
158822.68796920776367
158718.7723560333252
158625.91190147399902
158546.45451164245605
158469.54712677001953
494231.61774826049805
492230.59134101867676
490265.40390586853027
488336.88817024230957
486450.92395210266113
484615.21762084960938
482835.19178009033203
481109.6530933380127
479428.77708435058594
477780.25532913208008
476159.45645523071289
474573.50889778137207
473034.36470413208008
471548.42447280883789
470111.09656715393066
468707.76847839355469
467320.70572471618652
465937.07953071594238
464552.19308471679688
463166.64984703063965
461780.75965690612793
460390.56447982788086
458988.06107139587402
457563.7198543548584
456109.77056884765625
454623.0622444152832
453106.4008960723877
162238.22415161132812
161998.06621742248535
161772.9210376739502
161562.96179008483887
161367.16304206848145
161183.57245063781738
161009.58103370666504
160843.68685531616211
160685.15147590637207
160535.6927604675293
160397.12919616699219
160270.30890464782715
160157.98813629150391
160050.11846542358398
493722.62642669677734
491762.91498565673828
489836.20611763000488
487951.53751564025879
486117.64682579040527
484336.09470748901367
482600.18617630004883
480897.25101470947266
479214.68103218078613
477549.77378845214844
475913.41560173034668
474321.37962532043457
472782.70012283325195
471294.8570613861084
469846.09771156311035
468421.51461601257324
467009.26637649536133
465603.29647445678711
464201.31501770019531
462800.62503242492676
461395.68543815612793
459978.48346138000488
458540.18791961669922
457073.01220893859863
455573.65474700927734
454045.28710556030273
164035.66337203979492
163791.51140975952148
163561.51845359802246
163343.5018196105957
163134.88564109802246
162933.23174095153809
162737.52366828918457
162547.56184387207031
162365.54373931884766
162193.93680191040039
162034.38933944702148
161890.48471832275391
161753.36204719543457
493404.4738655090332
491474.94867515563965
489586.94369125366211
487749.68952751159668
485961.4090690612793
484210.98611068725586
482484.02451515197754
480769.19744110107422
479065.52425003051758
477384.40519905090332
475742.12013244628906
474149.2777042388916
472606.43133544921875
471106.29028511047363
469638.31925392150879
468192.52277565002441
466761.01810073852539
465337.98772621154785
463917.97196197509766
462494.52842330932617
461060.80014419555664
459609.85408210754395
458134.12364959716797
456627.87759399414062
455091.35929870605469
165952.63997459411621
165699.50912284851074
165456.6919116973877
165221.65111923217773
164992.51263809204102
164768.55685806274414
164549.40637588500977
164336.84305572509766
164133.4151668548584
163941.68510246276855
163766.45402908325195
163600.16827964782715
493222.10619163513184
491327.13551139831543
489483.03385353088379
487685.69633102416992
485920.84074211120605
484173.00444602966309
482432.82428169250488
480700.91121482849121
478987.31696701049805
477305.73523330688477
475666.64163970947266
474073.84925842285156
472525.54767608642578
471016.71037483215332
469539.59398460388184
468084.18771934509277
466640.6544017791748
465201.1499195098877
463759.66630363464355
462311.58039093017578
460851.81112098693848
459372.00860595703125
457862.6057014465332
456319.61681938171387
493197.27655220031738
491343.71271896362305
489534.94287300109863
487755.32219314575195
485989.18794059753418
484229.09805297851562
482476.79660034179688
480739.87026786804199
479028.19732475280762
477350.93213272094727
475715.04731178283691
474124.35586738586426
472578.87729644775391
471072.7397575378418
469594.20529174804688
468130.02509498596191
466671.06124114990234
465212.99449729919434
463752.92145347595215
462285.14045906066895
460798.5548095703125
459280.79105567932129
457727.09863471984863
491546.10539817810059
489749.47350692749023
487964.55874061584473
486184.0689697265625
484409.39107894897461
482646.9937572479248
480904.90193557739258
479191.97918510437012
477517.41583824157715
475888.58038330078125
474308.47110939025879
472772.79697799682617
471269.26718521118164
469783.15006256103516
468305.02105712890625
466831.63524055480957
465359.54607963562012
463879.37147903442383
462376.1923656463623
460837.59811401367188
459262.37214088439941
486470.78564834594727
484675.44944000244141
482898.57205200195312
481150.31853103637695
479440.31857490539551
477776.12252998352051
476161.3024959564209
474593.09733200073242
473060.78901481628418
471550.36732482910156
470052.21597671508789
468561.6661548614502
467071.97602844238281
465569.28120422363281
464036.53848075866699
462464.19286155700684
460856.97901153564453
481433.9378547668457
479737.40149307250977
478088.12762641906738
476484.73383522033691
474919.72427749633789
473381.54166221618652
471860.1640510559082
470347.8510856628418
468833.49667358398438
467299.68109130859375
465729.46581649780273
464117.54797744750977
462474.03037452697754
481747.24070358276367
480065.03936004638672
478426.1349983215332
476827.0711784362793
475259.29766464233398
473711.71820068359375
472172.76628684997559
470627.92120170593262
469058.85255241394043
467450.69480895996094
465801.86028289794922
464125.07402420043945
663162.43116569519043
661841.92721557617188
660520.05055999755859
659163.47066497802734
657759.36484527587891
656307.11629867553711
654808.31971740722656
653263.27015686035156
651668.84211730957031
650018.0991325378418
648303.36851692199707
646522.15880584716797
644682.97787094116211
642802.29754829406738
640897.48822593688965
638983.37935256958008
637072.97046089172363
635177.9298095703125
633305.46379089355469
631456.01214981079102
666160.23110389709473
664818.90770530700684
663521.9366626739502
662218.86542701721191
660875.35954093933105
659479.43666839599609
658031.11854934692383
656532.50737762451172
654982.1668872833252
653374.68083953857422
651701.51762580871582
649955.01168060302734
648135.57643127441406
646256.61838912963867
644340.30819320678711
642406.99435997009277
640470.24917030334473
638539.92699813842773
636625.59399032592773
634734.84504508972168
632869.72000885009766
631029.32104873657227
670581.7343807220459
669064.30337142944336
667653.92902183532715
666332.26200103759766
665053.90490341186523
663765.77396202087402
662432.01054382324219
661041.08955192565918
659593.91513824462891
658092.86990737915039
656535.4616641998291
654914.01896858215332
653218.2607479095459
651440.44279098510742
649583.37153053283691
647665.75682258605957
645715.5637378692627
643755.86616134643555
641798.93550682067871
639851.3807315826416
637920.72705268859863
636014.78281021118164
634136.93958282470703
632287.97722816467285
630472.04779052734375
628697.17432594299316
673492.45890998840332
671884.77454566955566
670380.82442855834961
668984.17252159118652
667676.52343559265137
666410.99827575683594
665132.34539604187012
663804.25141143798828
662415.11771011352539
660966.34064674377441
659460.4764404296875
657894.36424446105957
656258.76168251037598
654542.05958938598633
652736.28362083435059
650846.19532203674316
648894.7337760925293
646914.61482238769531
644931.90661811828613
642957.8777961730957
640995.95858955383301
639051.70626449584961
637133.10768127441406
635244.74563789367676
633388.83751678466797
631570.47176742553711
629797.04089164733887
628073.26552772521973
676302.33604621887207
674605.68157196044922
673008.10866165161133
671513.34672355651855
670126.52109718322754
668829.55744171142578
667573.99217796325684
666302.67004776000977
664977.95757293701172
663588.65565490722656
662136.71255302429199
660625.14199066162109
659050.24968338012695
657401.3020076751709
655665.33755683898926
653834.30825805664062
651914.5274829864502
649932.89165115356445
647926.55537033081055
645923.60933494567871
643934.71719360351562
641960.86667060852051
640005.8416919708252
638077.71234321594238
636181.7486515045166
634321.43689727783203
632502.41488647460938
630731.05485725402832
629010.46603775024414
627339.89995956420898
679002.14431953430176
677205.82159805297852
675520.29484939575195
673930.73728370666504
672442.7200984954834
671062.49717140197754
669772.34431457519531
668522.78738975524902
667255.04194068908691
665931.23558044433594
664540.13400650024414
663083.99457931518555
661566.01967430114746
659982.59953498840332
658322.17232704162598
656570.68425941467285
654719.8367862701416
652777.15543746948242
650772.05072593688965
648744.81891059875488
646725.9523983001709
644725.56662750244141
642742.38973236083984
640778.67113304138184
638842.55808067321777
636940.28742218017578
635076.24944305419922
633256.62339973449707
631486.93988800048828
629768.81171417236328
628100.68852233886719
626483.5593376159668
679685.90528297424316
677900.93626976013184
676222.79472160339355
674637.9554328918457
673153.9510555267334
671778.1845703125
670492.79161262512207
669247.36388206481934
667982.10099220275879
666658.42782592773438
665265.19686317443848
663805.0815544128418
662281.5309944152832
660690.78840827941895
659020.45264053344727
657255.68413925170898
655388.24924278259277
653427.03100967407227
651403.75080871582031
649360.77149200439453
647329.64546585083008
645320.48003578186035
643330.6252613067627
641361.07493591308594
639420.02602386474609
637514.31291389465332
635648.6607551574707
633829.49189567565918
632061.91306304931641
630346.37541007995605
628680.81521606445312
627066.60002517700195
625515.68669509887695
788186.83295631408691
785147.04513931274414
782172.02293968200684
779305.56600379943848
776550.0359001159668
773893.78232955932617
680148.77627944946289
678371.13557243347168
676697.80493927001953
675115.95289421081543
673634.1976261138916
672260.56232643127441
670977.28171539306641
669733.47127342224121
668468.49446105957031
667143.564208984375
665747.79936790466309
664283.75512313842773
662755.15674018859863
661158.65591049194336
659481.48830032348633
657708.13967895507812
655830.43928909301758
653857.80220222473145
651822.96369171142578
649769.70352935791016
647730.85872268676758
645716.25210952758789
643722.12402725219727
641748.67438888549805
639804.36724853515625
637896.28251457214355
636029.31369590759277
634210.19051551818848
632443.85967254638672
630729.93119812011719
629065.95794677734375
627453.75134086608887
625905.46605491638184
624446.32249641418457
791649.72136878967285
788608.52666091918945
785553.98382377624512
782565.70742797851562
779688.64814758300781
776924.89553070068359
774260.83551788330078
680395.45401000976562
678621.38668823242188
676950.14442443847656
675369.30386352539062
673888.4969596862793
672516.01454544067383
671233.79573631286621
669990.78380393981934
668725.83555221557617
667399.83806610107422
666002.31837272644043
664535.85079765319824
663004.24471092224121
661404.31563568115234
659723.16664123535156
657944.86769676208496
656061.23532676696777
654082.19265365600586
652041.26936340332031
649982.90262222290039
647940.0251522064209
645922.53247833251953
643926.43176078796387
641951.35398101806641
640005.7575740814209
638096.88827896118164
636229.73620796203613
634411.01832008361816
632645.61147880554199
630932.87046241760254
629269.91666412353516
627658.99350166320801
626112.15530776977539
624654.65533447265625
623307.23948860168457
150726.59423446655273
150704.59384727478027
150704.77604293823242
150727.44304847717285
150774.08869552612305
150840.99865341186523
150929.13224601745605
151031.87881851196289
151149.56964302062988
151283.9078197479248
151421.98134803771973
494521.08361053466797
492781.52629852294922
491045.35175704956055
489304.11530685424805
487552.47435760498047
485791.87490844726562
484026.94863319396973
482262.70974731445312
480505.2968921661377
478759.53437995910645
477026.66317367553711
475305.02835273742676
473590.77236175537109
471878.92047119140625
470166.21969413757324
468453.85925674438477
466745.63494873046875
465046.2490406036377
463362.151123046875
461701.49457931518555
460070.36094093322754
458468.27666664123535
456889.1854076385498
455327.44038772583008
453784.12183570861816
452266.57892227172852
450780.26306915283203
449320.79821586608887
447876.76717376708984
446440.79806327819824
445014.89129829406738
443605.04725074768066
442214.18390083312988
440839.84550285339355
439474.81012153625488
438108.39043235778809
152013.03347587585449
151765.35960960388184
151546.42612266540527
151356.79579734802246
151195.7178897857666
151060.88969421386719
150948.7894115447998
150855.63341331481934
150778.68364143371582
150716.8572826385498
150670.91239929199219
150642.20905113220215
150632.91238212585449
150643.23149108886719
150674.47518920898438
150723.34637451171875
150791.05233573913574
150872.10499382019043
150967.17795944213867
151078.34166526794434
151192.94062614440918
494577.34541320800781
492825.12450790405273
491083.34165382385254
489336.90548896789551
487576.8998908996582
485806.27109718322754
484033.94746780395508
482268.41752243041992
480516.24958038330078
478780.50427627563477
477060.4615650177002
475353.85221481323242
473657.69237899780273
471966.26252555847168
470274.28713226318359
468581.65270042419434
466892.70079040527344
465212.20889091491699
463545.02719306945801
461897.66572570800781
460276.70617485046387
458683.53049850463867
457112.61654853820801
455556.52570915222168
454013.72045135498047
452490.09849548339844
450990.88183975219727
449511.2803897857666
448039.26626396179199
446567.36990928649902
445098.36988067626953
443639.95772171020508
442197.5949821472168
440771.06806945800781
439353.76044654846191
437934.11815643310547
152115.0938549041748
151863.1576099395752
151639.63072967529297
151444.9232063293457
151278.74831771850586
151139.61376953125
151024.56932830810547
150929.6257495880127
150850.98518180847168
150786.11734580993652
150734.54835319519043
150697.09374809265137
150675.82745552062988
150671.22405815124512
150684.69110107421875
150713.44821357727051
150758.81894874572754
150816.10439682006836
150885.9608039855957
150970.50310516357422
151057.29048347473145
493104.39164352416992
491346.85254287719727
489585.25934028625488
487809.23239517211914
486025.32691192626953
484248.31221961975098
482489.47903442382812
480751.60716247558594
479030.90473556518555
477323.06078147888184
475628.84409332275391
473951.06879043579102
472286.10916519165039
470624.66749000549316
468960.4937858581543
467294.98166656494141
465633.19501876831055
463981.12063789367676
462347.01946830749512
460739.84663772583008
459162.79727363586426
457608.8977222442627
456065.3121395111084
454524.52458381652832
452989.93613433837891
451468.60223770141602
449959.3812427520752
448452.88787269592285
446941.86608505249023
445428.11998558044434
443919.24686813354492
442422.0311222076416
440937.93760871887207
439461.33035278320312
152110.14341354370117
151879.64913177490234
151676.44418907165527
151501.22453880310059
151353.69453430175781
151231.80219459533691
151131.70025444030762
151048.75666046142578
150978.91806221008301
150920.11228370666504
150872.15340042114258
150836.82427215576172
150815.15262031555176
150809.20279502868652
150817.23432540893555
150840.97357559204102
150876.42814064025879
150923.83601379394531
150984.76476669311523
151046.15447044372559
493512.46317291259766
491726.01731300354004
489939.02433776855469
488143.6158390045166
486350.7780876159668
484578.17654800415039
482834.76740837097168
481116.36653137207031
479412.1988353729248
477716.20649528503418
476034.62166976928711
474378.34478378295898
472747.02537727355957
471126.10105133056641
469500.07098388671875
467864.27921485900879
466224.04970169067383
464589.99880790710449
462975.5963249206543
461393.17733764648438
459845.39736938476562
458319.84651565551758
456795.82403564453125
455259.80381393432617
453713.85194206237793
452168.67146873474121
450629.62946319580078
449091.8442554473877
447547.58829689025879
445995.12219619750977
444440.03836822509766
442890.10702133178711
441349.33348846435547
439814.83371543884277
152521.78550720214844
152281.60334968566895
152067.86940574645996
151882.31828880310059
151725.50522232055664
151595.62201690673828
151488.43256378173828
151398.51196098327637
151320.88777351379395
151252.6718864440918
151193.09793472290039
151143.54376983642578
151104.94955253601074
151079.40249443054199
151065.97243309020996
151067.17374229431152
151080.62053489685059
151107.10458183288574
151148.24610900878906
151190.23963928222656
492216.10539054870605
490392.38151931762695
488574.22638702392578
486773.99329948425293
485005.42779922485352
483271.15500450134277
481561.07367324829102
479861.58015823364258
478169.03318977355957
476495.33114624023438
474857.41732788085938
473257.53669166564941
471676.77811813354492
470090.62100410461426
468487.16473770141602
466871.43909454345703
465259.43290328979492
463671.65445518493652
462123.6000804901123
460613.81837463378906
459120.98188209533691
457617.30562210083008
456086.80441093444824
454532.40576934814453
452968.41128349304199
451406.25801277160645
449845.4445915222168
448276.93186187744141
446694.42286491394043
445101.39162826538086
443507.67927551269531
441920.69955635070801
152877.79685592651367
152650.3541202545166
152452.49271392822266
152285.18417930603027
152146.19947052001953
152030.45689392089844
151931.71955680847168
151844.60273742675781
151766.15106391906738
151695.72470092773438
151634.59137344360352
151583.32781028747559
151543.11648178100586