/*--------------------------------*- C++ -*----------------------------------*\
  =========                 |
  \\      /  F ield         | OpenFOAM: The Open Source CFD Toolbox
   \\    /   O peration     | Website:  https://openfoam.org
    \\  /    A nd           | Version:  12
     \\/     M anipulation  |
\*---------------------------------------------------------------------------*/
FoamFile
{
    format      ascii;
    class       volScalarField;
    location    "0.0063";
    object      rho;
}
// * * * * * * * * * * * * * * * * * * * * * * * * * * * * * * * * * * * * * //

dimensions      [1 -3 0 0 0 0 0];

internalField   nonuniform List<scalar> 
106891
(
1.1520764690333800129
1.1522225487174710956
1.1523802333343968751
1.1525360489073011028
1.1526697968178087894
1.1527675608252434536
1.1528168240043574766
1.1528089531937433243
1.1527559082580127736
1.1526577681352669913
1.1525363409486368838
1.1519475783342461028
1.1521316789745799092
1.1522478988268931577
1.1522953272581424322
1.1522856611260663406
1.152238725935047281
1.1521832581811439766
1.1521385366841381259
1.1521184429157205198
1.1521239980725079821
1.1521382972579332638
1.1521362441272073873
1.1521034895945874155
1.1520578752107255571
1.1520465810492463987
1.1521193776524953911
1.1522923069094712645
1.1525340531370784625
1.1527888803419772401
1.153003487848750952
1.153148793422451357
1.1532219218873773769
1.1532285689853030153
1.153170711055644615
1.153047749350740947
1.1528767080555499813
1.1527011464316694322
1.1525856150118649612
1.1525872765341791393
1.1527205186676077187
1.1529490374817081833
1.1532064735798213118
1.1534365510129789278
1.1536206049865720402
1.1537738032052826664
1.1539213476967835614
1.1540735875772081265
1.1542152300576609125
1.1521405432663132107
1.1520753816802000724
1.1520118230357461186
1.1519539210704918819
1.1519072160607952693
1.1518796494761966986
1.1518789020296151815
1.151911110358593282
1.1519790395969378149
1.1520811750722825817
1.1522093936083326327
1.1523496012333280802
1.1524899772625041283
1.1526139277319731313
1.1527114497505412949
1.1527710101172214952
1.1527815074074863055
1.1527517892978647041
1.1526757218351870726
1.1525734310925679349
1.1521315827556324329
1.1522533382442938787
1.1522713700692763794
1.1522245741581691458
1.1521604778088525567
1.1521066738686769337
1.1520772702145263278
1.1520727346802828173
1.1520794656827393343
1.1520745371643259514
1.1520406007858572384
1.1519779100276408279
1.1519176786930171996
1.1519099872662867945
1.1520052084850538332
1.1522169324910371824
1.1525077157576937292
1.1528154075870047368
1.1530749149100123496
1.1532465923316017609
1.1533231948594531158
1.1533126581856645299
1.1532268702533303717
1.1530836882133352894
1.1529108175831344063
1.1527523095047209623
1.1526622659894585343
1.1526782592645588021
1.1527998318203231953
1.1529866770586265634
1.1531830272881951061
1.1533516159901358034
1.1534922361808797042
1.1536313877624799762
1.1537900943104670848
1.1539609702093929222
1.1521013060539098127
1.1520822541923714244
1.1520549233784203036
1.1520214542554036985
1.1519873718660458284
1.151960661971540345
1.1519503472241909847
1.1519646923018453943
1.1520077166931663726
1.1520800143818912264
1.152177716412937647
1.1522903569999451978
1.1524078214458657321
1.1525146854458945267
1.1526038338036641573
1.1526667974136401984
1.1526935388427872464
1.1526912229187527004
1.1526472304769379562
1.1525776344922873395
1.1520657357783170571
1.1521303847129609199
1.1520958076378542412
1.1520203899132470671
1.1519616262923020322
1.1519491918127198193
1.1519795637800682719
1.1520268602247987211
1.1520613872724503324
1.1520573202910717736
1.1520094272723049311
1.15194156552714011
1.1518946999176546964
1.1519141180040086692
1.1520305100483081429
1.1522492726013515707
1.1525371364611602942
1.1528349691582486791
1.1530836786480394007
1.1532448016851859496
1.1533091486320907748
1.1532864038843959609
1.1531929187621765553
1.1530574886273337043
1.1529128662749874579
1.1527972125075807153
1.1527459146314036342
1.152775111740912628
1.1528714906920085603
1.1529968028650492418
1.1531127724323919637
1.1532041021740095932
1.1532875297960474281
1.1533974090748808639
1.1535514612432387072
1.153728418709004222
1.1521072583107028198
1.1521151572963532761
1.1521048422021922253
1.1520807485624675603
1.1520511128604842277
1.1520253517979761604
1.1520135646797797779
1.1520224749686807098
1.1520552045049601286
1.152111151914113174
1.1521841781922348424
1.1522687680367063034
1.1523521170736661379
1.1524284603971073349
1.1524902116141468866
1.1525283570497475427
1.152550285387869744
1.152540125913819935
1.1525106426748414901
1.1519838525509866756
1.1519289974597921589
1.1518506725153681014
1.1518142003857048117
1.1518492175914309961
1.15193393090604701
1.1520173797021273643
1.1520571592621198231
1.1520471071425963938
1.1520023690778413705
1.1519628977125884184
1.1519727651162796622
1.1520517135521182173
1.1521980448885045245
1.1523923069291592824
1.1526143091065212953
1.15283596296994717
1.153018325334291605
1.1531326089494617904
1.1531713667489409403
1.1531426610989266024
1.1530653261791861119
1.1529660233243359535
1.1528754141536614597
1.1528220419067620739
1.1528199141851174225
1.152866731427660385
1.1529442945989973879
1.1530211482598520245
1.1530726342388983863
1.1531005352743441961
1.1531324369426272369
1.153204637166356239
1.153333876137619507
1.1520946604604251906
1.1521584029186839881
1.1521958020958167346
1.1522043492283227106
1.1521870072994131462
1.1521514208966212589
1.152107079058450223
1.1520648355544174102
1.1520333351138789535
1.1520184656326373229
1.1520231120301662742
1.1520451623600298507
1.1520843752926794856
1.1521330419960680302
1.1521884911201873969
1.1522438091367264157
1.1522889255336690173
1.152329385206944723
1.1523477630427261253
1.1523559018179769797
1.1518103201166067784
1.1517298566524600822
1.1516464537054535988
1.1516291120082753352
1.1517010408880445915
1.1518290362363552415
1.1519483548957423213
1.152012689086047148
1.152025732642197875
1.1520314806954496945
1.1520754381409581413
1.152179801104802781
1.1523273470439163724
1.1524764215356733121
1.1526050831887602044
1.1527083727083269338
1.1527910493426611893
1.1528606293725671694
1.1529085784132508952
1.1529237898654325356
1.1529058651773571587
1.1528662383954384474
1.1528238868201277079
1.152798686514161286
1.1528035512989653899
1.1528392523344304088
1.1528937951028053188
1.1529484874648432413
1.1529830125160804855
1.1529853981759630166
1.1529631025033382219
1.1529446051929410633
1.1529644984499560767
1.1522166979596730751
1.1522759934591835229
1.1523006542011837716
1.1522917604555868998
1.1522552159150307727
1.1521988202593267392
1.1521321199121812295
1.1520638198781936179
1.1520018168809778025
1.1519529563743844403
1.1519197537055509972
1.1519068768297784366
1.1519115197844060905
1.151934807727212462
1.151972401025486592
1.1520149819109111178
1.1520661121498716462
1.1521068668389200518
1.1521474450186457439
1.151593602344382683
1.1515531972231207725
1.151574879907063309
1.1516791922264806303
1.1518342810409887278
1.1519763829646911812
1.1520621280117846474
1.1520988685640594085
1.1521437689544133942
1.152249459721675251
1.1524031510922716492
1.1525622136076660862
1.1526731769115701187
1.1527100801829446297
1.1526864336771647235
1.1526395425895297198
1.1526104434695714218
1.1526112823001868346
1.1526275706262940624
1.1526412308645630489
1.1526518916131671677
1.1526707762408492375
1.1527033500744356953
1.1527481960231056313
1.152800809008375893
1.1528532749958273484
1.1528942189826725251
1.1529078997560697761
1.1528816066157385745
1.1528205736341075038
1.1527522141586015181
1.1527101738367300232
1.1522498191479857432
1.1523216536675195965
1.1523609391081475195
1.1523657350635589935
1.1523384314683107199
1.1522834722507928618
1.1522076416405238053
1.1521178364736488486
1.1520218655234699678
1.151928911999288152
1.1518455985153097654
1.1517815083813016663
1.1517390022702551633
1.1517230495226435938
1.1517328978167180598
1.1517619448479985422
1.1518135979148262926
1.1518696849448553099
1.1519381868944056357
1.1515192912386535973
1.151537888895639572
1.1516215492985992785
1.1517675551754846808
1.1519328088534597221
1.1520755573035958985
1.1521919082246463439
1.1523037535350562077
1.1524351263319854155
1.1525787129183158175
1.1526908742857395751
1.1527282636729401233
1.1526692281238468674
1.1525445744845659313
1.1524195283901024212
1.1523390320983999402
1.1523134746724001953
1.1523265929201016444
1.1523592771088992937
1.1524047137359099136
1.1524637150450953715
1.1525326270562141762
1.1526038820544406427
1.1526703543830849608
1.1527239384360019603
1.1527514475654738746
1.1527403892770273774
1.1526838256204112731
1.1525887290046745726
1.1524800286135665761
1.1523151464717256154
1.1523714315063269265
1.1523984645846458985
1.1523926174101681852
1.1523526897972991012
1.1522816601544147996
1.152184898470668406
1.1520702797410906637
1.1519484892358400341
1.1518286903935850418
1.1517237588358684164
1.1516404611474069242
1.1515873831695655483
1.151567704344097498
1.1515785378965541774
1.1516241590895508473
1.1516889989677348005
1.1517790037852464469
1.1516235361603144316
1.1516251961905992207
1.1516978984366907923
1.1518546917984342493
1.1520588403499925079
1.1522592399016902132
1.1524268754789486202
1.152546650310579901
1.152610171807649575
1.1526039189500332238
1.1525344447893113298
1.1524212908866455773
1.1522966650878421202
1.1521914303408098412
1.1521207772652644064
1.1520885984403650415
1.1520878016844131597
1.152114806750020648
1.1521696121066133944
1.152249820277509551
1.1523498522514368236
1.1524550375700872706
1.1525448851205417622
1.1525945965685056027
1.1525893489909682099
1.1525241774229677549
1.1524084681651416417
1.1522648764479694883
1.1522689866624404864
1.1523476897526307994
1.1524040649693634286
1.1524281929054240869
1.152413050814470763
1.1523572652372280345
1.1522642954783601787
1.1521423948687115058
1.1520045282148527743
1.1518629659336141469
1.1517332915359959067
1.1516253492511481227
1.1515495522579421994
1.1515114611495309571
1.1515105312923816783
1.1515507389777726033
1.1516194602218763343
1.1517206968626076957
1.1516398729682115754
1.1516713347200679962
1.1518301615495780688
1.1520933467008187545
1.1523773762689810685
1.1525815146650340015
1.1526389431740844405
1.1525549254565938817
1.1523919369454209694
1.1522193994694749364
1.1520879530095275989
1.1520118202960625275
1.151970270687421527
1.1519425595023853326
1.1519148680360775661
1.1518917168546083385
1.1518930382565277792
1.1519368852303200068
1.1520272910192215221
1.1521529525388933823
1.1522863665340343786
1.1523851830946956198
1.1524119961883523278
1.1523454294974009304
1.1521941323031414939
1.151994150636251657
1.1517935742146683253
1.1523223842791652238
1.1524096560410435064
1.1524657603411545548
1.1524782698611248932
1.152442149762533008
1.1523595705937028644
1.1522396277053088554
1.1520975625540410547
1.1519488132758359811
1.1518115106726101171
1.1516978505117030362
1.1516185004045316198
1.1515795473878915889
1.1515805460374592961
1.1516226727687421949
1.1516947067134870597
1.151797415146980752
1.1517807242852455829
1.1516969843018083353
1.15168654143704563
1.1518118389185945105
1.1520612915162231626
1.1523474661136927644
1.1525425708635881339
1.1525590844057052031
1.1523960473217271794
1.1521402557738711359
1.1519010425128104469
1.1517519516306571337
1.1517010133063425581
1.1517104095471977221
1.1517310620665468512
1.1517357483245262983
1.151731000774401048
1.1517390403879985694
1.1517795509952286626
1.1518602192683753405
1.1519681898503968398
1.1520762067446443933
1.1521443191338431866
1.1521302597810751944
1.1520117351689913576
1.1518011117981252767
1.1515432181835498771
1.1524454203157079579
1.1525172536473684559
1.1525449879339506598
1.1525235110039731001
1.152455789801257735
1.1523517320417453469
1.1522270374229768297
1.1520971373489881096
1.1519789518524501393
1.1518840507952485819
1.1518208310811308692
1.1517936028470652232
1.1518008647467439243
1.1518407891239170748
1.1519038666534087145
1.1519882183573302292
1.1518620613562409183
1.1518214740358894144
1.1518182684045761288
1.151903416344473019
1.1520761644424413195
1.1522758547372289328
1.1524136375079951922
1.1524154308628351551
1.1522754231072813713
1.1520467957544762161
1.1518131529038082572
1.1516426827853856185
1.1515586476853210129
1.1515395819691744972
1.151548143420630721
1.1515641928540212291
1.1515828199070909932
1.1516084583722183687
1.1516407028442192662
1.1516777404597311474
1.1517162463693886298
1.1517487859903976499
1.1517577352274253055
1.1517223334391333278
1.1516236887227562224
1.1514575609655108845
1.1512447645472438928
1.1510322409146178657
1.1525832868014644905
1.1526042493481511997
1.1525820616391937445
1.1525233317789715937
1.1524395646904186385
1.1523453770326697043
1.1522531276870318084
1.1521747243261706295
1.152117002548787017
1.152083020852832318
1.152073510538384804
1.152085060176739173
1.1521136888413499033
1.1521532344488540911
1.1522026112768106731
1.1519981754463415324
1.1519967680753164796
1.152026448541113357
1.1520979234270469771
1.1521880841178775423
1.1522504244831852649
1.1522395018021975854
1.1521364822966393415
1.1519610787700080845
1.1517638235369822564
1.1515948565865719022
1.1514805140442903042
1.151424761375668071
1.1514144844383251698
1.1514362354967941915
1.1514777457506559788
1.1515267385549516899
1.151566279256679648
1.151580171074830794
1.1515680050774559362
1.1515352359542647687
1.1514917701800908567
1.151439054198287737
1.151365894469861928
1.1512527320709415868
1.1510916824648578238
1.150904540172832613
1.1526589064122911843
1.1526318143279377093
1.1525792492015902724
1.1525144940859577414
1.1524508382928011496
1.1523971143014377638
1.1523594835360795319
1.1523390943159625976
1.1523334683554256053
1.1523395142324512896
1.1523521963988196948
1.1523670261658101044
1.1523819610959888937
1.1523975986443162345
1.1521622639600976878
1.1521444006608354549
1.1521259855771361913
1.1521196237526543094
1.1521192009718272953
1.1520989778238694967
1.1520335859413588508
1.1519152293048633418
1.1517615365155833285
1.151603109782704415
1.1514707047773602433
1.1513833142906275686
1.1513458705603958343
1.1513520604283360438
1.1513869650176997705
1.1514268510098721876
1.1514453929292358669
1.1514256676095391274
1.1513700376338846798
1.1512981229994387888
1.1512343461635135
1.1511917824163000468
1.1511579034141332656
1.151100170006022605
1.1509912610782697673
1.1508282397371831784
1.1526960372254935194
1.1526505472194212842
1.152603959587207072
1.1525687737564174196
1.1525509131604672053
1.1525512987658541597
1.1525654992217775341
1.1525854685399545829
1.152604473200319779
1.152616714689204791
1.1526181850707279963
1.1526108230155989176
1.1525970657433053379
1.1522291369914337
1.152114227722815798
1.1520183563744845756
1.151963712856482358
1.1519394773537805499
1.1519117279705746171
1.1518523833686646896
1.1517551386174800232
1.1516354250344804644
1.1515178517868696062
1.1514230893645953646
1.1513637763671382697
1.1513391142762650077
1.1513374424231168636
1.151336858145637132
1.1513162325052568313
1.1512650785015814403
1.1511919738066431762
1.1511214833471921093
1.1510822819912447379
1.1510847876384715516
1.1511066128064737502
1.1511018913654649243
1.1510262685366798863
1.1508640149202105096
1.1527455425765578134
1.1527160162076695027
1.1527041969038602787
1.1527141841134294076
1.1527433471594166203
1.1527835151308150063
1.1528228469268300138
1.1528520073766075349
1.1528647201695056967
1.1528574572192162861
1.1528353575070182657
1.1528023797480009272
1.1521489740889605535
1.1519950613639551307
1.1518996284976661393
1.1518608009431612338
1.151846156756210382
1.1518208243161234261
1.1517674805542983396
1.1516929258576855677
1.1516122583149621672
1.1515350264725605633
1.1514649034331336797
1.1514009929027013701
1.1513383126046687899
1.151267643292824383
1.1511844458849012085
1.1510939306453460418
1.1510126521129686594
1.1509661618727478061
1.1509755882576402364
1.1510391627152378735
1.1511221651808085653
1.151167069188277603
1.1511182023615560421
1.1509546596946109709
1.1520110247359958144
1.1518828748827711905
1.1518182450994929322
1.1517945513168985627
1.1517821092157634055
1.1517650980564597685
1.1517440531714648877
1.1517201384585158408
1.1516860198415599381
1.1516275663542465679
1.1515361881409660327
1.1514122772687389595
1.1512662397624560118
1.1511174641589811962
1.1509898001076928065
1.1509077177192452712
1.1508913774020703702
1.1509489102414873773
1.1510654432216904652
1.1511952935017022437
1.1512721667026788452
1.1512362448744402066
1.1510653904807663928
1.1518620322404289347
1.1518186020261176328
1.1518019110915664882
1.1518066898119616592
1.1518305236908841227
1.1518608178907923101
1.1518702129342552887
1.1518257800903293209
1.1517077159222728344
1.1515216859676000727
1.1512993426457396318
1.1510851865437210506
1.1509213230859351995
1.1508373317474187569
1.1508470383411968374
1.1509459010128937351
1.1511064270129829357
1.1512754844384249786
1.1513827416601558618
1.1513670377816331847
1.1512055429512841886
1.1519653878084601395
1.152044577912136436
1.1520934176227182189
1.1520620634878397937
1.1519218194772171682
1.1516843800799230202
1.1513992002874617882
1.1511320199890773264
1.1509386035306539142
1.1508501094882896965
1.150874454523215018
1.1509970790217045611
1.1511813878642600528
1.1513704125077988127
1.1514947367603456385
1.1514956277555385977
1.1513494787263323094
1.152100223993951067
1.1518362781952498075
1.1515162769749314187
1.1512179755394353897
1.1510037089979983094
1.1509065158601996526
1.1509299652839268813
1.1510540043313874925
1.1512396548259193896
1.1514303157955607659
1.1515604810689636928
1.1515759760148944757
1.151453423538926657
1.1519990005236084851
1.1516784574767386928
1.1513767052038323957
1.1511566086794084995
1.1510510841947190208
1.151062296949390662
1.1511692199549150573
1.1513341073244141022
1.1515047945974921095
1.1516232855944581459
1.1516414576032751871
1.1515370359975163339
1.1441889057919998329
1.1451724063932358089
1.1464784095905709016
1.1478670028632023126
1.1490189003094757325
1.1496512781157275374
1.1496143973708121688
1.1489382150733431498
1.1478256058614548785
1.1465827759620721427
1.1455281035204836204
1.1448920891808977984
1.1447590437195471758
1.1450793258342535363
1.1457168079769648461
1.1464987479838595341
1.1472478454187988728
1.1478116730826894987
1.148088902437353509
1.148059192023617614
1.1432717917017007903
1.143616082613426288
1.1443924239557909939
1.1455711741230303335
1.1469744644896686658
1.1483198341658689134
1.1493124037186845943
1.1497269162452834479
1.1494799535776367705
1.1486585509000950545
1.1474964015193973577
1.1462982635851279856
1.1453446139793836966
1.1448118729731129317
1.1447545619788002114
1.1451223613388605838
1.1457867943965047708
1.1465735056260411007
1.1472981900121075327
1.147803584499906604
1.1480084550030464907
1.1479230418634929212
1.1435566545966040497
1.1432742034014982124
1.1431625330991326273
1.1433639043009180547
1.1439818832127000015
1.1450101668373462438
1.1463153986439116316
1.1476746974763780695
1.1488306305110049799
1.1495500507347178321
1.1496855978330366987
1.1492232917862346131
1.1482930140430869237
1.1471303993857642212
1.1460055502695816187
1.1451528547679492576
1.1447212541207212322
1.1447560533089471413
1.1451982419276618419
1.145901504103337798
1.1466734649532930312
1.1473244454636968293
1.1477240400939046072
1.1478340108941387232
1.1476989544092648377
1.1474210780591767023
1.1437593533599448303
1.143476486199725306
1.1432654827763901739
1.1432362269443263614
1.1435243748997241386
1.1441993544210764533
1.1452129857918833533
1.146403023490034645
1.1475488129191309117
1.1484330667441828844
1.148893132631997771
1.1488516282165250892
1.1483419414799960201
1.1474982486559053285
1.1465163215145783848
1.1456014404367549364
1.1449335219968963528
1.1446276387519647155
1.1447214160745313727
1.1451552370512432244
1.1457937085725298232
1.146461760761621651
1.1469987049437688764
1.1473031398789972357
1.1473586474776593658
1.1472165012965085396
1.1469678204856772474
1.1467106634866750525
1.1433401141792622902
1.1435460005239392878
1.1437787467952604814
1.1440702063618752859
1.1444944346460284024
1.1450960873983244692
1.1458196548271422088
1.1465070991747596807
1.1469814869050256601
1.1471294317383187167
1.1469422179415151852
1.1465127027104149438
1.1459885164296166327
1.1455243459213186874
1.145235232960088112
1.1451681245008100696
1.1453041681751487957
1.1455794127008198657
1.1459238558333748603
1.1462760220241396958
1.1465813918768812396
1.1467960368209995092
1.1468907582234459941
1.1468687215559754122
1.1467586677445362753
1.1466090451443775589
1.1464660149700354186
1.1463614279967124787
1.1463121791315622477
1.1463095823087521286
1.1442859210065814413
1.1445783131083446804
1.1448699784869467155
1.1450591542025165825
1.1451519369758396127
1.1452411644978532923
1.1454227931527736217
1.1457305844118659266
1.1461148039652877539
1.1464815383888693479
1.1467591733708653035
1.1469237107618484028
1.1469922088346136135
1.1470054957927269257
1.1470070155400327039
1.1470259386340673213
1.1470655524456572216
1.1471141659990569117
1.1471701611391971198
1.147248091951339255
1.1473717916275187889
1.1475516127148654988
1.1477663683497270064
1.1479795347836447839
1.1481627274479400125
1.1483069456012344745
1.1484206381123960306
1.1485199158651644424
1.1486222575829487802
1.1487458669831873692
1.1488969617630107045
1.1490557191743417942
1.1463951896184219059
1.1467738709216666049
1.1470682048891653881
1.1471888694976550838
1.1471824039838209863
1.1471865484593171125
1.1473295812301003149
1.1476520844003150756
1.1480854709343748521
1.1485172616755821018
1.1488600259144841065
1.1490773065376183038
1.1491802682611025332
1.1492107327421725582
1.1492179255729559895
1.1492364093024702854
1.1492720233111055617
1.1493141558087003329
1.1493600605566882678
1.1494256607882986643
1.1495283482132130359
1.1496734600799156656
1.1498314419350010862
1.1499621846844454431
1.1500382483300206626
1.1500591391744217074
1.1500377474063125938
1.1499924069242919433
1.1499432067348955844
1.1499114334749767075
1.1499087626425665842
1.1499214788068041759
1.1499117407379808586
1.1473035795649495494
1.1471483796689951884
1.1467299354606110828
1.14626873407245089
1.1461084520379256624
1.1464178240230884498
1.1474197506356182963
1.1477459770728000166
1.1479807418389851303
1.1480343439454747667
1.147958309484861994
1.1478999353997461075
1.1479919398125348895
1.1482691963592162043
1.1486613063686526015
1.1490499125081878873
1.1493434149071877215
1.1495071063776052256
1.1495514917657652099
1.1495187686307024588
1.1494604417232521243
1.1494112249382790747
1.149378853228869124
1.1493514880960589153
1.1493221301697593706
1.1493107059508378409
1.1493411870469829594
1.149416838933132734
1.1495083849768781281
1.1495737642804790823
1.1495873127933891045
1.1495506383222100499
1.1494754197525129946
1.1493771368381116016
1.1492745453375701192
1.1491899698511931494
1.1491389491582471027
1.1491107022176267893
1.1490669704439420151
1.1489730339342894005
1.1494965925932765227
1.1495580417722723876
1.1493884455922855903
1.1489368427118153981
1.1484368977274339585
1.148265412354374071
1.1485969689471615673
1.1476858365843338738
1.1479924130268317484
1.1482012578713303164
1.1482225380497481648
1.148110462797170328
1.1480173380643103886
1.1480833066371849416
1.1483416069454603914
1.1487177617103161431
1.1490894311315946741
1.1493619927528944125
1.1495019238204400303
1.1495223034501522719
1.1494661252499192017
1.149386864396728436
1.1493200743429932142
1.1492718789031624027
1.1492279179288360513
1.1491802595292577305
1.1491520188220833987
1.1491699362479668167
1.1492369627588718828
1.1493227320274770342
1.149381666332985219
1.1493896920572623799
1.1493482456181169926
1.1492690842075827806
1.1491671999096568779
1.1490612310642314142
1.1489740427617114449
1.148921922621271241
1.1488931867283531663
1.1488495269710334856
1.1487557531809957645
1.1486108374034962321
1.1520266610805631746
1.1519615734375108218
1.1519349053579941433
1.151948751216536948
1.1519978843158047432
1.1520776567208990127
1.1521810082168051359
1.1522953553026837881
1.1524196154656043412
1.1525388359668884419
1.1526498882185558514
1.1520034698760543979
1.1520168845591973739
1.1520469311832666204
1.1520843389912267529
1.1521183211490255704
1.152140403774115196
1.1521528250850321395
1.1521598061095228438
1.1521570082657086598
1.1521389416456755406
1.152107284131072662
1.1520889048799709542
1.1521134946822495504
1.1522034248550865332
1.1523564390978726646
1.1525327698532776832
1.1526819598679567402
1.1527814286171254032
1.1528559157761681941
1.1529550100597154572
1.1531131671616468015
1.1533187151007002758
1.1535143605180504522
1.1536370534997912873
1.1536608142236246533
1.1536071610498999096
1.153532255872875778
1.1534913670444622014
1.153502725949558716
1.1535430299073254901
1.1535744575421227331
1.1535758097976240855
1.1535597436975046914
1.1535648203206427809
1.153629350488375449
1.1537649423684119832
1.1526042430902134761
1.1526499521271895699
1.1526739740187585959
1.1526699511247158192
1.152633230299622058
1.1525624074414662079
1.152460862387475915
1.1523372217985639043
1.1522050291552394796
1.1520779429602596711
1.1519689939794541811
1.1518889818140927161
1.1518449627948630365
1.1518433581111906516
1.1518826357500209223
1.1519622054415921131
1.1520760611103215698
1.1522097062150016278
1.1523586493161155353
1.1524997409707380402
1.152626504705998034
1.1519138748016983786
1.1518921499343850456
1.1518986564625848246
1.1519306936031947775
1.1519698062434915453
1.1520028225556262491
1.1520221265823296086
1.1520283464473841661
1.1520262323541992089
1.1520210097109639946
1.1520286515115647497
1.1520695750432023985
1.1521654563509975411
1.1523284089765404303
1.1525334970517604471
1.1527269260277785978
1.1528563505762070562
1.1529067022458396874
1.1529098119828975477
1.1529252095016186974
1.1530025047453824616
1.1531453692381625764
1.1533075361179407903
1.1534276117268147388
1.1534718537076371625
1.153456429011224138
1.1534325005957091204
1.1534482766035665247
1.1535149504582942193
1.1536014031917720679
1.1536582241586370579
1.1536551056494366296
1.1536017482254514732
1.153543231288913562
1.1535311053849703899
1.1535919428685539323
1.1524733036250800478
1.1525099787504979876
1.1525340226016591583
1.1525377268586560753
1.1525159235403410474
1.1524650830920628586
1.1523841711438498336
1.1522759369386053052
1.1521497329226171313
1.1520188653990797167
1.1518989058648212431
1.151804316349767543
1.1517458191755720609
1.1517340236357549443
1.1517700380489903633
1.1518551652597235346
1.1519827245177411967
1.1521358423694696427
1.1523072256507744804
1.1524672004729841213
1.1526057904147875011
1.1518079931618354639
1.1517980944247461217
1.1518139676189220744
1.1518409939600058323
1.1518666556580108296
1.1518837538714983282
1.1518899651307488163
1.1518955243107917852
1.151910893535118996
1.1519581115818273709
1.1520548881361660776
1.1522261102822519696
1.1524632251274662398
1.152722876919405337
1.1529407425675546328
1.1530579988184685991
1.1530560466364738748
1.1529666600097929763
1.152860377688328164
1.1528110546519001467
1.1528526781610684004
1.1529627299916394012
1.1530879510453562187
1.1531843103888863578
1.153248128828824326
1.1533070832026208752
1.1533904985414717981
1.1535013854264988264
1.1536088798873320727
1.153665186172896151
1.1536400822997352478
1.1535461368126789239
1.153431141946501759
1.1533511301425614093
1.1523678563086479087
1.152389671367202606
1.1524005477724432733
1.152390974989615291
1.1523543089102827874
1.1522875780538082147
1.1521910734397431408
1.1520708703045445809
1.1519385195737101846
1.1518112239503477401
1.1517078827457911672
1.1516436950109978365
1.1516324508627464596
1.1516760272131261189
1.1517751731911298751
1.1519208490816184032
1.1520930704492557961
1.1522815332327824844
1.1524518634889746593
1.1525927795736712334
1.1517515089373964177
1.1517250449903142506
1.1517137454267649677
1.1517091861627586358
1.1517070315919180068
1.1517139138826810729
1.15173550484178433
1.1517741665140432961
1.1518406783589003606
1.1519433107711174458
1.1521012710361897557
1.1523271365114411413
1.1526068605170662895
1.1528942903937997588
1.153119962432126222
1.1532163364638585712
1.1531518509190255006
1.1529585103762785003
1.152723603335874758
1.1525417873180072714
1.1524763587505468809
1.1525360017963832693
1.1526820753958937349
1.1528612486150824346
1.1530337582267755625
1.1531887065001671377
1.1533316830621118676
1.1534570653992854972
1.1535442161602302846
1.1535662897794727311
1.1535086087863886117
1.1533845146625034683
1.153234143615504026
1.1531057459312916702
1.1522416855586026241
1.1522521403755747738
1.1522605187551062667
1.1522549778661497211
1.1522246246738176989
1.1521634426587112898
1.1520710799978408634
1.1519543400572149761
1.1518251507644228226
1.1517008172807337019
1.1516013695713760434
1.1515440158578351681
1.1515445174071738954
1.1516051883551261525
1.1517251910783339319
1.1518914649505085368
1.1520798840897115145
1.1522769698209707201
1.1524459300523186567
1.1525769326848105401
1.1516842304249503837
1.1516357717988821019
1.151581587935458062
1.1515413488185457513
1.1515439925906640894
1.1516032415097805508
1.1517135999540895064
1.1518601000973580639
1.1520264502585957356
1.1522140770452380387
1.1524356069286341153
1.1526936336507380698
1.1529541441074597774
1.1531558376000494714
1.1532280470889573198
1.1531289187874378399
1.1528791938378439852
1.152559960367966152
1.1522765596911301866
1.1521195362378067184
1.1521321835301490122
1.1522957554015100801
1.1525483379842991205
1.1528183604982233934
1.1530514447639375053
1.1532214357346914912
1.1533225905069843797
1.15335682475744572
1.1533301237600916966
1.1532491998502685249
1.1531264335599906712
1.1529821676341640568
1.1521332268544253186
1.1521242953950276977
1.1521072841274122567
1.1520713311176054017
1.152009245854642705
1.1519196971086091974
1.1518096236134669486
1.1516916305844078217
1.1515829227621665609
1.1515025109165946127
1.1514660088405914706
1.1514875682244094524
1.1515680286228413554