/*--------------------------------*- C++ -*----------------------------------*\
  =========                 |
  \\      /  F ield         | OpenFOAM: The Open Source CFD Toolbox
   \\    /   O peration     | Website:  https://openfoam.org
    \\  /    A nd           | Version:  12
     \\/     M anipulation  |
\*---------------------------------------------------------------------------*/
FoamFile
{
    format      ascii;
    class       volScalarField;
    location    "0.0063";
    object      rho_0;
}
// * * * * * * * * * * * * * * * * * * * * * * * * * * * * * * * * * * * * * //

dimensions      [1 -3 0 0 0 0 0];

internalField   nonuniform List<scalar> 
106891
(
1.1520824465373924461
1.1522297172526252407
1.1523874920581858028
1.1525422379032903564
1.1526738920135970456
1.1527688089370913271
1.1528147756112796518
1.1528035385093757803
1.1527474336853253956
1.1526468764281774249
1.1525240076382239351
1.1519534721274720113
1.1521357369700222506
1.1522491817122246793
1.1522939414427895155
1.1522819161976725066
1.1522336594646720442
1.1521778565494116275
1.1521336352999174135
1.1521145474064171665
1.1521209227969295696
1.1521352596430383119
1.1521324599467230865
1.1520990137122935071
1.1520540445340292646
1.1520453695729566679
1.1521221174428037948
1.1522985769230025266
1.1525419889530701401
1.1527962159127147501
1.153008526093887598
1.1531509437269695795
1.1532212515085860094
1.153225349045219561
1.1531649308908522578
1.1530397280881801159
1.1528676747420869564
1.1526933254182556432
1.1525816182997008497
1.152588678537738387
1.1527269523267240636
1.1529584050432579723
1.1532162065255033845
1.1534451031755423855
1.153627920485109426
1.1537807406712887737
1.1539286904085452878
1.1540813096238797808
1.1542223815813670296
1.152134629831063517
1.1520697143949143459
1.1520064381675318987
1.1519490478489888829
1.1519032418900343462
1.1518770237796245315
1.151878100478364253
1.1519124503285873562
1.1519825414651123641
1.152086578387595095
1.1522161645802602159
1.1523568810502078374
1.152496653958745787
1.1526188898914275782
1.152713838494835219
1.1527703222258078863
1.1527776626534655957
1.1527450320046159771
1.1526665650430849563
1.1525626526428254248
1.1521354663932290574
1.1522532046336289024
1.1522677227915403275
1.1522193691665865156
1.1521551132862588585
1.1521019666394103353
1.1520735532089563247
1.1520697819154617214
1.1520765686266494221
1.1520708729049666807
1.1520358593745982922
1.151972740759943159
1.1519138138237896563
1.1519095021268315193
1.1520095262785825518
1.1522254412874910479
1.1525182707379697522
1.1528253061747402164
1.1530819181956317721
1.1532498308205887394
1.1533226885691174601
1.1533088367186905554
1.153220347752379471
1.1530754216502248077
1.1529022815902036925
1.1527455862417177457
1.1526593467044334851
1.1526799914101786282
1.152805442319278395
1.1529941900268796395
1.1531905167080420682
1.1533583066324342159
1.1534986945514116297
1.1536386095517849881
1.1537983249567425048
1.153969364327171343
1.1520981466532189685
1.1520789230871100184
1.1520513346493155282
1.1520177160176778841
1.1519838322019102517
1.1519578148683362606
1.1519487078530430413
1.1519647145956086742
1.1520096381138273944
1.1520837587318075723
1.1521829009188089277
1.1522963611038696818
1.1524138104052408238
1.1525197003352600778
1.1526069865987360608
1.1526674305384378982
1.1526914090330890872
1.1526864363894409049
1.1526401619113273433
1.1525688885364975267
1.1520679306948087284
1.1521280592474634208
1.1520906258011691659
1.1520146082439852719
1.1519570357420800821
1.1519463398986971026
1.1519779146227735467
1.1520253302379805938
1.1520589759177011224
1.1520533979808222913
1.1520044943021880979
1.1519370316515378239
1.1518923310152975326
1.151915412180023246
1.1520361103219156629
1.1522585204473889675
1.1525479547499328792
1.1528448403476829753
1.1530905308803982567
1.1532477017407052333
1.1533082519906427965
1.1532822651059226882
1.1531865279012551984
1.1530501756446425166
1.1529061193502776472
1.1527926140374749053
1.1527445741341271201
1.152777133226754458
1.1528758055187995346
1.1530018351684394595
1.1531174387130436187
1.1532084220916865025
1.1532925596953862435
1.1534042077314439201
1.1535598792212296004
1.1537369141608861955
1.1521069032490616202
1.1521138059461661918
1.1521025529775268392
1.1520778300205098965
1.1520480779664501458
1.1520227908197131494
1.1520120134015430224
1.1520223165822973677
1.1520565809331844154
1.1521139160371920429
1.1521879374392707263
1.1522729640265316764
1.1523560935497676461
1.1524315399802291804
1.1524917379152961328
1.1525278811941932489
1.1525476176812765594
1.1525353760351919608
1.1525042050251192993
1.1519799828080254933
1.1519230969001330589
1.1518453400245280971
1.15181140567244511
1.1518490345151806142
1.1519348185349755909
1.1520173438908192232
1.1520553265779407415
1.1520437898977924362
1.151998708992908238
1.1519607730061964812
1.1519734510293782037
1.1520554670242679762
1.1522042527288232083
1.1523999157608584287
1.1526223487514641874
1.1528430024502736018
1.1530229227133401704
1.1531341114711501916
1.1531699148212066763
1.1531388685954657713
1.1530601975776806345
1.1529607600828533087
1.1528713023983738761
1.1528200056145379016
1.1528201921611065384
1.1528689453908780305
1.1529474424474264183
1.1530240554793935726
1.1530748649030486686
1.1531027010612306949
1.1531358396700741586
1.1532103332267342743
1.1533415859369624545
1.1520987935999935647
1.152161163615798456
1.1521968694201016881
1.1522037405204856864
1.152185037833170389
1.1521486042554311968
1.1521040228851948672
1.1520621153095116362
1.1520314017080768298
1.1520176079126720481
1.15202342759210552
1.1520465584347139298
1.1520865848124768327
1.152135671174062681
1.152191089745133068
1.152245866970230237
1.1522899784341804619
1.1523290499492688799
1.1523458533274084648
1.1523524954696489075
1.1518056095602327016
1.1517242287146733926
1.1516426047548868894
1.1516287351772822589
1.1517036849216122363
1.1518324538327926465
1.1519501885564278343
1.1520121516234611558
1.1520240752024275555
1.1520307545520060977
1.1520771372308222791
1.1521840904469771161
1.1523327108260412732
1.1524813871422965317
1.1526091125753357147
1.1527113180904604572
1.1527931297867644034
1.1528618576396778561
1.1529084732879788522
1.1529222724870913375
1.1529032119945636925
1.1528631740562842456
1.1528212951178107293
1.1527973305564538364
1.1528037932306045565
1.1528409058446467128
1.1528962403058651276
1.1529509334038239299
1.152984769216163663
1.1529862651349094271
1.1529637936227010719
1.1529463171001148591
1.1529682376381096276
1.1522219486435907321
1.1522790908206743676
1.1523015578204385267
1.1522907512047559919
1.1522527985166730602
1.152195591435194455
1.1521286604532641196
1.152060608046121315
1.151999208172026723
1.1519511995044531272
1.1519190197590245539
1.151907231392216957
1.1519128769134159285
1.1519369344316725545
1.1519749159491254886
1.1520174758526249281
1.152068169399117048
1.1521081679525797536
1.1521478293063243115
1.1515896507340779298
1.1515513657912770373
1.1515765245249909299
1.1516838266014248759
1.151839647566228253
1.1519802009569195533
1.1520636538884854172
1.1520995777506737312
1.1521462397885420259
1.1522544238455274535
1.1524092576860596182
1.1525674691612444178
1.1526757231112811919
1.1527096539892551785
1.1526840028717231235
1.1526368246374207871
1.1526086436279543435
1.1526103829311291626
1.152626869555660738
1.1526403931055411167
1.1526512870516321119
1.1526708688038256323
1.1527043073254139571
1.1527500135826260763
1.1528033501368424307
1.1528561994585295736
1.1528969037025982303
1.1529096583724403047
1.1528821340786368221
1.1528203494225761627
1.1527523340878713665
1.152711629301273133
1.1522565048113955211
1.1523262270088709958
1.1523632270942691935
1.1523658524562256922
1.1523367011669374271
1.1522803420337923708
1.1522036217730753371
1.1521134527175562745
1.1520176254477130229
1.1519252617035868891
1.1518429139844814646
1.1517800783844418522
1.1517389855005817356
1.1517244544160076813
1.1517355411866394554
1.1517655310936403268
1.1518177426458120483
1.1518740160639917569
1.1519423999138098669
1.1515187780814819529
1.1515398109186312237
1.1516261789532917792
1.1517737703631971691
1.1519386795520492051
1.1520802407741106421
1.1521959306425386682
1.1523082184165236441
1.1524405132875352731
1.1525838755562665128
1.1526938960480135332
1.1527276929867689148
1.1526651035779966747
1.1525390185705750579
1.152414866187685849
1.1523363647470588056
1.1523126681684416894
1.1523268381911642155
1.1523601452190248562
1.1524062234140857175
1.1524659724568313557
1.1525355466794178216
1.152607287587955387
1.1526741217648099891
1.152727639598928322
1.1527544856342617496
1.1527421334623753069
1.1526840051602245119
1.1525877007578442246
1.1524788295722692144
1.1523207280111333883
1.1523751945264075758
1.152400142209810685
1.152392164853654144
1.1523502672661478652
1.1522776032209949282
1.1521796958804466637
1.152064549032993046
1.1519429111626573459
1.1518239318437446528
1.1517203945781344654
1.1516389000669726705
1.1515878448537708589
1.1515701854327395903
1.1515828679031601123
1.1516299987759577306
1.1516959344918944463
1.151786603805878384
1.1516237822933679258
1.1516276370286437913
1.1517033408901358182
1.1518625856658679663
1.1520671140123652787
1.1522664574799397208
1.1524322004809703923
1.1525498851889419694
1.152610930997903349
1.1526021518103684027
1.1525307679816212403
1.1524167604831798695
1.1522924811412276203
1.1521884096820584897
1.1521192850645125549
1.1520884325756151068
1.152088670684579208
1.1521167607236435515
1.1521727288585688065
1.1522541240325872014
1.152355102687864008
1.1524607206246400004
1.1525500467636404789
1.1525984113823839472
1.1525912944340426236
1.152524111039360033
1.1524068182210636113
1.152262539525353402
1.1522750180287526511
1.152352831664554822
1.1524075940839511034
1.1524295523298164756
1.1524119632209122166
1.15235379776413982
1.1522588546182970237
1.1521356806984957011
1.1519974328939694974
1.1518564446824157699
1.1517282330325462336
1.1516224573370195117
1.151549274290422753
1.1515139349473990649
1.1515156385412284035
1.1515581279773434709
1.1516286222581322285
1.1517310165454595072
1.1516395840855668808
1.1516755024093476845
1.1518389832608508794
1.152104647758242173
1.1523872939492962875
1.1525866754227291899
1.152638231809544056
1.1525500292293540117
1.1523857941758048895
1.1522144832291107974
1.1520855455394987121
1.152011620574459938
1.1519711831522514434
1.1519436205319861788
1.1519157851395027681
1.1518930227378860742
1.1518956249691247873
1.1519413500150239571
1.1520336633207621801
1.1521605906888878756
1.1522938340616530883
1.1523907661087646748
1.1524143273317997149
1.1523441436331840482
1.1521901970647012714
1.1519893050100125098
1.1517897742779918957
1.152328140255530986
1.1524142507615213749
1.1524683225850542723
1.1524782404196682872
1.1524393999472970496
1.1523544309051136914
1.152232830365085281
1.1520901125160114553
1.1519418255403373053
1.1518060308718944817
1.1516947108734663097
1.1516182550658462524
1.1515824075764826695
1.1515863947784483745
1.1516311031381156749
1.1517051163486549115
1.1518090699375671537
1.1517782579707194213
1.151695658308590442
1.15168934604476636
1.1518199722292814524
1.1520727380813857721
1.1523577434737724001
1.1525473788880589154
1.1525566876060611143
1.1523884902502641303
1.1521317756422444489
1.151895478479831203
1.1517508251283004039
1.1517034335265610157
1.1517142716125534641
1.1517345596882442305
1.1517383495650339587
1.1517334084227655033
1.1517422529306509116
1.151784345652710817
1.1518666428423307568
1.1519755105496656267
1.1520830027184283395
1.1521487553688323224
1.1521309043749359269
1.1520083466777302217
1.1517948659938779254
1.1515364744879377223
1.1524499898365490047
1.1525198124147879586
1.1525450267603736254
1.1525209990857079312
1.1524511481030710325
1.1523457360331847976
1.1522206596506845422
1.1520913863723012405
1.1519747379974558665
1.1518820728412129117
1.1518215127022386479
1.1517970589062955789
1.1518069275008826491
1.1518490304947424097
1.1519136806499410408
1.1519988988629834559
1.1518618020466835361
1.1518214030286779703
1.1518209003306025817
1.1519096959082442133
1.1520847884190386079
1.1522837665734178003
1.1524174128870547928
1.1524135799430383909
1.1522691399599132023
1.1520390591302223093
1.1518072059731332413
1.1516404259187977832
1.1515599980823394421
1.1515430416542886682
1.1515523218133523198
1.1515683926343136534
1.1515869491965042837
1.1516126260043770824
1.1516449044332068841
1.1516819660505197565
1.1517203916847762457
1.1517524274926533856
1.151760059330438013
1.1517224852320289141
1.151621161279798633
1.1514527159855156846
1.1512390474578206856
1.1510278494174859265
1.1525851493217582622
1.1526037983374501916
1.1525795546377435308
1.1525193866925751429
1.1524349986982229677
1.1523410318108493477
1.1522497380708840442
1.1521728428922817233
1.1521169499770926858
1.1520848975487443244
1.1520772205363289942
1.1520903438504896954
1.1521201744762077368
1.1521605035188267063
1.152210230705750682
1.1519994222257632366
1.1519989338739498042
1.1520301608389020842
1.1521029632849859592
1.1521929186551389535
1.1522531686545773866
1.1522388373264005335
1.152132493510284128
1.1519553142185325889
1.1517585170047781595
1.1515915963586320636
1.1514799195416145494
1.1514265863860964068
1.1514179989373349855
1.1514408107077338528
1.1514826905430251003
1.1515313558229340885
1.1515698631541211316
1.1515824843260347166
1.1515692764594984698
1.1515358737747620754
1.1514921606505541529
1.1514390527421856092
1.1513649255494950996
1.1512501462353808002
1.1510877194381088362
1.1509005142226860219
1.1526581171950844862
1.1526294575567923584
1.1525761315607401247
1.1525114508391929302
1.1524485598011406928
1.1523960513983786402
1.1523598279089557472
1.1523408016334244497
1.1523363327329505523
1.1523432402825926069
1.1523564638017764761
1.1523715633312967555
1.1523865615894548498
1.1524021033452005458
1.1521632326662749612
1.1521450370811061603
1.1521270204976410412
1.1521212303310994773
1.1521206809940649496
1.1520992231101236936
1.1520318489432233022
1.1519117045424642765
1.151757256761195114
1.1515994169906123012
1.1514686709993684488
1.1513834499550554824
1.1513480897429508865
1.1513558002587334084
1.1513913247854619115
1.1514306374827047996
1.1514476824363053531
1.1514262080466262095
1.1513694025621024064
1.1512973212941128853
1.1512342895460898617
1.1511926256634243959
1.1511586916068408115
1.1510996228306094036
1.1509886407013596443
1.1508240222536729735
1.1526941474597789394
1.1526484265632119808
1.1526024429182055719
1.1525684190758429537
1.152551928468776854
1.1525535669162243479
1.152568665302872164
1.1525890769025957105
1.1526080932972948556
1.1526200165354474336
1.1526209901031174709
1.1526131079659283074
1.1525989123058688612
1.1522264445220551377
1.152111443304063565
1.1520168674919233354
1.1519637659584558431
1.1519401065286138941
1.1519116179647077569
1.1518508459209755301
1.1517524008215282993
1.1516324117199066013
1.1515155249203119503
1.1514221648893081529
1.1513644486445431259
1.151340989415417404
1.1513396935418409583
1.1513384868309224363
1.1513165490180266026
1.1512640838926813114
1.1511904783321680323
1.1511207522475330745
1.15108330616404686
1.1510874033012190587
1.1511093851617699713
1.1511028817584803008
1.1510240722072120345
1.1508587781503751835
1.1527445633840265327
1.1527159175875951735
1.1527054332018622507
1.1527167885115670032
1.1527469979713262926
1.1527876703827935057
1.1528269162906821244
1.1528555027185367621
1.1528673335974664038
1.1528591012688913509
1.1528361423166360034
1.1528025500575149742
1.1521432850868751352
1.1519911061521350693
1.1518981760841424666
1.1518611090812003184
1.1518468069652414432
1.1518207278585010922
1.1517664277928636452
1.1516914515847271883
1.1516108669870517289
1.1515339643897151145
1.1514641641113605441
1.151400376085790489
1.1513374007523375919
1.1512660729852099983
1.1511822176358497138
1.1510915636590188793
1.1510111375012577195
1.1509666230208144277
1.1509785369487219864
1.1510438974072541019
1.1511267533143694219
1.1511690700093923923
1.1511158959621452524
1.1509481154784699797
1.1520055431676388125
1.1518800538219269303
1.1518176853402772863
1.1517951427045125534
1.1517828600802630934
1.151765709081306932
1.1517445692310204208
1.1517204366592994624
1.1516856009886957679
1.1516259042965533155
1.151533083050388262
1.1514078792118305206
1.1512611544096083005
1.1511126105454563273
1.150986256825093923
1.1509065210875832896
1.1508932391528794437
1.1509537634149535901
1.1510720442586930279
1.1512012780044496019
1.1512747915445649127
1.1512337088307089683
1.1510577805747481683
1.1518605001754786965
1.1518185711320063636
1.1518029405287142364
1.1518086130135307688
1.1518330038447108787
1.1518630128080022956
1.1518708037847160686
1.1518236322316139919
1.1517024859774991352
1.1515141173864849033
1.1512910039754309377
1.151077918303822667
1.1509166844281975006
1.1508362945286203516
1.1508499066659405585
1.1509520911594699477
1.1511142857468867895
1.1512823933238747198
1.1513858743217342262
1.1513645821455193996
1.151197543669261858
1.1519693862387205829
1.1520484327176905293
1.1520950534235216978
1.1520597403781192014
1.1519150638527555497
1.15167440078719574
1.1513883464419898406
1.151122844670025902
1.1509329577564317848
1.1508488944800010501
1.1508776587297790961
1.1510037497961194131
1.1511896482875099146
1.1513776319092134948
1.1514982031764979808
1.151493569049200083
1.1513418159396833218
1.1520927047604734295
1.1518249549642065599
1.1515039741320272082
1.1512075852055023706
1.1509972426846588611
1.1509048316412795465
1.1509328300252401611
1.1510603240749499587
1.1512475464978091377
1.1514372752675496869
1.1515640086244569584
1.1515744309315933958
1.1514466197941093384
1.1519874952336000007
1.1516658582753844797
1.151365916330930439
1.1511496545359998223
1.151048779168770908
1.151064364546171559
1.1511745762359175682
1.1513409930208209353
1.1515109670749181792
1.1516265464977040178
1.151640322789186488
1.1515312506178811969
1.1441888152577917026
1.1451770173688076149
1.1464856997658552373
1.1478734448325915718
1.1490215669749803684
1.1496488912004834138
1.1496072878341627721
1.1489281236889039572
1.1478145680504054926
1.146572982300029464
1.1455212740175899633
1.1448887834178951284
1.1447589381367360151
1.1450818582405546397
1.145721279172153384
1.1465045116701242378
1.1472538784387582567
1.1478164528288796742
1.148091316271529827
1.1480591881615769267
1.1432661044871479383
1.1436154041234634082
1.144396990120406965
1.1455788415564722715
1.1469817652641824957
1.1483237789882567714
1.1493114858969259995
1.1497213701744259939
1.1494708896250216412
1.1486478613960189321
1.1474860121420671355
1.1462898795323814838
1.1453392070167831562
1.1448095330511005585
1.1447553410106152683
1.1451260415427679806
1.1457926596694987253
1.1465804170169626719
1.1473043588900542211
1.1478075973351995476
1.1480100986988239775
1.147923204327786717
1.1435473642862084009
1.1432646831337562876
1.1431559531226966886
1.1433628223129290724
1.143986453082718624
1.1450178971662414718
1.1463228475753126645
1.1476791083335338151
1.1488305401802103578
1.1495456023294101655
1.1496776996432476192
1.1492134275862269099
1.1482828366955220023
1.1471212419439118513
1.1459984730074799231
1.1451484859476166456
1.1447201537311784136
1.1447584928144391991
1.1452037457092405504
1.1459086663272357587
1.1466805250469782607
1.1473297468341943084
1.1477272019481048471
1.1478356188925862291
1.1477002640027398339
1.1474233985225137378
1.1437522477518662356
1.1434671088412367013
1.1432557035327228778
1.1432297302570468833
1.1435236937608517227
1.1442043683645783947
1.1452209091981391254
1.1464101136746305265
1.1475522729873846028
1.1484317963750372282
1.1488875488547363179
1.1488429933192541021
1.1483319706011927419
1.1474884563237210955
1.1465076869924011316
1.1455945143343397863
1.1449291323626338279
1.1446264867771309692
1.1447238727362516464
1.1451607188397774362
1.1458007895233111029
1.1464686927237213165
1.1470040742819067603
1.1473065864040186135
1.1473607635795701754
1.1472183093614227722
1.1469704786974745936
1.146714918053860055
1.1433377767493955179
1.143541052155004456
1.1437708215587853999
1.1440617338691763116
1.144489075541132328
1.1450963867892385295
1.1458245089083398671
1.1465133062910577433
1.1469853853144720279
1.1471288362276701456
1.146937017146256288
1.1465042712281217074
1.1459788758681470622
1.1455153929589725337
1.1452280080257415396
1.1451629700476098073
1.1453008033338871741
1.1455775403313896987
1.1459241303121681099
1.1462785883057262648
1.14658586986801736
1.1468012905572042559
1.1468956224413537903
1.1468725055795536694
1.1467613301687673566
1.1466112060464208611
1.1464683928458425655
1.1463648109226673988
1.1463170974983050154
1.1463158010667766629
1.1442842169999600799
1.1445771361051668702
1.1448652714659763863
1.1450502055969802306
1.1451418380417377474
1.1452341651085462537
1.1454214039956276405
1.1457344526441108901
1.1461206390925722243
1.1464855985267905503
1.1467594248006671709
1.1469199680095829574
1.1469855242474893409
1.1469975595642427635
1.1469993661675541574
1.1470193972643101255
1.1470601205305990256
1.1471096739613340088
1.1471670849682296112
1.1472470689618607942
1.1473735384901571077
1.1475558861421488732
1.1477719343209606961
1.1479851012731276949
1.148167553988696632
1.1483108844825098416
1.1484240468491699882
1.1485233186837202624
1.1486263241802092683
1.148751249971224464
1.1489036622329946713
1.1490628762823340558
1.146394681885491984
1.1467734386079588838
1.147063521541555664
1.1471792527975963605
1.1471715439306611195
1.1471791376493516434
1.1473285318748307482
1.147656560690354377
1.1480918267104174291
1.1485217792761450717
1.1488605392894128965
1.1490736477768492829
1.1491735110407617082
1.1492026573725768746
1.1492101450461009726
1.1492297285136463536
1.1492662987727266799
1.1493093380174679297
1.1493566354631554738
1.1494243968951565193
1.149530014505509401
1.1496777553630366242
1.149837066693415899
1.1499676824794879959
1.1500429584989015908
1.1500630199012724653
1.1500410512897012438
1.1499955503654670785
1.1499468177042062589
1.1499162152931512448
1.1499149357472315813
1.149928294097136483
1.1499179514981667793
1.1472984993317476565
1.1471339681087098228
1.1467095540993537117
1.1462534652600457896
1.1461078550733667658
1.1464324906078722233
1.1474197056233153003
1.1477458534081319552
1.1479759344008046984
1.1480242584651687565
1.1479468639733576563
1.1478922464450176388
1.1479908027583887176
1.1482737968925256222
1.1486678599070938578
1.1490544294303712825
1.1493437671115669385
1.1495031309321934732
1.149544317404098015
1.1495102803058556695
1.1494522778549220998
1.149404154688054458
1.149372823444015701
1.1493462263666067713
1.1493180991815736824
1.1493090295783128241
1.1493426517630456196
1.1494210054597515658
1.1495138812421776819
1.1495791140930200491
1.1495919268491063825
1.1495545162505518277
1.1494787276905409357
1.1493801927482922842
1.149277943808951763
1.1491944511681475571
1.1491448967195236897
1.149117413389978859
1.1490731870106869472
1.1489780063585421921
1.1494973963496546432
1.1495528734233084744
1.1493734381081257556
1.148915237489250174
1.1484206810252426401
1.1482648959819565793
1.1486123932076106602
1.1476860167615470232
1.147992425750034684
1.1481963245358532966
1.1482121573163588391
1.1480986241684321136
1.1480093812152984967
1.1480821640981033749
1.1483462480998913868
1.1487242855600594549
1.1490938506540600006
1.1493621587124032146
1.1494976655500450669
1.1495147892236114995
1.1494572977745900477
1.1493784360310586035
1.1493128547143511842
1.1492656542659687169
1.1492223719527765446
1.1491758701056977721
1.1491501225386731022
1.1491712710615773485
1.1492410430215480588
1.1493280813713400157
1.1493868677580616477
1.1493942309205462671
1.1493520816151878705
1.1492723689977837331
1.1491701813463626181
1.1490644864206001063
1.1489783679444363074
1.148927721914870359
1.1488998222069726207
1.1488556928646598276
1.1487607389549558956
1.148614874421223897
1.1520185771000370778
1.1519555034929334081
1.1519308434869839353
1.151946454232344097
1.1519970342155680942
1.1520779809778913805
1.1521822508009142982
1.1522972588265127936
1.1524218088714852648
1.1525407816570198971
1.1526509790484260609
1.1520026288766331835
1.1520165431838143011
1.1520466828416782157
1.1520837947214479513
1.1521170090800816332
1.1521382423472115164
1.1521500289762462987
1.1521565778065214758
1.1521533165886537198
1.1521348625256953024
1.152103599459219696
1.1520869800199611266
1.1521143776193840669
1.1522076314018747656
1.1523630855452133837
1.1525398627153500275
1.1526877567212248099
1.1527857864862132153
1.1528602310337034975
1.1529608444229093589
1.1531208670823742679
1.1533267600027106159
1.1535201454233485752
1.1536389142065497371
1.15365878074632211
1.1536030113434676547
1.1535284929490152717
1.1534896941239862755
1.1535030908989039045
1.1535441976209144244
1.1535752150184948039
1.1535759782998951106
1.1535604136183805757
1.153567615705719529
1.1536352562471554606
1.1537735336272585407
1.1526058390512807783
1.1526507653002737719
1.1526732774589052433
1.152667206082549356
1.1526282239620067038
1.1525552699390773093
1.1524520319268851676
1.1523273455806921639
1.1521948971840583198
1.152068380784900814
1.1519607292861404613
1.1518825273613424454
1.1518405924947667796
1.1518410936804748257
1.1518822821115268784
1.1519634562959146784
1.1520785210049624414
1.1522129479750369274
1.1523621563236934318
1.1525028415214988442
1.1526284199158616239
1.1519109765531205802
1.1518898823733250136
1.1518973430817376347
1.1519297008583804232
1.1519684739486766301
1.1520006884231013267
1.1520190960017675508
1.1520246009187500302
1.1520223028774083662
1.1520174504719935538
1.1520266001480472529
1.1520699293263154672
1.1521690978725149801
1.1523350783521641993
1.1525414594792622314
1.1527337495084724051
1.1528604775600794774
1.1529082987811949401
1.1529105833531902991
1.1529272354645478948
1.1530068031536908624
1.153151004124321366
1.1533122900712760028
1.1534295248916466292
1.153470887970978076
1.1534541060438856519
1.1534311096671299168
1.1534491322211921638
1.153517636526362411
1.1536041716227349863
1.1536593455181818335
1.153654172214718443
1.153599992291075349
1.1535426772911632209
1.1535334797500353954
1.1535974593793050236
1.1524740414072900396
1.1525106295005009827
1.1525340324406128101
1.1525364448367461101
1.152512816096805226
1.1524599282572880465
1.1523771279634069664
1.1522674788155682357
1.1521405340192922839
1.1520097339495560806
1.1518907090031860196
1.1517978413323564091
1.1517416440652554765
1.1517324325838194099
1.1517709880208044648
1.1518583294183559751
1.1519875126063976456
1.1521415034532249688
1.1523128815098082622
1.1524719265544698388
1.1526087179813131467
1.1518048232281614673
1.1517960629068328959
1.1518125819266094023
1.1518395343450804624
1.1518645929919371085
1.1518808004008715962
1.1518863218330208653
1.1518917822300041021
1.1519081247218472264
1.1519573532286531137
1.1520573227110906256
1.1522322655699896998
1.1524719563098060338
1.1527318110362514414
1.1529471889998443856
1.153060150178858656
1.1530540140641467595
1.1529622904512941695
1.1528565690971412927
1.1528100137492580668
1.152854641789718082
1.1529661754746818314
1.1530909697660136626
1.1531860323281637459
1.153249298989705407
1.153309041210141217
1.1533939299472684148
1.153505650597876464
1.1536121839795994148
1.1536657813441533182
1.1536376166069273186
1.1535419303124800905
1.1534275445304791319
1.1533501758540596338
1.1523680329648702259
1.1523898079536012418
1.1524000739013413597
1.1523892348353332871
1.1523507563446837576
1.1522820091755381355
1.1521837503305272232
1.1520624583245908656
1.1519299280246981798
1.1518034531529812714
1.1517018846902382645
1.1516402563319978469
1.1516320569588256451
1.1516787559251846496
1.1517806654439861624
1.1519283114203824336
1.1521014341654367552
1.1522895658144400866
1.15245835336170388
1.1525967349892574099
1.1517482875334701387
1.1517225418862042652
1.15171177516212353
1.1517070856065134699
1.1517046264564059221
1.1517112596631946531
1.1517327795117877631
1.1517718157920615596
1.1518395578910494148
1.1519443408722587208
1.1521055468673000455
1.1523347293912713507
1.1526164399446912068
1.1529034169651721786
1.1531255661981885119
1.1532161413049806242
1.1531455466976499036
1.1529484914482210911
1.1527135772618499754
1.1525350053600604827
1.152474397948176188
1.1525383128034334401
1.1526869263508463526
1.15286682296006604
1.1530392107911797694
1.1531940367514046386
1.1533368967355404067
1.1534614916997794065
1.1535466725737928417
1.1535657431254369154
1.1535049296704718014
1.1533789301822772178
1.1532287099325695401
1.1531023044045136672
1.1522411691991620852
1.1522519511607050013
1.1522600731672605345
1.1522536339323945498
1.1522218035518609902
1.1521588083051423901
1.1520647150124492253
1.1519468144723292724
1.1518174206191453823
1.1516940133506274879
1.1515965635902065678
1.1515420454554750052
1.1515458587672839919
1.1516098768507072592
1.1517327955254663685
1.1519010696716276421
1.1520902461061979238
1.1522866570602012803
1.1524535619868663261
1.1525814486675334258
1.1516810921030926629
1.1516321506374771477
1.1515777574348537993
1.1515380503078409546
1.1515419873601939749
1.1516027091254856796
1.1517144636917893141
1.1518620724180481663
1.1520296060000190241
1.1522189159489351074
1.152442568488964536
1.1527020534243539451
1.1529618440437963134
1.1531598430523160026
1.153225782251074083
1.1531198459962457292
1.1528654030802654162
1.152545340919866268
1.1522651776151637826
1.1521142694532953143
1.1521336784090514538
1.1523024401744035305
1.152557559422155542
1.1528276455560491076
1.1530591912441339186
1.1532269354350017654
1.1533255831833619798
1.1533573269738501832
1.1533282558664892381
1.1532452907072394677
1.1531212027956514454
1.1529766511368135795
1.1521322381829048886
1.1521232096192477456
1.1521055092820142729
1.1520683921763517077
1.1520049275176331705
1.151914144418693331
1.1518033762889121618
1.1516855549527600378
1.1515780530860413311
1.1514998368472981749
1.1514662777076225542
1.1514911220181485163
1.1515747317646356507