/*--------------------------------*- C++ -*----------------------------------*\
  =========                 |
  \\      /  F ield         | OpenFOAM: The Open Source CFD Toolbox
   \\    /   O peration     | Website:  https://openfoam.org
    \\  /    A nd           | Version:  12
     \\/     M anipulation  |
\*---------------------------------------------------------------------------*/
FoamFile
{
    format      ascii;
    class       volScalarField;
    location    "0.009";
    object      alphat;
}
// * * * * * * * * * * * * * * * * * * * * * * * * * * * * * * * * * * * * * //

dimensions      [1 -1 -1 0 0 0 0];

internalField   nonuniform List<scalar> 
106891
(
1.0159060490872719537e-05
1.0146662403528825403e-05
1.0131530319858299204e-05
1.0119508524138252141e-05
1.0104921974763150322e-05
1.0093652188980944848e-05
1.0079749032113976981e-05
1.0069158429298469802e-05
1.0055749475731253845e-05
1.004563339777968867e-05
1.0030962944670728562e-05
1.1671740891891488399e-05
1.1719442484651088318e-05
1.1917023136300188967e-05
1.2157168240612321208e-05
1.2320609088477768269e-05
1.2414482349577876926e-05
1.2455614072913112557e-05
1.2465377305924623977e-05
1.2462950261341947022e-05
1.2461324223473684445e-05
1.2469130223047542074e-05
1.248762208523296376e-05
1.2501851293957152235e-05
1.2508200911091589216e-05
1.2505895577473568001e-05
1.2497564144593640447e-05
1.2484417119976187906e-05
1.2447525147375366564e-05
1.2332754346513230908e-05
1.2186961041033893155e-05
1.2086289973071042938e-05
1.2032353444396315156e-05
1.2012467928153191301e-05
1.2010424615863071789e-05
1.2056311516966217192e-05
1.2246860576209668328e-05
1.2509631681272956037e-05
1.2719214656841934584e-05
1.289086758048926172e-05
1.3045554587486961562e-05
1.3198742157504727321e-05
1.3352425843740189153e-05
1.349364193128093587e-05
1.3601688016100101805e-05
1.3660771732140776966e-05
1.3671923498857750271e-05
1.365682329350657478e-05
1.3604695699194979485e-05
1.0811294054818506539e-05
1.0796324099131226305e-05
1.078407857451562644e-05
1.0769004799798440235e-05
1.0756671936316644333e-05
1.0741344942963609825e-05
1.0728786655798242225e-05
1.0713094898079355015e-05
1.0700196488553428907e-05
1.0684335943745999675e-05
1.0671474123105132527e-05
1.065573161716025368e-05
1.0643339417692900442e-05
1.0628200900642003997e-05
1.0616520121205507508e-05
1.0602007518999728261e-05
1.0590905893029717083e-05
1.0576766560338249831e-05
1.056602458310004651e-05
1.0550326616887579153e-05
1.2353706652991850991e-05
1.2488766782642537768e-05
1.2672368533780591779e-05
1.2794558285216384361e-05
1.2867713975940802074e-05
1.2910228025727389531e-05
1.2939386327011597787e-05
1.2968634566404869935e-05
1.3002496222056478969e-05
1.3040598186053451284e-05
1.3078250976815167399e-05
1.3110287097751428936e-05
1.313018534817825542e-05
1.3137756004422290699e-05
1.313421681983807101e-05
1.3124918095544450334e-05
1.3104449740250143086e-05
1.3036635564737185147e-05
1.2885452481480062293e-05
1.2765166626039721654e-05
1.2695521659468790113e-05
1.2668342462237946363e-05
1.2661535538393893806e-05
1.2687210317797654628e-05
1.2824568254719602171e-05
1.3098407556987086154e-05
1.3323393398536898793e-05
1.3502648503497930417e-05
1.3661817763409800852e-05
1.3825626408290622407e-05
1.4003222928928468581e-05
1.418036425654256668e-05
1.4329409638860939529e-05
1.4423512307040659187e-05
1.4455310004546973837e-05
1.4445420624101431418e-05
1.1369864733617686124e-05
1.1354158814628167635e-05
1.1341372578878294186e-05
1.1325555472148970943e-05
1.1312661938402133037e-05
1.1296562317307561868e-05
1.128346422984304532e-05
1.1267050209445373518e-05
1.1253701301891800215e-05
1.1237226074515610229e-05
1.1224052641293621722e-05
1.1207837286511932758e-05
1.1195170991407799241e-05
1.1179514056629997297e-05
1.1167430173322278337e-05
1.1152261019608495854e-05
1.114056547371611735e-05
1.1125537674347430584e-05
1.1113995822297969361e-05
1.109702924910760063e-05
1.2919651165785777996e-05
1.2964793320465051857e-05
1.3106829956494094069e-05
1.3238369929477473145e-05
1.3339432783438542567e-05
1.3420835658834650035e-05
1.3491251135304695741e-05
1.3556268505529473216e-05
1.3617474897645581784e-05
1.3673185508625265494e-05
1.3720195299833716257e-05
1.3753957833794620009e-05
1.3772255828175648066e-05
1.3776659880706482126e-05
1.3770823588119180026e-05
1.3759276656165543001e-05
1.3727985849737777893e-05
1.3626983882993052018e-05
1.3493020829253299579e-05
1.3406029352057497248e-05
1.3366315665092086675e-05
1.3354432973088542535e-05
1.3367872302838933676e-05
1.3475599127161650415e-05
1.3790151820999137032e-05
1.408193370064131032e-05
1.4275819305208615545e-05
1.4396056022111749942e-05
1.4483668626887240155e-05
1.4581842358153310852e-05
1.4713341842432305467e-05
1.486919897305912148e-05
1.5017117898539545685e-05
1.5120535778411390654e-05
1.516191470715707012e-05
1.5155850554895606915e-05
1.1940566549060455459e-05
1.192734849836504461e-05
1.1910901254884679603e-05
1.1897556079353748746e-05
1.188079542286207577e-05
1.1867278292799686662e-05
1.1850240813730130739e-05
1.1836559985306882047e-05
1.1819545237990863128e-05
1.1806158439841084494e-05
1.1789509509164876688e-05
1.1776592950959120903e-05
1.1760396165547777527e-05
1.1747871160175912852e-05
1.1731943005836805344e-05
1.1719539958557980924e-05
1.1703458502506279505e-05
1.1690962326716650317e-05
1.167250605266409753e-05
1.370020483973421579e-05
1.3795943020015209439e-05
1.3962826011414203323e-05
1.4088145017502524302e-05
1.4175973317688194759e-05
1.4238524724589460849e-05
1.4289849432976783702e-05
1.43373317079400294e-05
1.4383958799632012778e-05
1.4428180914815583668e-05
1.4465259463742932e-05
1.4489325066593906891e-05
1.4499262909760515577e-05
1.4496672002495789055e-05
1.448698026580161784e-05
1.4462154404608825665e-05
1.4378025237536844598e-05
1.4253373832271628779e-05
1.417626169310822452e-05
1.4144771136906649653e-05
1.4137600763860069927e-05
1.4170504030020967143e-05
1.4353525810608039332e-05
1.4746746397008889023e-05
1.5037306901159894779e-05
1.5202803950572480433e-05
1.5271346533239762771e-05
1.528960879660933882e-05
1.5304172732287824889e-05
1.5350504597534180777e-05
1.549845848031460591e-05
1.5694865746963206386e-05
1.5838085208630925778e-05
1.5906840679672058569e-05
1.2573932885721516827e-05
1.2556721047842723453e-05
1.2542984733975911987e-05
1.2525974320496132639e-05
1.2512324731330119729e-05
1.249506062816505361e-05
1.2481270534225697314e-05
1.2463733036922485556e-05
1.2449840985492569692e-05
1.2432377651877403419e-05
1.2418760912154572592e-05
1.240162687957191217e-05
1.2388429048094509572e-05
1.2371614504870214065e-05
1.2358569524765158446e-05
1.2341748348968802803e-05
1.2328506847026749041e-05
1.2311211512657299483e-05
1.229764852695475167e-05
1.2277547729643748005e-05
1.4497632792507140074e-05
1.4691347338066617275e-05
1.4915359409237731643e-05
1.506335222298352486e-05
1.51455458864104441e-05
1.5179455944167527401e-05
1.5184419192508727137e-05
1.5176194271653268796e-05
1.5164244203321776755e-05
1.5152239419218801645e-05
1.5146489240486793741e-05
1.5157614250761402324e-05
1.5165772020028520724e-05
1.5163568788765907343e-05
1.5154743669032629243e-05
1.5135316517090787795e-05
1.5072223841854576478e-05
1.4970219515115261707e-05
1.490708101941410153e-05
1.4881616545051886848e-05
1.4876489947578179452e-05
1.4914673361267040625e-05
1.5116076011994303505e-05
1.545537057626488527e-05
1.5670665246282371223e-05
1.5780109178582503665e-05
1.5838553471049390229e-05
1.5901873548223579777e-05
1.6009366520667307038e-05
1.6170389890518151833e-05
1.6365086405744026907e-05
1.6555417424117793083e-05
1.6698446486970478192e-05
1.3204878674781812172e-05
1.3190547177588321656e-05
1.3172844029497926468e-05
1.3158785735603598791e-05
1.3141041279028348895e-05
1.3127078753998915663e-05
1.31091501221579563e-05
1.3095069531422722702e-05
1.307715479943579248e-05
1.3063297692864134149e-05
1.3045580460089239934e-05
1.3031981744385879167e-05
1.3014376927297556868e-05
1.3000716026777680643e-05
1.2982873807304222251e-05
1.2968712025710700371e-05
1.2950058077794192673e-05
1.2935366421912457684e-05
1.2913540204571220224e-05
1.5489119775829161309e-05
1.5652448415227406561e-05
1.5759348294036247182e-05
1.5826409331770939601e-05
1.5873093274473487678e-05
1.5909950371696612387e-05
1.5943757252182596661e-05
1.5974042239226710364e-05
1.599985285983882954e-05
1.6017463711781117404e-05
1.602593315272610389e-05
1.6025272837798740369e-05
1.6017685900554624537e-05
1.6004708387928097689e-05
1.5970154745664701964e-05
1.5865658596982053105e-05
1.573810151431875493e-05
1.565645392168206224e-05
1.5618942138940056479e-05
1.5608335355471758971e-05
1.5619368523437823884e-05
1.5713228501988896262e-05
1.5977041843819451798e-05
1.6216140592788376256e-05
1.6391576205818155773e-05
1.6527012063661575655e-05
1.6654231046042419306e-05
1.6804435447039751191e-05
1.6991392586924158328e-05
1.7203498095517249231e-05
1.7409025527251623474e-05
1.7566864455842572281e-05
1.388802370774946955e-05
1.3872791373813284104e-05
1.3854130381837902818e-05
1.3839548786467133543e-05
1.3821195405986530879e-05
1.3806946802651785973e-05
1.3788579389824768778e-05
1.3774308576394593865e-05
1.3755899008592057059e-05
1.3741672949801117933e-05
1.372326141833571302e-05
1.3709123856784927531e-05
1.3690614809327962352e-05
1.3676236635965086089e-05
1.3657276039955611234e-05
1.3642203507459327045e-05
1.3622212314304066387e-05
1.3606485955647470355e-05
1.3583514400089137706e-05
1.6289200164729889984e-05
1.640996094672223112e-05
1.6498908029981348576e-05
1.6575057164001928656e-05
1.665228859476993741e-05
1.6735186457321592771e-05
1.6820032695481838521e-05
1.6898261134971807147e-05
1.6956657031178482003e-05
1.6990708593324619399e-05
1.7002502114957520024e-05
1.6998615977815292942e-05
1.6986290612128291332e-05
1.6954452901907899232e-05
1.6846924939331656124e-05
1.6668507291502852153e-05
1.6542793687728182264e-05
1.6477594280558521676e-05
1.6456268282868444485e-05
1.6454623413096473758e-05
1.6497926175270399835e-05
1.6684242779305907356e-05
1.6930206526100029804e-05
1.7108560687594307316e-05
1.724447368205095989e-05
1.7376099820478757574e-05
1.7540530283063114836e-05
1.7754403957082814052e-05
1.800033443976150924e-05
1.8233094022391797302e-05
1.4594904643067729412e-05
1.4575010640091818218e-05
1.455963992022013484e-05
1.454038393601828057e-05
1.4525630602911040836e-05
1.4506639429973101874e-05
1.4492015580111132936e-05
1.4472998469506193262e-05
1.4458319537192120791e-05
1.4439170103845050294e-05
1.4424416350023614995e-05
1.4404989043231274193e-05
1.4389903409906193167e-05
1.4369914987664198869e-05
1.4354090960123449711e-05
1.4332978579017172048e-05
1.4316480805288144299e-05
1.4292596942982247661e-05
1.7173038611861513963e-05
1.7246640571460333682e-05
1.7295741540537517552e-05
1.7339514826656028668e-05
1.7394453293599914414e-05
1.7471073354745874354e-05
1.7568878797320678731e-05
1.7677482860801497117e-05
1.7773290463721042271e-05
1.7835911813261455522e-05
1.7859942153777171161e-05
1.7856572618011573692e-05
1.7840249090553740883e-05
1.7788402328630344758e-05
1.763464218076306214e-05
1.7482562720615597705e-05
1.7400515133097693645e-05
1.7371973612848905168e-05
1.736783220477413592e-05
1.7401958967727236565e-05
1.7569757768857066068e-05
1.7807092901316289431e-05
1.7957990498245951153e-05
1.8040122966788275076e-05
1.8098868036643227648e-05
1.8189975348129201592e-05
1.8359700688124907408e-05
1.8610492395329726627e-05
1.5381713674193215724e-05
1.5360632698376548255e-05
1.5344341760720208888e-05
1.532421577526940805e-05
1.5308760843090963097e-05
1.5289185226851897948e-05
1.5273967928521754847e-05
1.5254548781835144887e-05
1.5239215447434030222e-05
1.521965117497243307e-05
1.5204205910511747339e-05
1.5184283280377886758e-05
1.5168559462285583549e-05
1.5147976586957649566e-05
1.5131651870940637295e-05
1.5109950286749600061e-05
1.5093088572289294798e-05
1.5069699391368098409e-05
1.8161648850253478697e-05
1.815539854368494998e-05
1.8137676157786973032e-05
1.8112699007343461405e-05
1.809663160768798946e-05
1.8090056663701723438e-05
1.8124720864601234744e-05
1.8278208016942220005e-05
1.8452525170462194087e-05
1.855920095621689357e-05
1.8602398307883528076e-05
1.8603644186261348675e-05
1.8586712203197538004e-05
1.8528360959121095925e-05
1.841674506394418666e-05
1.8356037591076923912e-05
1.8338615574307405213e-05
1.8341761609248685754e-05
1.8407489283015428418e-05
1.8663413436738099361e-05
1.8941972869266362025e-05
1.9095091852838759998e-05
1.9145050488908566346e-05
1.9138357617868724086e-05
1.9114975694028761929e-05
1.9091982618887086344e-05
1.9086138353231174559e-05
1.6086128652384970746e-05
1.6064090154540073852e-05
1.6044716959178557182e-05
1.6023381334613356913e-05
1.6004592662947375755e-05
1.5983530554457964484e-05
1.5964479152425691623e-05
1.5943619195430317701e-05
1.5924324186453935552e-05
1.590330327050852222e-05
1.5883982316019705055e-05
1.5862661415725149225e-05
1.5843271335926563718e-05
1.5821273510067878975e-05
1.5801348665095283209e-05
1.5778639658308400966e-05
1.5757855922149601607e-05
1.8897127878879379863e-05
1.8868373758266570949e-05
1.8753782275693402443e-05
1.851579527298199794e-05
1.8338998766556665032e-05
1.8239037855156363112e-05
1.8198056037374645179e-05
1.8184739911538272682e-05
1.8210098879299042651e-05
1.8382823895458033446e-05
1.8760292827349858599e-05
1.9036747734729309695e-05
1.9191002209653121281e-05
1.9251966910965064554e-05
1.9262965743509006644e-05
1.9258143753283027698e-05
1.9254949762108046637e-05
1.9266338590445894339e-05
1.9341450186471891958e-05
1.9553253521472794212e-05
1.9720874429224691406e-05
1.9791516640944656417e-05
1.9790482004948268657e-05
1.9751676935557899102e-05
1.9597783626311439094e-05
1.9342397502391332743e-05
1.9203277345342244399e-05
1.6490030747648564156e-05
1.6470475123667097496e-05
1.6443405526142588585e-05
1.6424079617003705002e-05
1.6396822809586415645e-05
1.6377244771550063588e-05
1.6349698298103584399e-05
1.6330151216987866584e-05
1.6302471169560728298e-05
1.6283196684767908688e-05
1.6255685653290491226e-05
1.6236598400698047288e-05
1.6209023727227241508e-05
1.6189825018121779089e-05
1.6157327349940876868e-05
1.6148735360511932751e-05
1.5318117418782648497e-05
1.5076500869383099518e-05
1.4874421306797679982e-05
1.4718895892003502204e-05
1.460912507438213439e-05
1.4539964206665135677e-05
1.4503346177518469524e-05
1.4486593866525520325e-05
1.4478479197766268549e-05
1.4493892393536098254e-05
1.4588134550647648488e-05
1.4890139691525053749e-05
1.5254028957949644944e-05
1.5552526900278717381e-05
1.5782513280413935664e-05
1.5954052076871213693e-05
1.6081965307865600729e-05
1.6173878869281664458e-05
1.6230212183103751256e-05
1.6250427493563987546e-05
1.6245700119902290262e-05
1.6221155816777506402e-05
1.6125320252081966311e-05
1.5848801761724504254e-05
1.5557133270270711174e-05
1.5351760801065934446e-05
1.5237271672295875748e-05
1.5194149771039986891e-05
1.2901944472671919524e-05
1.2879407602332221708e-05
1.2863296319354582426e-05
1.2840202810919065617e-05
1.2823605842554762686e-05
1.2800204347176486578e-05
1.2783587199787418485e-05
1.2760178550249802446e-05
1.2744088251641617646e-05
1.2721171774974924501e-05
1.2705666026962345857e-05
1.268316165742833789e-05
1.2667933406116526038e-05
1.2641666503106394705e-05
1.2638569592143712925e-05
1.4413577428774765172e-05
1.4306846215791269811e-05
1.4204185349773852261e-05
1.4127780599235021256e-05
1.4077933119516978827e-05
1.4050357389281179881e-05
1.4036666845288133201e-05
1.4030230690816758392e-05
1.4046888161164640196e-05
1.4133544377859302022e-05
1.4305004998818448092e-05
1.4473143251667340681e-05
1.4630122373106731724e-05
1.4770373688201467126e-05
1.4890925252154766189e-05
1.4990203560804492687e-05
1.5065183029906664428e-05
1.511488696012488827e-05
1.5138841527524425396e-05
1.5142486837137077748e-05
1.5135040179560423356e-05
1.5110266324477109317e-05
1.5025638448820593132e-05
1.4860918026289383139e-05
1.4731625858755752553e-05
1.4655737780933259594e-05
1.4623766232638768693e-05
1.2217655764567728893e-05
1.2203073257655878761e-05
1.2182739193246385398e-05
1.2167515241034459512e-05
1.2146784728517975873e-05
1.2131562260263270466e-05
1.2111039502941727949e-05
1.209649559331561182e-05
1.2076611851277599405e-05
1.2062852236405595911e-05
1.2043636460715114231e-05
1.2030341647917161158e-05
1.2008777642092815447e-05
1.2000305064318919613e-05
1.3693817303110989963e-05
1.360182286061261432e-05
1.3542774550136886842e-05
1.3512079447501649615e-05
1.3498967991849919939e-05
1.3499098081181220353e-05
1.3549380958788871418e-05
1.369721602377256447e-05
1.3822318314896660542e-05
1.3906956226925966497e-05
1.3963474928168991451e-05
1.4006686605654943329e-05
1.404846723157455142e-05
1.4095537353810822556e-05
1.414939254624259814e-05
1.4206315424135784341e-05
1.4258620809565677131e-05
1.4298125079730389286e-05
1.4318338292298515775e-05
1.4320685006019745171e-05
1.4311919742403151229e-05
1.4282041850847496055e-05
1.4196843779500769114e-05
1.4111136839989903475e-05
1.4063624980108119412e-05
1.404320699315602339e-05
1.1755749832991825056e-05
1.1736317964312195297e-05
1.1721631582980090108e-05
1.1701756235209145231e-05
1.1687048532618457244e-05
1.1667460918886217111e-05
1.165346779530533554e-05
1.1634534320991840996e-05
1.1621321568449973028e-05
1.1603072523797008331e-05
1.1590306591725939102e-05
1.1570474259351977257e-05
1.1561121559555779934e-05
1.3028338135006669755e-05
1.2995594762066946929e-05
1.2979020452877500536e-05
1.2971053674190217848e-05
1.2986500392738826849e-05
1.3081901060035454351e-05
1.3248920806533050315e-05
1.3380010222667266964e-05
1.3469220825892105461e-05
1.3518748376286454673e-05
1.3537124008436724479e-05
1.3538451729846020505e-05
1.3536689151645667442e-05
1.3543230319019717829e-05
1.3579412816344437335e-05
1.3649785607983595136e-05
1.3707166877620142301e-05
1.3740054883419995237e-05
1.3748015601615254738e-05
1.3741096806260542345e-05
1.3711860690601000666e-05
1.3620859273738253025e-05
1.3526116060170475754e-05
1.3475700122111043284e-05
1.3455229903079217162e-05
1.1292314219680844539e-05
1.1278091508443095396e-05
1.1258828121192245497e-05
1.1244603426636032195e-05
1.1225630092295483246e-05
1.121205489232673114e-05
1.1193605570638869042e-05
1.1180647096749829033e-05
1.1162726643988982175e-05
1.1150077224034567148e-05
1.1130550533409304764e-05
1.1121327827210494436e-05
1.248976354362241912e-05
1.2472162429101497176e-05
1.2464061208371285578e-05
1.2478190567092989395e-05
1.2571256671542474921e-05
1.2750371403793048634e-05
1.2893502836072149423e-05
1.2993030344875393207e-05
1.3051043175631765118e-05
1.3075319390659411993e-05
1.3078299533038472766e-05
1.3072022074597008918e-05
1.3065601759753110573e-05
1.3064299094094396637e-05
1.3078283449929020861e-05
1.3093303991296312706e-05
1.3097924258828990405e-05
1.3094713363891057111e-05
1.3078579086256307266e-05
1.3015969356363202424e-05
1.2908284093567253242e-05
1.2832027081921817068e-05
1.2791274062794487227e-05
1.2773000575724155156e-05
1.1846089800386917261e-05
1.1846779588986481552e-05
1.1893399323670654963e-05
1.20616293408108985e-05
1.2253606974116668598e-05
1.2401413367576229172e-05
1.2504851370044327673e-05
1.2566219228092259612e-05
1.259210300174528172e-05
1.2595728134076599885e-05
1.2588807114099377971e-05
1.2577484089866794705e-05
1.2561454358386510194e-05
1.2551439338785106356e-05
1.2543894076325251742e-05
1.2533328692905633471e-05
1.2508567217925465614e-05
1.2457082613868099559e-05
1.2399505095181137139e-05
1.234376733989049472e-05
1.2299415112591331601e-05
1.2271333012886626273e-05
1.2254900209518293944e-05
1.1428406668348951923e-05
1.1547052023296064356e-05
1.1720359720619149792e-05
1.1864233910632271374e-05
1.1974422723096181037e-05
1.2047386834117125538e-05
1.2085876181972819539e-05
1.2097997025142856922e-05
1.209513463688989398e-05
1.2087303927569626095e-05
1.2075241918981802493e-05
1.2067728087919536023e-05
1.2064434579903069499e-05
1.206521813132943984e-05
1.2064954335393637119e-05
1.2059888302354404154e-05
1.2045843965307930426e-05
1.2004472094477890693e-05
1.1943954054071763066e-05
1.1903216069603184414e-05
1.1880717900011813302e-05
1.140599805761528789e-05
1.1478449883045294111e-05
1.1527905658806407736e-05
1.1561119417510920711e-05
1.1585764095811743843e-05
1.1607176407802232616e-05
1.162775777467942144e-05
1.164558317868164183e-05
1.1657907053578945195e-05
1.1661644215641788668e-05
1.165890062603981799e-05
1.1648821679220914388e-05
1.1612646111636469533e-05
1.1520860258742160668e-05
1.1439261135080912025e-05
1.1389907925934318684e-05
1.1365827234781730086e-05
1.1140560858256833734e-05
1.1151414555362684303e-05
1.1155898338215826428e-05
1.115588469325449576e-05
1.115307883882487932e-05
1.1148799526692599427e-05
1.1140244245408730629e-05
1.1115329262128583588e-05
1.1055931806644563132e-05
1.0995596455056376578e-05
1.0946333076460753567e-05
1.0911449188397492619e-05
1.0890319887531195092e-05
1.0751652370619426435e-05
1.0747429189231411635e-05
1.074117412202004303e-05
1.0732851217385350591e-05
1.0726946325859061624e-05
1.072187706372838408e-05
1.0715024541970389623e-05
1.0703566389190338726e-05
1.0679816079581948266e-05
1.0633151173627680973e-05
1.0589732152226198636e-05
1.0559376889904832343e-05
5.6242066814923517362e-06
5.621421901674531949e-06
5.6211274330567123978e-06
5.6215220531436107743e-06
5.6242615789585709323e-06
5.6352459918029426872e-06
5.6719268824111342941e-06
5.7918565867307465869e-06
6.1053143695932556766e-06
6.4186838833745538775e-06
6.6368083762353612608e-06
6.7584951592467310403e-06
6.80251568752289073e-06
6.8038271745110205665e-06
6.7884993806078454217e-06
6.7291746431050425788e-06
6.5396289095379105775e-06
6.3181551319095099892e-06
6.1593408230944712888e-06
6.061459936322612663e-06
8.4508343002411028037e-06
8.4325544666332377566e-06
8.4243226273178626522e-06
8.4185807757862104702e-06
8.4144420508998108598e-06
8.4156235481913081351e-06
8.4362517664902226091e-06
8.5155561009543925089e-06
8.7676193376021073088e-06
9.1222885006373847686e-06
9.39919725325122471e-06
9.5768263272341019513e-06
9.6604664268279425777e-06
9.6781196599439775458e-06
9.6673587267104179303e-06
9.6328825297568054808e-06
9.5118564913253819611e-06
9.2227182354990692629e-06
8.962456274349891254e-06
8.778529678092715567e-06
8.665093000420026983e-06
8.6061349391938691855e-06
1.5391625362804829994e-05
1.538748590997174762e-05
1.540456371891058812e-05
1.546252543704191757e-05
1.5503788637603078011e-05
1.5527023986676335618e-05
1.5564176956785381488e-05
1.5657741720534901902e-05
1.5881240353601092525e-05
1.6149517616592428055e-05
1.6387799674635419888e-05
1.655329828733074414e-05
1.6634474917559631389e-05
1.6653093970734227428e-05
1.6640484493401947347e-05
1.6609209405462509916e-05
1.6520416400667098193e-05
1.6287444251385781808e-05
1.6035600418862813038e-05
1.5855262367284961381e-05
1.5754473599231892363e-05
1.5712409796243716865e-05
1.5696337679100075204e-05
1.5692331373322216276e-05
1.5715746858038539662e-05
1.5748237267712783338e-05
3.4747671797837673526e-05
3.4999694621592221248e-05
3.5302376297279572598e-05
3.5521244492643430494e-05
3.5699412381116882764e-05
3.5886549308150820082e-05
3.6126090170508612083e-05
3.6440238172115598479e-05
3.6811704803521369121e-05
3.71825936543188838e-05
3.7480998972625690561e-05
3.7660806226735276943e-05
3.7719613905251154183e-05
3.7703839749474649991e-05
3.7651723697658863465e-05
3.7513014982565011791e-05
3.7214012388446029175e-05
3.6965136206879023462e-05
3.6819178134640801045e-05
3.6751779913064700281e-05
3.6726107168101209787e-05
3.6736882129882176792e-05
3.6856291243175031227e-05
3.7046318811456513756e-05
3.7188138314456829043e-05
3.7304751737093249427e-05
3.7433912761667564482e-05
3.759787647916889875e-05
7.2792707267245343483e-05
7.2998077168528126865e-05
7.3164881566051663954e-05
7.3300048656899669127e-05
7.3416129539298521207e-05
7.3532947759128881589e-05
7.3658856020543855879e-05
7.3786410969144919673e-05
7.3891394582956506417e-05
7.3950394377575283129e-05
7.3953563789941085139e-05
7.3917114787120757587e-05
7.3855149224328643914e-05
7.3753613949454382612e-05
7.3557435578258019708e-05
7.3320235186939567221e-05
7.3126349281033150521e-05
7.2994209271417129985e-05
7.2915046390162248932e-05
7.2867594733754803278e-05
7.2838727970244438316e-05
7.287264464368579291e-05
7.2949529204551161535e-05
7.3011076157844458263e-05
7.3068173871765576435e-05
7.3122328629088835061e-05
7.3161348777992082828e-05
7.3173445037667226047e-05
7.3150574734674649676e-05
7.3096697781595490885e-05
0.00010633020477631227401
0.00010615453203121730003
0.00010595915587431262292
0.0001057456515813911895
0.00010552649796837594489
0.00010531274220591957814
0.00010510305982161417414
0.00010488311607961841622
0.00010463670917153161742
0.00010435788954326328561
0.00010405550584665435108
0.00010374506914909247511
0.00010343894403460928203
0.00010314367294816156255
0.00010286290510448875893
0.0001026041152701850619
0.00010237580072591131162
0.00010217937722107190953
0.00010200544180951349039
0.00010183573979959214108
0.00010165460768764841089
0.00010145734978439810241
0.0001012494092321085062
0.00010104060288132225213
0.00010083679923818065084
0.00010063687867199406828
0.00010043091251415946197
0.0001002055672430302236
9.9948578136465431022e-05
9.9658988589467747618e-05
9.9348105855695802656e-05
9.9035188436236493343e-05
0.00012227089465698928652
0.00012190999200638315367
0.00012154650071583934714
0.00012117783262227705559
0.00012081322285924033606
0.00012046154334517252221
0.00012012250468742158727
0.00011978805525846628586
0.00011945084392414695809
0.00011911402072062227846
0.00011878907011792358341
0.00011848265653686008286
0.0001181889244401481163
0.00011789252464560942947
0.00011758098449169276727
0.00011725666618259947185
0.00011693365657136383284
0.00011662511587986345999
0.00011633282856239159976
0.00011604642255587141702
0.00011575399632345203214
0.0001154524045363082926
0.000115148545704327093
0.00011485317179624422907
0.00011457271014348653659
0.00011430635721824929714
0.00011404531751298576227
0.00011377914782394173631
0.00011349930080290544386
0.00011320688742107173973
0.00011291423548407224773
0.00011263679782728525894
0.00011238278467433591979
0.00016334825421955931216
0.00016234843203832035989
0.00016136490541562913082
0.00016042113453213906497
0.00015952964820661267708
0.00015866434073392125933
0.00012837935970577997176
0.0001280162529084703999
0.00012765180259753701616
0.00012728502501655337541
0.00012692703673522395249
0.00012658749957728088306
0.00012626565430192847241
0.00012595163015944292476
0.00012563715982584220733
0.00012532569118277393544
0.00012502843486011247444
0.00012475017194506603777
0.0001244806975867552071
0.00012420104417666045691
0.00012389970400611958253
0.00012358187359712112388
0.00012326562593148633618
0.00012296643048228123865
0.00012268639840067762552
0.0001224142038460190277
0.00012213714177489070939
0.00012185258115865526889
0.00012157029015853548044
0.0001213024466105499323
0.0001210561295903442346
0.00012082867277431729727
0.00012060781586756117887
0.00012037807610297025784
0.00012012835319526411813
0.00011986053618695416498
0.00011958874945539435845
0.00011933067126738890759
0.00011909567451503724625
0.00011887794234332633026
0.00015777392026782694444
0.00015675746906475710525
0.0001557439951535592379
0.00015475543262495988187
0.00015381512097163260364
0.00015292833385975503763
0.00015206304007925669692
0.00012334324702940074772
0.00012311840512321502714
0.00012288345129318531249
0.00012264271288326718387
0.00012240963047755902202
0.00012218987372680838394
0.00012197662226409966254
0.00012175754151364220207
0.00012152703713687283151
0.00012129218669416367215
0.00012106353365556219391
0.00012084065040192636933
0.00012060815176864605276
0.00012034873339031628423
0.00012006069280153597388
0.00011975919499479689668
0.00011946609599243387511
0.00011919248644830228673
0.00011893245363772679448
0.00011866950800761832409
0.00011839185662722116884
0.00011810333049639205785
0.00011781769668831433909
0.0001175470177332311615
0.00011729365000555765563
0.00011704850898053829368
0.00011679711666402784419
0.00011652639179155848098
0.00011623418758498226845
0.00011593187373723701965
0.000115640414777824687
0.00011537588494199565808
0.00011513964362141806681
0.00011491730277738246865
0.00011468866351639383009
1.2047457265686347033e-07
1.2022738100703671383e-07
1.1998500372714071068e-07
1.198072027261301116e-07
1.1964064627955540779e-07
1.1952515249288145956e-07
1.1942137230099712222e-07
1.1931032952383847683e-07
1.1922135172333234367e-07
1.1912882978414654379e-07
1.1895588163234475898e-07
1.4634248120469841198e-06
1.5700553143818421483e-06
1.6647671461298901408e-06
1.7123786737305343009e-06
1.7258913880992741247e-06
1.7237436126836808718e-06
1.7066753604486332074e-06
1.6411827379622855554e-06
1.5653959603779726081e-06
1.5227053756316680037e-06
1.5073577950218278947e-06
1.5059769598686907555e-06
1.5133993160083399322e-06
1.5526860012328479954e-06
1.612741930190409288e-06
1.6452410964304353952e-06
1.6538142727631466645e-06
1.6511792231798815083e-06
1.6336277348541045442e-06
1.5990703917188060559e-06
1.5851314468452410603e-06
1.5855489836672457805e-06
1.6105700375644622567e-06
1.7274139581813217942e-06
1.9470105265401021061e-06
2.087723026704523705e-06
2.1549897807276833564e-06
2.1733845889035794013e-06
2.1719901261293593907e-06
2.1624347810241354628e-06
2.1586998163710639002e-06
2.168525797314112378e-06
2.2350292195263915853e-06
2.4207876191822843015e-06
2.5573625624452159763e-06
2.6116425836295836066e-06
1.2971490834168809239e-07
1.2954411236708088632e-07
1.2934351071987526867e-07
1.2911536266160924735e-07
1.2887353904827067562e-07
1.2861920765077814468e-07
1.2835193366124887514e-07
1.2807554913788332527e-07
1.2778247135246791937e-07
1.2750405015308765019e-07
1.2721298372922226488e-07
1.2696987306134331118e-07
1.2673959898738342759e-07
1.2657132574225152066e-07
1.2640965507524066373e-07
1.2629399887192745588e-07
1.2619146720732390831e-07
1.2608223357747342216e-07
1.2600073885687694611e-07
1.2591101743183082044e-07
1.257375389276743772e-07
1.5121184951358464661e-06
1.624438319569291952e-06
1.7169791040330756227e-06