/*--------------------------------*- C++ -*----------------------------------*\
  =========                 |
  \\      /  F ield         | OpenFOAM: The Open Source CFD Toolbox
   \\    /   O peration     | Website:  https://openfoam.org
    \\  /    A nd           | Version:  12
     \\/     M anipulation  |
\*---------------------------------------------------------------------------*/
FoamFile
{
    format      ascii;
    class       volScalarField;
    location    "0.009";
    object      k;
}
// * * * * * * * * * * * * * * * * * * * * * * * * * * * * * * * * * * * * * //

dimensions      [0 2 -2 0 0 0 0];

internalField   nonuniform List<scalar> 
106891
(
0.023056797594124017747
0.023039152153143345469
0.023008673334398193483
0.022991564373949304606
0.022961646334980219397
0.022945732190476825219
0.022916493724605493248
0.022901480579132892784
0.022872688673973455564
0.022858192981692566914
0.022822837084901594767
0.019237621449362581755
0.019430185716422791742
0.020121787012944741119
0.020971775352871761117
0.021567826505542845444
0.02192489041052841578
0.022097710197148037053
0.022160286741805975547
0.022179880538507362742
0.022202038428920520957
0.022257099559835732266
0.022350586610349162248
0.02243025132081449477
0.022483574780523415959
0.022507041485746816234
0.0225082079877891722
0.022490143909789123144
0.022385348381745665686
0.022003205555705753621
0.021515449989702697259
0.021194570340572770756
0.021042110948835089645
0.021009611610347166122
0.02103677567687993813
0.021226728459370756974
0.021926370534791898848
0.022901159154942375695
0.023697578710214491776
0.024364348047773525668
0.02497674405627569108
0.025592606141738742653
0.026219655298865510162
0.026806777354752651249
0.027270173078657505839
0.02754410902229894112
0.027630956188995782485
0.027617856139541346883
0.027461808962312643512
0.024471691553389650353
0.024440130140275850845
0.024421194987207614502
0.024389742111178957379
0.024371082783027093327
0.024339365389477257695
0.024320817334400977178
0.024288682183254216296
0.024269723004619537382
0.024237561531796972258
0.024218897714604233073
0.024186631005239787873
0.024168767963642243113
0.024137273491867183156
0.02412049536051242421
0.024089630606318308825
0.024073640648276710408
0.024043209041603032933
0.024027816787873117893
0.023990141647664050412
0.020508611961502439675
0.020992595416460934493
0.021646677623045097738
0.022095268448910358045
0.022375482354982146466
0.02254972169417047978
0.022678362362729676677
0.022808886735698714193
0.022957182733998496987
0.023121858567783936528
0.02328640166018573418
0.023432689676161157916
0.023537161130713819129
0.023597886483467854501
0.023617592599453101493
0.02361433529382951646
0.023569649539830692109
0.023356629109689702045
0.022849988047645562739
0.022459429014307561584
0.022251476457284435212
0.022192743022615136345
0.022202524856059589059
0.022321247079461609825
0.022830358687913158977
0.023840393857468868133
0.024692185178040792354
0.025388263372714124644
0.026019202173034022829
0.026676897400725044923
0.027397315997248081199
0.028126412513429930456
0.028754337819864739939
0.029170842253934889388
0.029342921737267834564
0.029352404103936777929
0.025727707539102202816
0.025694240469571239666
0.025674272684178683912
0.025640906829242349901
0.025621190105212101468
0.025587458469789794296
0.025567884479746002396
0.025533770222672808048
0.025513870520875538139
0.025479818243026242791
0.025460439421614858985
0.025426612037467016814
0.025408072500579186037
0.025374895128172557379
0.025357189495118514361
0.025324587814126931634
0.025307532515570146242
0.025275209434164957328
0.025258712960968272843
0.025218258968719455687
0.021303431988730935076
0.021487917840862284791
0.021994222077883485156
0.022468534161257717324
0.022839993127222540936
0.023144736944906520171
0.023413580415836347803
0.023667162023710709012
0.023911641957591420193
0.024140951249658322564
0.024342672989370716524
0.024499115580109514373
0.024600729250970485712
0.024651489413624372987
0.024663371408191078066
0.024652568995754322451
0.02457061763958464165
0.024241862677392041203
0.023799514622202699865
0.023528021027760248618
0.023424915824040427187
0.023419042316187403674
0.023498819188647584316
0.023906758665083356619
0.025062070838553177077
0.026164059792380310598
0.026920586352430459637
0.027408719403135405057
0.02777733082222157493
0.028189680546980098313
0.028734863416226455457
0.029381216242668470318
0.030003978152878224561
0.030456721107487975952
0.030666185327143047346
0.030689569259767887632
0.027013631400412577849
0.026992815111407726658
0.026957619692431843139
0.026936855099175562728
0.026901124064004609121
0.026880610356386610421
0.026844550998891068827
0.026823877172291551996
0.026787944644824673857
0.026768011104610866385
0.026732572668624183382
0.026713314896605933751
0.026678315866898155012
0.026659592786159216904
0.026625018870680940836
0.026606726885601880706
0.026572209740329741368
0.026554404473081657384
0.026510651380863513998
0.022786940296447680959
0.023141020892992397034
0.023737443518440617257
0.024195116683248085732
0.024524392567152296374
0.024767534755330312957
0.02497492158162420775
0.025173679746554360886
0.025374506179905352565
0.02557045398034754613
0.025742272964516137168
0.02586659993362507709
0.025937760553601474367
0.025961121710525874445
0.025957184957307959799
0.025899248502666977201
0.025631737703271283146
0.025222255996059168154
0.024984494084483655635
0.024908844453118594159
0.024918282667763583943
0.025066542799523385682
0.025746241557037335967
0.027208186395899409266
0.028326434733271534799
0.028990614754732236397
0.029291514119199696387
0.02940132932175341593
0.029496956215868824075
0.029714281774945623671
0.030326281473206258971
0.03113820894846992815
0.031748742753151010243
0.032067279230941200807
0.028436785490740607019
0.028399285795997566278
0.028377160215825741191
0.028340167101955509449
0.028318614175379161479
0.028281122258711807738
0.028259841737617714258
0.028221954191698622738
0.028200702116149028997
0.028163065138068613114
0.028142374788070006336
0.028105065913954091483
0.028085026062344330133
0.028048041463184413685
0.028028216508883496
0.027991408492005591391
0.027971655877382303745
0.027934591997258260282
0.027915304205319752678
0.027867811163091889964
0.024228029346849897646
0.024916374339623046513
0.025719475097673902275
0.026266029251913698001
0.026583599566682023646
0.026731826651642334042
0.026780506950510478414
0.026787205455860611109
0.026785693847510248788
0.026786961656624606876
0.026809929939549500405
0.0268895670876835996
0.026954857844888231028
0.02697970813628184153
0.026979348607415170463
0.026941625084066434664
0.026750744052838011655
0.026422963748604418738
0.026233923620694009349
0.026177913647261744773
0.026193113918409678675
0.026359514050707431865
0.027105933675209969991
0.028372503028691840876
0.0292074750781768748
0.029657836294654620068
0.029920386139457185587
0.030203798178277715958
0.030657784178085106114
0.031321628399386507169
0.032123726855936736435
0.032917759612286039139
0.033531072635747928568
0.02985519616206468857
0.029831885825391684514
0.029792758281015890159
0.029769961139037830894
0.029730637660670640454
0.029708750175319185299
0.029669199013250002056
0.0296471862586245756
0.0296076700705575728
0.029586181859489798368
0.029546729880939343049
0.029525649261929156481
0.029486234501405979291
0.029465199167109389772
0.029425879544119987186
0.029404523567921968252
0.029364401204673103163
0.029343415602485375254
0.029291806160011937821
0.026295548709369120921
0.026892454653483058996
0.027297534942610054282
0.027563686878579577583
0.027758349006056330655
0.027920874702882701734
0.02807751525335091744
0.028227255999627734462
0.028365113601034490365
0.028474411978520630662
0.028548321722122221161
0.028585418303322018135
0.028594185936949238075
0.028581994495833644432
0.028492759960658937263
0.028155437722664659189
0.027736584364999979785
0.027480687094280031868
0.027379744074839357931
0.027373203303461945274
0.027442562221152815016
0.027803993449001661309
0.028779352784851053304
0.02968756835189076751
0.030377476054131737765
0.030929011685882613902
0.031457091555883907874
0.032078585945643577071
0.032847899563113985844
0.033723503377626397326
0.034582601262714708634
0.035259320744996269781
0.031388214747904007174
0.03136310484887154526
0.031321302762752120663
0.031297216965767128694
0.031255760760444381563
0.031232863130138871499
0.031191438109970645587
0.031168642969012151644
0.031127106152697234936
0.031104411138311333085
0.031062608714040755575
0.031040227631059423563
0.030998221880869317874
0.030975758749783949275
0.030933569088030785088
0.030910525533909473384
0.030867131249653387282
0.030844459563831597149
0.030790910249287213596
0.027652041624207503862
0.028102137029962070275
0.028444391946767563079
0.028743406214540325599
0.029048950062066456607
0.029379522999650138637
0.029723255296105591944
0.030048884185066866009
0.030306071184061523366
0.030475008665518020512
0.030560940490766828198
0.030587261218845578081
0.03058063392498729105
0.030502712950909199874
0.030152835541224328603
0.029548850558176898567
0.029133670935362343535
0.028932723922471644679
0.028886989364495112981
0.028911981937729439029
0.029096753330971312362
0.029792455942727461005
0.030719969782730945779
0.031417854555321339527
0.031970168526842937529
0.032514048163318765017
0.033187917252563529924
0.034058354455088132862
0.035064211775189299547
0.036031517951388349064
0.032988813194424662645
0.032944082106531755172
0.032918425940113800465
0.03287425652784645852
0.032849926165489137797
0.03280622281080177588
0.032782281768941476385
0.032738572893809742004
0.032714667860326139548
0.032670697768242065728
0.032647005170657571183
0.032602566417178964475
0.032578731833550284014
0.032533834053811258591
0.03250929938722794954
0.032462846359517745498
0.032438799631064434148
0.032383409921153120947
0.029219129024521669352
0.029508754849004090876
0.029716034448660711559
0.029907286182322266599
0.030140799489412048451
0.030454010245670549983
0.030845758749431233248
0.03127942994037434532
0.031670032130517639102
0.031942193525668495513
0.032073941194643705577
0.032104042642413788133
0.032084064056071566473
0.031933688105589698447
0.031416172302922880377
0.030903265188979768541
0.030639590464521682805
0.030566282664607525438
0.030581460658027612848
0.030734102431071993328
0.03136510770045611296
0.032262753439987856829
0.032861768477430879087
0.033217075477084564983
0.033490528796834256875
0.033886827671297921338
0.034580765310765232412
0.035590744359947447395
0.034816296465703798491
0.034769701166663474767
0.034742873487183884018
0.034697161671161894092
0.034671585146528405286
0.034626803355191984601
0.034601610560000911621
0.034557496036071715106
0.034532201560454778289
0.034488069859166282927
0.034463126273101649111
0.034418331857186700018
0.034393383100912923445
0.034347373236856319767
0.034321878085486118293
0.034273856511480363385
0.034249238957563245267
0.034197167881465893868
0.031067155524551366697
0.031086520546912209395
0.031069578664076245855
0.03103048760663159461
0.031024514324255066805
0.031052797524679699032
0.031222962187958905322
0.031805116284304220386
0.032468226289233778625
0.032896558777652080974
0.033097861087739890995
0.033145122817316526043
0.033121719358166143432
0.032946314373830380695
0.032576714509498914951
0.032385807337291586117
0.032349306983066754284
0.032388664732826137616
0.032652750621265630437
0.033603334650739946632
0.034661842002974466159
0.035278492306766773279
0.035521601503804491051
0.035557731454165089624
0.03553364795278605992
0.035511059894262050896
0.03555126530570644483
0.036228378065800780072
0.036178890988650513894
0.036139702089673431118
0.036090496972849217538
0.036052144450873790937
0.036003388683864101516
0.035963804560990603187
0.035916361673638590168
0.035876184135338932968
0.035828519048004568714
0.035788636657337322133
0.035740043606952327793
0.035700663029136631144
0.035650166164048570361
0.035610469892060632457
0.035559435341261949604
0.035519036685577445867
0.03189082929736656441
0.031830121623263034347
0.031488371869080628018
0.030740330286326021658
0.030203518715068367745
0.029924447918516498823
0.029841308143029026539
0.029850265108804823616
0.029985445264346932692
0.030605903625932389528
0.031927127150333363403
0.032925885348360162119
0.033507364622542216981
0.033759925910875107635
0.033830906029649436551
0.033840900876167097355
0.033853488984623467117
0.033916803361191426303
0.034206359063195648784
0.034989505567429787791
0.035630650102593523776
0.035931278612254619054
0.035978753908709415477
0.035895584452999840241
0.035403293670921077985
0.034550159305210749461
0.034118573621629573467
0.036214996592624969229
0.036177811944268202515
0.036106938609358658898
0.03606991777492946083
0.035998283960579052776
0.035960716268376380356
0.035888446659339885703
0.035851257530704311316
0.035778104794855034032
0.035741246893310624211
0.035667623739255860382
0.035630631341859023142
0.035556188649317664596
0.035519249546817392715
0.035424814255031251975
0.035436788097504445805
0.027637700095370695136
0.026803674027768464166
0.026126279190801449809
0.025623143491849662695
0.02528456782347513962
0.025088521368938038886
0.025005345793153388456
0.024990978846671819957
0.025006304333267302675
0.025101673445390972061
0.025468797301538448341
0.026571608499083191474
0.027926150662278815401
0.029066956588080318513
0.029966422199621787353
0.03065095227066687994
0.031170655920857191085
0.03155174117182679705
0.031794867233288282016
0.031897979120503357209
0.031905755358919464515
0.031841598709803783929
0.031507450525631690297
0.030485166265788395806
0.029424447762023520081
0.028707930372321454476
0.028339441509930108493
0.028238084395373029556
0.029288745551375380827
0.029225777766716393158
0.029192602498420396756
0.02912850183098837642
0.029094515813449243341
0.029029993926873803867
0.028996059765892374938
0.028930716464869544319
0.028897536568775760574
0.028832219825369650307
0.028799559186904549746
0.028734351301467286888
0.02870214948973374286
0.028620259925619982028
0.028644196366390324571
0.025448898352218002339
0.025111124628430063488
0.024793390994447387504
0.024570631814825771855
0.024440867941616026271
0.024387734507177894622
0.024382262783921755667
0.02440147442434642544
0.024499915640953218166
0.024841551863406564904
0.025486214323260258929
0.026125440579481521569
0.026729379974216146282
0.027276159047540795427
0.027752670528902009112
0.028150648425650997425
0.028456410835812163962
0.028664830180786200764
0.028774173211345177581
0.028807355957099340521
0.028803429409064433553
0.028742385107333241756
0.02846538957486554472
0.027895802336479934985
0.02746946221200717575
0.027248168774478769005
0.027192041642745103797
0.027327539270011177996
0.027300421402637397444
0.027248759745292831791
0.027220824097637041916
0.027168638021946602684
0.027140825554182845814
0.027088506293132301461
0.027061694721697976407
0.027009538397424898148
0.026983572786403575011
0.026932095548011177749
0.026906775584623471992
0.026844499994995277975
0.026841257964498627109
0.023900726870103385785
0.023621030593205000203
0.023458454474967482123
0.023393837921252727541
0.023388994633005501939
0.02342912761559285198
0.023642934219390863981
0.024202075370669755283
0.024688063937061830583
0.025031458987142245903
0.025272623666514788809
0.025463673603228941661
0.025648009791798567075
0.025850385245361196668
0.026075969653325051234
0.026309759665658724592
0.026522239564806513595
0.026683537269550111626
0.026772575680357665884
0.026799201926625923487
0.026793127146323796745
0.026719891842219196249
0.026451809990367038117
0.026190179274762366568
0.026076275378314771325
0.026065376746708883438
0.02632609167202011255
0.02627770940050632234
0.026251559711962867832
0.026202565086633326091
0.026176406097751313273
0.026127541854418113304
0.026102496027671701073
0.026053874995241452922
0.026029701026643804057
0.02598187137607396377
0.025958157122771885472
0.025902667991964941491
0.025894283519594687298
0.022514948694291440218
0.022442380838277976168
0.022425165735707342646
0.022436422859095875304
0.022527527265514338262
0.022897106434362442251
0.023526529964641603593
0.024036516659723738271
0.024398966694196132232
0.024616836713427108635
0.024718956048103164075
0.024756739256865223364
0.024781472972336737737
0.024833792292195861623
0.024989790399595434439
0.025266882907688324733
0.025491838076478021136
0.025624640005697571499
0.0256684758983367102
0.025665714384519301011
0.025592548817041663178
0.025302246144536761491
0.025007472385212843602
0.024883744190262301749
0.024873968600571887133
0.025278909829231560602
0.025253493201129170731
0.025205837814002578917
0.025180451276850947945
0.025133057930460379198
0.025108830552774748235
0.02506161608304924987
0.025038110092892973402
0.024991540900701075811
0.024968221742670444752
0.024913955906761122566
0.024905761875911074793
0.021533875713793129703
0.021511010125274572513
0.021520818940716977125
0.021607345214158298757
0.021969049664294852675
0.022641887471367118378
0.023196343697832379899
0.023597040706534844201
0.023845587156698887926
0.023967957614256147486
0.024010013112851561617
0.024016638727767932598
0.024020765854531125894
0.024039707991118076935
0.024109051440863858706
0.024177194332888764239
0.024204584240787693078
0.024205852441358682164
0.024167647846571549408
0.023970123306267309554
0.023618121382375460021
0.023391768252358214469
0.023302223594963804298
0.023298773342010695858
0.020153590564108331967
0.020192266192873679215
0.02038979541453405861
0.021011896488039989023
0.021731974591889038906
0.022304560446355536918
0.022719309564672187512
0.022978211692884595307
0.023103384768569677765
0.023144242569674709081
0.023145299523582314044
0.023129321110858018506
0.02309337324239849748
0.023074901655427831892
0.023060427545163124374
0.023032144654687905505
0.022953998045940466471
0.022785193529821445857
0.022604989934911140503
0.022443132626674276026
0.022332639348684141939
0.022288343064991476133
0.022290411583902904752
0.019555932215193791435
0.02000727759447895604
0.020660086355821432463
0.021217256951790434971
0.021655351929728301058
0.021955659861498572766
0.022125776572201417969
0.022195992777784379762
0.022209766439242197011
0.022204460938830522521
0.02218164660384893544
0.022171764674958654995
0.022173046772070686972
0.022186714190133165897
0.022198109268539486377
0.022198444541889118115
0.022175882496036813246
0.02206442088032945989
0.021892339775819998765
0.021800249171165617113
0.021778839842140452349
0.020429740054482406486
0.020722681235126560323
0.020927711411795450053
0.021070422060334333125
0.021180864062076993487
0.021279351529268564908
0.021374156727593109084
0.021456965674385760495
0.021516889441014805384
0.021543511065048082803
0.021547523890588293066
0.021529959722419528267
0.021425085869978592601
0.021125984099966656909
0.020874115095307038681
0.020748070825234804504
0.020718782875768584212
0.020348946183585518016
0.020405654062032731882
0.020439629652181864894
0.020456516898195598736
0.020461676141286605501
0.020460360622413003434
0.020444554977745683227
0.020373228531838476207
0.020183102197231132108
0.019998457620004801705
0.019863024139848237115
0.019786849911620826153
0.019765032631902199056
0.019715826363423432505
0.019716527224406286273
0.019709531963076180189
0.019693824556750158528
0.019686267717938875366
0.019683187958751204721
0.019677923362404516061
0.019663116557675816565
0.019612165302305400311
0.019485505528289138316
0.019376898965188099622
0.019319524053465729485
0.0099687591047680143563
0.0099701543872032227789
0.0099803207658397258273
0.0099926872409756648669
0.01001194888168475787
0.010057967950090281745
0.010193839657300670168
0.010632855589865155069
0.011822245932212463795
0.013085668635894042236
0.01401649323179607852
0.014566559905842099004
0.014789859088451030172
0.014827436863246208285
0.014790526372614888617
0.014560781025054377047
0.013776459715937328099
0.012876898904491004133
0.012253339866849264489
0.01188225491238819459
0.023363560525418599484
0.023287497603792173262
0.023267976230234462681
0.023264097968252885063
0.023269569019750080408
0.023300934056689773244
0.023432566376794285168
0.023884594720686387614
0.025325156481561431066
0.027434480441470881357
0.029159397997071501846
0.030321041183689566995
0.030912918891576924435
0.031091738478824359343
0.031090492286843213199
0.030937289118308054087
0.030230469055269260786
0.028475140258677370669
0.026931460335755580404
0.025870995513108764607
0.025236584817520311269
0.02492442233120052697
0.080375283596012619958
0.080420955807084443245
0.080682281681622031178
0.081372351041634066737
0.081896604064017775038
0.082242046128863904864
0.082740482655280653268
0.083830657494797261586
0.086309085554309564192
0.089297963694029716675
0.091995102991627247802
0.093924216197486226632
0.094945455498073663692
0.095293152889660101557
0.095313131519798116598
0.095142845682470056357
0.094334556161077526282
0.091904203395023698064
0.089277628806589071075
0.087452873466439581818
0.086489310975115973879
0.086148126316829637394
0.086074328839186198259
0.086127740028974011932
0.086492297444125620931
0.086983284750124539864
0.42545197033148879351
0.43216121686741904018
0.44019941373639637217
0.44617655676906903262
0.45113515250919311583
0.45635141316207311624
0.46296785474603691091
0.47157099409026076442
0.4817004116062029162
0.49183036664658008608
0.50006681410552866751
0.50523455926979532471
0.50734095743342333407
0.50764908260923657934
0.50714327062663866474
0.50439667230396045827
0.49737718887314680272
0.49171620170537172489
0.48881024617658352938
0.48796614928016818213
0.48815601931822250048
0.48919736532002056073
0.49301913381356160526
0.49869961933435219548
0.50310716271173816505
0.50691943297743669028
0.51120689192171153703
0.51657242454043883484
1.9412598321030001269
1.9547427206174388115
1.9663556359830971498
1.9762179995667834564
1.9847115203239080738
1.9928585961370492985
2.0013463718063921881
2.0100811110715222085
2.0178617223981234474
2.0233493564366327178
2.0258770366939899965
2.0264254223314082104
2.0260039197895616248
2.0239640506348441917
2.0170997143835283083
2.00790013547521351
2.0006660993778049296
1.9963693959855917104
1.9948027662035034968
1.9950945717434789284
1.9966071219292358396
2.0015805951341389957
2.0087042320249621774
2.0145704827441082152
2.0197870770911157123
2.0246536830984696032
2.0288507604559593567
2.0320396971782872519
2.0338661578744443581
2.0343514805694979941
4.309418204203250724
4.3007888505011369062
4.2907570001884050015
4.279605695391295761
4.2678911326721200581
4.2559797682292437315
4.243670670234180875
4.2302186063537137173
4.2147455900305264009
4.1968249595176017053
4.176853799372788778
4.1559343171702707309
4.1354291237952152116
4.1165686916076085211
4.1001416878596756987
4.0864417580645628902
4.0753340003459452845
4.0662071154162759967
4.0581456199569441168
4.0501364364331058354
4.041419194613342647
4.0316742183313021286
4.0209853766348313542
4.0096592574004299436
3.9979621272013341482
3.9860016035253358346
3.9735272281701368158
3.9601068177222944477
3.9452457832454905784
3.9287942824460091451
3.9110573942884894194
3.8928211832352022093
5.9253352410873549871
5.8973558324269932385
5.8695666884489554604
5.8417615221793743885
5.8141045465807774661
5.7868050333221026094
5.7598992518441507471
5.7332672572694498569
5.70680361853336926
5.680683607296399984
5.655347926543874415
5.631175582916884359
5.6081808033934157365
5.58597836590758412
5.5640709526054639156
5.5422463849660665858
5.5206495931204306871
5.499516925855237659
5.4789099531410263566
5.45859899205705279
5.4382698518131409315
5.4177617073575410345
5.3971381420828699049
5.3766348233439709148
5.3564565444783811543
5.3367270674141291664
5.3173780290422669736
5.2983391323433597364
5.2794397964361179376
5.2606846032411089809
5.2422839628758390873
5.2245980884060942984
5.2078286872649748318
10.102567054243568379
9.9957284478134713623
9.8915445591083752674
9.7908916525965707933
9.6942191221139069057
9.6006431821703461793
6.7687735830531492454
6.7377881767685146031
6.707318795403371503
6.6773063388158009346
6.648027080431114122
6.619752754486078139
6.5924772433890632684
6.5658845518230295468
6.5397279198369355768
6.5140780701325038393
6.4892598840596926735
6.4654831357025637217
6.44252650074264821
6.4198704587609487504
6.3971549188859260227
6.3744430541226959619
6.352129125464267112
6.3305730193502620651
6.3098075497619454666
6.2895170774435511518
6.2693540094409341279
6.2491958864282430852
6.2292971658257787482
6.2100019190259683199
6.191549590309676887
6.1739432375043445944
6.1568763419645762269
6.1399159556328264387
6.1226765541347774047
6.105187686288720883
6.0877415302257151808
6.0707883087414691303
6.0546343646638147717
6.0391837436571131903
9.7378065496436985171
9.626679740697358767
9.5177478697017043885
9.4124443464390203928
9.3117503490064219562
9.2152655151061058092
9.1213228821505332178
6.4502202636927021828
6.4336668628694111405
6.4167227375579578563
6.3998508006161891615
6.383560278093207252
6.3677452461995107669
6.3517547276524570776
6.3350325312236819286
6.3175544037082955739
6.2997632493407849097
6.2819477217330588203
6.2637630159462931445
6.2445126012236205071
6.2238726371164290185
6.202422743537445271
6.1812575591211516013
6.1611792222978030154
6.142124936655907419
6.1232910030650335997
6.1038407447744535972
6.0835168559105659014
6.0628350017103258551
6.0424748870303970349
6.022773255549012994
6.0035042063291053083
5.9840233050011439886
5.9637692070245762466
5.9425784272800266095
5.9209532709861463218
5.8998523736037489229
5.8802975636682504046
5.862578504365244747
5.8462284946212861314
5.8302849856803211637
5.8139767624800153811
3.2407605155340584871e-06
3.2329825801844724708e-06
3.225378762327235406e-06
3.2210622789017886745e-06
3.2170735735232133482e-06
3.2155585215724163533e-06
3.2143829798613281845e-06
3.2126145054901613991e-06
3.2118847650890386332e-06
3.210933765302590681e-06
3.2057237336387586402e-06
0.00030219973235119906418
0.00034823518737243903216
0.00039224188049874757645
0.00041579887946594342243
0.0004232155933852275705
0.0004229763380125865454
0.00041545376867828810296
0.00038491941426420058555
0.00035063622642290547156
0.0003321071098899386711
0.00032575098251266614534
0.00032549679828705802747
0.00032909622072342745863
0.00034682332424865625498
0.00037480554563225359924
0.00039075541293289887479
0.00039550767027306466461
0.00039487492289646939801
0.00038716503058207763898
0.00037149011441884536569
0.00036552808030624478215
0.00036619997993677744306
0.00037825183055739219733
0.00043536422687364138883
0.00055391762341822938214
0.00063791498969658906419
0.00068067081025036980935
0.0006931886790827962528
0.00069298672343440562409
0.00068749850161416842503
0.00068562719080185138311
0.00069235695540597783863
0.00073582886018343815308
0.00086394702275861432958
0.00096574665923251804076
0.00100895574461480164
3.5185186924349233639e-06
3.5144783638472310994e-06
3.5086037883425747872e-06
3.5010572011781940227e-06
3.4926881574291151046e-06
3.4836874245662774262e-06
3.4741556176278406839e-06
3.4643922072017166877e-06
3.4540076110238245616e-06
3.4446547542384963252e-06
3.4347413601753112765e-06
3.4274075918468335835e-06
3.4206159965648324011e-06
3.4169336768873216779e-06
3.4132912852595178086e-06
3.411842006201820219e-06
3.4108159270999828035e-06
3.4092637740380307224e-06
3.4091333926142722149e-06
3.4086086602281067506e-06
3.4037218116833676988e-06
0.0003065658917257048496
0.00035417429189441311434
0.00039636033898605835995
0.00041803397553447682166
0.00042413853272596946809
0.00042339125915452787384
0.00041424660526200957024
0.00038110737278680933797
0.00034756044346812459437
0.00032924926192785586082
0.00032252507526795982625
0.00032194161958756643306
0.00032412777696421026354
0.000335173449921681479
0.00035394449585791372794
0.00036528568630003456713
0.00036901431386216913865
0.00036877449166453725232
0.00036430969390967900962
0.00035761947765847504864
0.0003564260753315441903
0.00036047485169128287968
0.00038630000478589494482
0.00048275742962054475974
0.00060446212699811010822
0.00068011777415887550782
0.0007136016641925684717
0.00072026249237078937299
0.00071743594015389569769
0.0007088654779046423297
0.00070829536857103172088
0.00072181148052378302747
0.00079675289640353068581
0.00095674343396741129333
0.0010594198781896345396
0.0010984917504127075013
3.7247784516124397326e-06
3.7204484380785099395e-06
3.7143623189940662863e-06
3.7066269998559543331e-06
3.6980667147287998182e-06
3.6893253324209905916e-06
3.6809319500445283627e-06
3.6735812375967286606e-06
3.6655495210226257919e-06
3.6589667434278759317e-06
3.6508777488635126307e-06
3.6450177781084779721e-06
3.6387416890614402989e-06
3.635811181298578048e-06
3.6323343364492781079e-06
3.6307731801413187063e-06
3.6294357158775345978e-06
3.6268856828226755624e-06
3.6267178872316970989e-06
3.6260676120176904256e-06
3.6214921981886518572e-06
0.00034736399100017683206
0.00038692385546648341323
0.00040730185302982309728
0.0004129393920718644204
0.00041218365601851381097
0.00040343686842541135297
0.00037588206404598511253
0.000354014284306822431
0.00034476921058416358339
0.00034339110284192374441
0.00034540592194486763452
0.00035757779008085331619
0.00038569817857587730377
0.00040415965432752273779
0.00041113044730054968366
0.00041145125765043360968
0.00040673620073022420749
0.00038758609471808969354
0.00037141061173051592974
0.00036707198349721819122
0.00036936195254860321657
0.00038920564167905423664
0.00047159861956427200427
0.00059178177825447918995
0.00066866426182872430381
0.00070421147041355007003
0.00071241318227631151433
0.00071093446878834731361
0.00070623436899256721543
0.0007075468298826070564
0.00072915914003094327821
0.00083695824399672305929
0.001062327162155013438
0.0012093465154316813091
3.939221690165258697e-06
3.934851333100552735e-06
3.9276432736907079856e-06
3.9184371496714493849e-06
3.9088907744292277583e-06
3.9006031568047986019e-06
3.894923860305132944e-06
3.8899588248539249916e-06
3.8863999315017167067e-06