/*--------------------------------*- C++ -*----------------------------------*\
  =========                 |
  \\      /  F ield         | OpenFOAM: The Open Source CFD Toolbox
   \\    /   O peration     | Website:  https://openfoam.org
    \\  /    A nd           | Version:  12
     \\/     M anipulation  |
\*---------------------------------------------------------------------------*/
FoamFile
{
    format      ascii;
    class       volScalarField;
    location    "0.009";
    object      k_0;
}
// * * * * * * * * * * * * * * * * * * * * * * * * * * * * * * * * * * * * * //

dimensions      [0 2 -2 0 0 0 0];

internalField   nonuniform List<scalar> 
106891
(
0.023056487905298048841
0.023038850209573098066
0.023008388739756708424
0.022991303140519267489
0.022961413255381278586
0.022945526205541647013
0.022916313246546061999
0.022901321127081424034
0.022872544624459929807
0.02285805991795928846
0.022822711479716161626
0.019237444901860495383
0.019431254739183712738
0.020125220858054893719
0.020974363757945150427
0.021569360535960240693
0.021925509493457312482
0.022097691624069382144
0.022159938841065665582
0.022179451648594198515
0.022201672178505556243
0.022256937376101678522
0.022350452289858858956
0.022430018236122919312
0.022483207393312120564
0.022506561880263148412
0.022507697029179620646
0.02248950874811153286
0.022384084006250453552
0.02200056661556429316
0.021513313777314899133
0.021193154794701948851
0.021041334871698777476
0.021009206264315717638
0.021036720187337501486
0.021227969904600789419
0.021930348603445299488
0.022904645300453652795
0.023700367286446508835
0.02436669725424910754
0.02497895687032509332
0.025594846384919888588
0.026221837623935199957
0.026808593864100623005
0.027271266574813716327
0.027544317673243098876
0.027630512240739472929
0.027617105680720437783
0.02745995189525895705
0.024471425491950523495
0.024439857647534278529
0.024420918823859334712
0.024389461542790796117
0.024370794841852037177
0.02433906916110642471
0.024320511671411228216
0.024288368862404732113
0.024269408318326149421
0.024237252379096727029
0.024218600213115178132
0.024186353680629896906
0.02416851517539676461
0.024137047390139044351
0.0241202936701929542
0.024089450188736045988
0.024073476598093213746
0.024043055506187963749
0.024027669133907077897
0.023989996378500747648
0.020509100664243409134
0.020995021219024689874
0.02164851019146698044
0.022096311522282297696
0.022375940176413873506
0.022549853553913097592
0.02267839450309162494
0.022808952447586936657
0.022957311348657437333
0.023122012793880000747
0.023286509459761704777
0.023432662319558220099
0.023536947402444764049
0.02359749736255882524
0.023617090422242106168
0.02361378525121023142
0.023568780840043115909
0.023354512643344500084
0.022847433525379240438
0.022457694136897122378
0.022250488947805659168
0.022192257416080794774
0.022202307923323092581
0.022321954147199670609
0.022833915206351997756
0.023844063071059469483
0.024695116642664820261
0.025390655761211390617
0.026021483036365429531
0.026679386710004211053
0.027399996196462755166
0.028128908838483623889
0.028756121628299272791
0.029171553760170734759
0.029342659560168096039
0.029351729536465226422
0.025727426869897412204
0.025693955663612447204
0.025673985544215800758
0.025640616565026041335
0.025620893956337213032
0.025587156397968983945
0.025567575821225974747
0.025533457378111055341
0.025513560090617354997
0.025479517357217741635
0.025460153655127042149
0.025426347331899027543
0.025407830658580300709
0.025374675465486593029
0.025356988214706659146
0.025324399855116367514
0.025307352361829911491
0.025275031612880971554
0.025258533567130442982
0.025218076753880078883
0.021303211995441714149
0.021488838396125749947
0.021996042536732814815
0.02246979772472895362
0.022840909462198348556
0.023145438866323447824
0.023414165063984995058
0.023667674286264442363
0.023912073004829899336
0.024141266059785348314
0.024342820462954217753
0.024499052741066777716
0.024600455392997187115
0.024651041953400509854
0.024662830783823086467
0.024651924866379727047
0.024569424351585870958
0.024239341900524954271
0.023797479518185549879
0.023526739600311409595
0.023424251876138817846
0.02341865497052391526
0.023499174568397212387
0.023909612395468207019
0.025067320207851104957
0.026167655547340667316
0.026922760920138663621
0.027409978659436635279
0.027778407010789197412
0.028191182374715410136
0.028736952870696955142
0.029383531404007689342
0.030005864036695219926
0.030457632902005659509
0.030666059145683877141
0.030688917292114092916
0.027013340707183069317
0.026992524590311980232
0.026957326693573233772
0.026936556690906898054
0.02690082142734937995
0.026880303439620761158
0.026844243154636793225
0.026823574978645813027
0.026787655149925752862
0.026767738749842444335
0.026732319974798246509
0.026713081133773235176
0.026678097458493300193
0.026659384131958518277
0.026624812924135765613
0.026606517561417533657
0.026571992410228336551
0.026554176401055153145
0.026510415181962235925
0.022787083963302093986
0.02314289345725788552
0.023739123765206933403
0.024196239021706044542
0.024525062555187021607
0.024767935703995807434
0.024975198969695810297
0.025173904301644491055
0.025374693420076734063
0.025570573024085056085
0.025742259671508345431
0.025866405371648970579
0.025937381112809146377
0.025960603621701581339
0.025956582293052782306
0.025898196831157502262
0.02562940636496446184
0.025220330548832579215
0.024983319376734328121
0.024908231214697790223
0.024917966611100048763
0.025067402565328224251
0.025751069326677113874
0.027213484367366182204
0.028329735587444254685
0.02899207091166929387
0.029291723750876453441
0.029401097939779342189
0.029496953522061917369
0.0297152094175414834
0.03032926966620460088
0.031140831013046696429
0.031750248241118252113
0.032067510174435299997
0.028436486586171077356
0.02839899426573994079
0.028376874311198140022
0.028339882455061391614
0.028318325241750267468
0.028280829870095888084
0.028259545769802964926
0.028221658827302958938
0.028200413658455967397
0.028162789142266022452
0.028142114697049035871
0.028104822744152664626
0.028084796459873148655
0.028047818896609424261
0.028027993904016793025
0.027991177157999768549
0.02797140945132336326
0.027934327012977020616
0.027915018547171960295
0.027867511959815297745
0.024228997313515052842
0.024919535389211950466
0.025721725299246642193
0.026267274269647911816
0.026584015004886437511
0.026731662545610879178
0.02678001002015865592
0.02678656204055758841
0.026784996834266838056
0.026786280495986965894
0.026809458544067570063
0.026889325481746755714
0.026954463670214638682
0.026979185625629797246
0.026978758678247224262
0.026940703985622021371
0.02674879318933483241
0.026421284243435531891
0.026232863253747205901
0.026177306160419303721
0.026192800384544578929
0.026360441524791399653
0.027110660546601873105
0.028376473211154520232
0.029209622635446578359
0.029658685555933698985
0.029920835818090282809
0.03020466458654590125
0.030659522068980170351
0.031324193711706686816
0.032126648709610981791
0.032920308841570530833
0.033532590449252282216
0.029854909502814490352
0.029831612864249717337
0.02979249116992361765
0.029769693058461908775
0.029730368665478280193
0.029708477665597962658
0.029668925402221865695
0.029646916935392762099
0.029607410220950682034
0.029585933374608734681
0.029546492770944648987
0.029525419086381642086
0.029486003955831244228
0.02946496055417431939
0.029425622467773009799
0.029404241091517280965
0.029364091547106160873
0.029343076831311862285
0.029291447958108250693
0.026297851442704474334
0.026893943853614925288
0.027298342965851669223
0.027564065331189716718
0.027758507009610824262
0.027920926515089875691
0.028077500091403272131
0.028227164202904379831
0.028364926954373224921
0.028474117458203815345
0.028547913237527387798
0.02858490055205078692
0.028593593506215722599
0.028581264885718032226
0.028491417868409446568
0.028152866663554241417
0.02773454897351794804
0.027479368267411079935
0.027379001678425218813
0.027372709459178062169
0.027442679150454465931
0.027806278357874344986
0.028783326578437393173
0.029690327897089557885
0.030379401361788418989
0.030930550561807428067
0.031458788895507662497
0.032080861835203165755
0.032850806138564031533
0.033726676387866597051
0.034585384525994813942
0.035261041458187591946
0.03138791966062565858
0.031362834427052461994
0.031321048647157602451
0.031296970066888682438
0.031255517495750048673
0.03123261824724033256
0.031191191462467023066
0.031168396664484947223
0.03112686267179901739
0.031104171659827990759
0.031062373710044683534
0.031039992618029192684
0.030997980332880439858
0.030975503114455057996
0.030933289380891553638
0.030910214697577129833
0.030866788714682621281
0.030844082557296269992
0.030790501234435826289
0.027653629816963894855
0.028103151439079456647
0.028445101891731498084
0.028744048716129580456
0.029049656749272997902
0.029380296459397374498
0.029724006735621259084
0.03004943890534699999
0.030306284664568024917
0.030474878069864885094
0.030560529050199399664
0.030586668385463020026
0.030579915611169967982
0.030501413446685558123
0.030149752118088474911
0.029546074800085305595
0.029131794349129266214
0.02893167440023647341
0.028886391998111320134
0.028911688920743038728
0.029097673712788579142
0.02979599960183141466
0.030722728449250429755
0.031419727730870310178
0.03197167229874061517
0.032515837698020501334
0.033190490183530409196
0.034061749800246385322
0.035067882063602485998
0.036034615774338092653
0.032988523002420062913
0.032943818709843981918
0.032918180288319984217
0.032874022616731120305
0.032849696351953845685
0.032805992641475760496
0.032782049459949093306
0.032738337764412143993
0.032714430103016618745
0.032670457567059232873
0.032646758840172054872
0.032602309617732361247
0.032578458058886712589
0.032533534827223563324
0.032508967318997723794
0.032462481829929973332
0.032438398618847605337
0.032382971584685490973
0.02921998778207331518
0.029509151852596549742
0.029716221811622998972
0.029907516709794339932
0.030141287183203642475
0.030454842968938189429
0.030846876092202157871
0.031280572438286934067
0.031670820003253948027
0.031942391979457064599
0.032073593941033012866
0.03210340454784822023
0.032083202479715258737
0.031931829867533595424
0.031412908004934222972
0.030901053022209197529
0.030638353742530880647
0.030565618395635305027
0.030581059715222725509
0.030734753784287974915
0.031368403407682370065
0.032265176167073673918
0.032862938579125526573
0.033217496969345956803
0.033491047769159412728
0.03388833847047735548
0.034583732554625490341
0.035594973546420390076
0.034815957301817204717
0.034769396909260910644
0.034742597563059432475
0.034696906014493655857
0.0346713417230542012
0.034626562722297554719
0.034601370076825503641
0.034557249334275771946
0.034531949211148750545
0.034487810776516004962
0.034462858489306150145
0.034418053829163096358
0.034393089086500849838
0.034347057597759703129
0.034321532428565851292
0.034273481204559592961
0.034248827991787265945
0.034196713943934475832
0.031066829616262631869
0.031085911784124575091
0.031068802705387230795
0.031029760846526813906
0.031023894650818690383
0.031052439678141353224
0.031223688098691332327
0.031807652370334761616
0.032469897854743454135
0.032897206734150301333
0.033097671903890728273
0.033144507657505768716
0.033120845773292044434
0.032944304783388889124
0.032574949138208540711
0.032384826815622116958
0.032348729625789766906
0.032388456072291710308
0.032654232102807941029
0.033607826739425333828
0.034664591892837444409
0.035279412188034361963
0.035521268313153039897
0.035556956803079194096
0.035532766954176051022
0.035510406855963204398
0.035551082667412040039
0.036228069366013485042
0.036178615511134722127
0.036139447724553623587
0.03609025790030372105
0.036051910342024755252
0.036003149141194505656
0.035963562886653734074
0.035916111160055531892
0.035875926709366831591
0.035828257879440404687
0.035788368883127849585
0.035739772499275325457
0.035700376797695734798
0.035649862730587858484
0.035610139833904368156
0.035559071723277525801
0.035518636944470306782
0.031890270337428409941
0.031829007153786746664
0.031485147093059662193
0.030736925695838791112
0.030201266962044028691
0.02992319163250923425
0.02984066543940672861
0.029849875836076594782
0.029986069500534881516
0.030610088390419329385
0.031931620918298452005
0.032928566437944895018
0.033508403479664022884
0.033759905472199203125
0.033830449990114037917
0.033840399463039086414
0.033853064250804844326
0.033916777981652448948
0.034208002877391299745
0.034992326103048893016
0.035631881067300051613
0.035931128023443330288
0.035977915814636773906
0.035893988249934477563
0.035398966236179496558
0.034546843949138338059
0.034117071552999450601
0.036214757548765401374
0.03617758150033467679
0.036106709045491902632
0.036069680851274918409
0.035998035219581239752
0.03596045648342074269
0.035888181408996883137
0.035850989758457171841
0.03577784362271128199
0.035740995475480735744
0.035667382564741841044
0.035630397449006777355
0.035555949922171731226
0.035519003517091127242
0.035424530327407173502
0.035436481939864011848
0.027633970863959744779
0.026800067202738475647
0.026123316697557720512
0.025620873428624253015
0.025282955252653335071
0.025087472217369326949
0.02500470455710020537
0.024990523914913843201
0.025005999641957096097
0.025101953438089141118
0.025471018589145563715
0.026577094057467484656
0.02793092616594035002
0.02907073809168428391
0.029969222390602564404
0.030652969667356266131
0.031172058201739436673
0.031552561890170922887
0.031795063994756157799
0.0318976067152986556
0.031905125241435884631
0.031840399579822084575
0.031504228580553815531
0.030479339022102897028
0.029420085361278949798
0.028705118092755985137
0.028338018972657082889
0.02823750538345450728
0.029288571857722604103
0.029225587377902390723
0.02919239144382761858
0.029128269541266404996
0.029094269138264350349
0.029029740316686831331
0.028995807605681253594
0.028930477882979130366
0.028897317094409392252
0.028832020837472705638
0.028799377486131462478
0.02873417800880616324
0.028701977210967507398
0.028620062481012641109
0.028643985391687842162
0.025447499303763131129
0.025109044421656595558
0.024791733903433234298
0.024569395675974405741
0.024440036424498601253
0.024387208898486559955
0.024381871937905554709
0.024401245977432099027
0.02450023235206601202
0.024843458985391347199
0.025488418757679529025
0.026127534274095264716
0.026731258168401356157
0.027277765353190212144
0.027753979866285610756
0.028151622888451494076
0.028457001882919337465
0.028665012277263202112
0.028773978658946413461
0.028806911679375341723
0.028802862574145632335
0.028741330055367695501
0.028462701120699360202
0.027893081414491725789
0.027467548219177784913
0.027247099116025689375
0.027191487803305647991
0.027327323342397562278
0.027300174680136894689
0.027248485930145595335
0.027220532568702979215
0.027168340448591371539
0.027140534330798396501
0.027088234365127260989
0.027061447070843489687
0.027009317128725125745
0.02698337420751495408
0.026931910139206108323
0.026906594848627299332
0.026844304648172119532
0.026841047260710973466
0.023898765569897464922
0.023619589946855416851
0.023457509793040023927
0.023393289166239006338
0.02338863709670927285
0.023429144039636955882
0.023644232886290646178
0.024204161583808021102
0.024689363421827328904
0.025032191787152279633
0.025272990490168262268
0.025463888979635269233
0.025648237976274843031
0.025850715233165812851
0.026076405322193237785
0.026310220517623696124
0.026522596502689486236
0.0266836573537836165
0.026772402591813741074
0.026798805508766683492
0.026792576394791416811
0.026718750506195720201
0.026449860388466500671
0.026188846848019455005
0.026075520793030635552
0.026064898448224408517
0.026325838275254954957
0.026277425196772320748
0.026251256044812855406
0.026202255456860213539
0.026176104715474848156
0.026127261139719904631
0.026102239831225906852
0.026053644511487186741
0.026029492148322994072
0.025981674350657384814
0.025957963890356403752
0.025902464385662220953
0.02589406846384189817
0.022514018416209334583
0.022441753553210531252
0.022424755520592414004
0.02243619898918711858
0.022527953709055886788
0.022899298318356797743
0.023528578856487663423
0.024037944666510078356
0.024399719941131176731
0.024616987918451058159
0.02471868498346087642
0.024756282178445287306
0.024781046511957831313
0.024833589064817970099
0.024990343354494012201
0.025267540074566940955
0.025492227809282105855
0.025624641583232982828
0.025668153250784059294
0.025665216598050120955
0.025591408389021547132
0.025300147503898941931
0.025006069385085181317
0.024882995844225156562
0.024873515892570866731
0.025278636834470281231
0.025253202284919052528
0.025205542034364890325
0.025180162996964995659
0.025132786950993399322
0.025108578481083696637
0.025061383183530624302
0.025037892770731852432
0.024991330640127453616
0.024968012438374181938
0.024913740145978510721
0.024905538990232664598
0.021533265073806456824
0.021510632882523358228
0.021520613648954783209
0.021607751892927563181
0.021971321737928980328
0.022644127228392839368
0.023197962613106797025
0.023597967140085232551
0.023845880565871089424
0.023967770582276733127
0.024009549546376757895
0.024016088994783187788
0.024020250910442974418
0.024039373384863463312
0.02410900149230130185
0.024177038606989179059
0.024204295385422205239
0.024205473795305510604
0.02416688226648031762
0.023968203129119795142
0.023616387763686328555
0.0233906141086914314
0.023301579949325974817
0.023298350001941071225
0.020153275179174950926
0.020192290591716840348
0.020390993218438447504
0.021014878419319080183
0.021734346565034132204
0.022306261533270414776
0.022720321620275981539
0.022978580715727909417
0.023103254261942259701
0.02314380776873078624
0.023144757328265156554
0.023128651177014701579
0.023092766054503589823
0.023074413198932088032
0.023059969559127688199
0.023031612422824195713
0.022953070404469033683
0.022783988190310199701
0.022603770129540064898
0.022442033708899154776
0.022331806097954574192
0.022287781955501132641
0.02228999530385748773
0.019556563981541166819
0.020009670450738988035
0.02066228247992983949
0.021218999237583694578
0.021656549966569110105
0.021956276652964772794
0.02212587028518440968
0.022195710330956752027
0.022209300727769269723
0.022203914738918598126
0.022181080255697722264
0.022171320321969251177
0.022172675726681165959
0.022186418781236012798
0.022197735669012081533
0.022197995264016615741
0.022175186195818197971
0.022063143060833949327
0.02189126351733681336
0.021799540399202919916
0.021778377137972659144
0.020430846923808025639
0.020723399519059812479
0.020928091877658327319
0.021070567676546421432
0.021180881682983258851
0.021279318767950389235
0.021374097559861308243
0.021456855816371807333
0.021516681984697270946
0.021543186175458688136
0.021547118667415852272
0.021529357999885555264
0.021423780619462953062
0.021124136429555379069
0.020872856084412080152
0.020747335290996583163
0.020718365197383344783
0.020348886124890833843
0.020405444080450762384
0.020439319465487715277
0.020456149899608630505
0.020461284307324145021
0.020459951851763615027
0.020444019221496394917
0.020372259164168769058
0.020181753006187679034
0.01999731233761345775
0.019862123554149228866
0.019786230312188460984
0.019764622992276475316
0.019715482960983621991
0.019716126894850950768
0.019709068217971043718
0.019693377280241872868
0.019685856855610871924
0.019682778015782637082
0.019677479783561945686
0.019662575789944215787
0.019611336055134931389
0.01948450560598335296
0.019376138083393622952
0.019319020069609345314
0.0099684655992470921904
0.0099698869072456838131
0.0099800584440464992081
0.0099923876243892019444
0.010011680382449201013
0.010057884087419617994
0.010194399306117905152
0.010635537150437376561
0.011827505768725189716
0.013089793969600213228
0.014019192641359961432
0.014567852815129105765
0.014790146636199333341
0.01482730860395291804
0.014790059526245782559
0.014558930623237228627
0.013772260313784983818
0.012873638063935561454
0.012251104952417888119
0.011880850151412247415
0.023362817251106247907
0.023287090088778241576
0.023267601035554849598
0.023263615200387454535
0.023268985119337542294
0.023300455530609456845
0.023432811043475797186
0.023887153415649200333
0.025333083507425011027
0.027442111057842340227
0.029165235286308530127
0.030324682515783539516
0.030914654114236099491
0.03109234751304908867
0.031090788574033849379
0.030936406534930949858
0.030225683793009067851
0.028467985604383804626
0.026926231883498439462
0.025867438446141807068
0.025234384670364099629
0.02492318725018796699
0.080375413856985267191
0.080421331167551166064
0.08068370735831563445
0.081374211464544751737
0.08189682759898486708
0.08224132080519408472
0.082740102518834970913
0.083833527330264362432
0.086317071762576719207
0.089306906666938273842
0.092003411911592059003
0.093930494726467000932
0.094948919149638322246
0.09529487149952875491
0.095314444519496027697
0.095143041097125000127
0.094330400584530932351
0.091893792227687870477
0.089269616204491350486
0.087447685160847762886
0.086486543838371593429
0.086145973287026500476
0.086072084522753944391
0.08612591406770329916
0.08649262899944937244
0.086983500522909956709
0.42545848516340878387
0.43218526347605701332
0.440215957457510354
0.44618578931747887584
0.45114123699592179051
0.45635826376228616486
0.4629777851447414716
0.47158486546487998758
0.48171626011252510757
0.49184469994851082175
0.50007595270619398242
0.50523689177804842476
0.50733757428245440657
0.50764389603493798031
0.50713573921761534447
0.50437523390365446296
0.49734811692137803618
0.49169821356835757831
0.48880088703273433248
0.4879602666149305823
0.48814958777024053393
0.48919240602281838237
0.49302471337491210468
0.49870128315941586461
0.5031055540269582238
0.5069193028055887229
0.51121156453677474296
0.51658355526666877022
1.9412984683001521802
1.9547768614390468311
1.9663810366029077503
1.9762360942199759251
1.9847260643713113826
1.9928720644913908711
2.0013570004561080928
2.0100849331469543557
2.0178551651189957639
2.0233339844985946954
2.0258587000956902457
2.0264109948148325557
2.0259927267200863454
2.0239476760593611004
2.0170665491556802884
2.0078745637783672606
2.0006530834236286864
1.9963698870377304395
1.9948114427520826641
1.9951045513411584942
1.9966171988244609814
2.0015976882778585555
2.008712464419364796
2.0145731171056606712
2.0197892388750373627
2.0246575961610946415
2.0288547723432768244
2.0320405908765364345
2.0338612860557514495
2.0343428280528641494
4.3094490982218074393
4.3008181244597460946
4.2907778474969164861
4.2796188091244626861
4.2679023711292218835
4.2559925216146607951
4.2436809810941387155
4.2302176754228275612
4.2147281923003960813
4.1967944053424979245
4.1768210239989498334
4.1559093257373849184
4.1354138850583286313
4.1165596604338290376
4.1001348869731675251
4.086439288806555048
4.0753401775914879224
4.0662238728242066088
4.0581684756177605067
4.0501566595799074477
4.0414295518134517593
4.0316731619874897063
4.0209761852306931118
4.0096488499973750308
3.9979558097877987421
3.9860007513135626844
3.9735281733793277326
3.9601021837183609797
3.9452295394433440912
3.9287659751068075842
3.9110237075441833809
3.8927919467463678593
5.9253555226970302527
5.8973783477571117828
5.8695810158262542444
5.8417690106784077031
5.8141131549294318148
5.7868194385877371744
5.7599155494006710754
5.7332780365758964081
5.7068056294674702755
5.680684045236793267
5.6553577162000587819
5.6311973646148301142
5.6082071224124341313
5.5859937762804756645
5.564067675282092118
5.5422300627928109407
5.5206327194542152981
5.4995081912598413609
5.4789077949573448123
5.4585949810470015819
5.4382573139390100181
5.4177410590246664057
5.3971174149773997186
5.3766225982904201075
5.3564574057029892273
5.3367390176133548962
5.3173936650274011839
5.2983489748485350646
5.279436604910183739
5.2606714126695361955
5.2422715365228782503
5.22459820584134782
5.2078454995026897123
10.102514563364985989
9.9956643821160540142
9.8914919065644806295
9.7908739252904712913
9.6942334364277726877
9.6006493028746113794
6.7687886945736215338
6.7378028969848138274
6.7073231215102344649
6.677304633278753343
6.6480298963996498074
6.6197648396306378871
6.5924941377179262503
6.5658978204720179761
6.5397351565123296169
6.5140877589020096394
6.4892812189683857227
6.4655143644932300262
6.4425514677321711332
6.4198718015762930023
6.3971291345107088588
6.3744009356170456826
6.352088395347005978
6.3305440096037601805
6.3097882780179155304
6.2894970002428589595
6.2693255994411050125
6.2491627352629262049
6.2292705109785826423
6.2099924534182067148
6.191561934656028221
6.1739716704990161844
6.1569067616497923368
6.1399335576324389763
6.122674364476998754
6.1051726050322754347
6.0877288686304877885
6.0707922209709099803
6.0546583191075704633
6.0392172894756441792
9.737642960562608252
9.6264944940313750266
9.517599202951398496
9.4123587906245376189
9.3117165800541705778
9.2152273255119752093
9.1212285544975166829
6.4505107302997632956
6.4339180061604501759
6.4169394343394152713
6.4000531889020315646
6.3837580904764612555
6.3679282895130446818
6.3519049593428054123
6.3351420636315074475
6.3176338102273241759
6.2998274400182001642
6.2819964617065950918
6.2637771965850985723
6.2444742517425639861
6.2237925825912157052
6.2023403943255610571
6.1812180413804735934
6.1612048417246194632
6.1422056375397442451
6.123399683629283885
6.103957923542520092
6.0836458853530448465
6.0629940370066872646
6.0426752515325965476
6.023006973316263668
6.0037450112760311072
5.9842396500794423631
5.9639400625793248523
5.9427054828895871097
5.9210628418656181537
5.8999795348199928213
5.8804646925061412333
5.8627788396497644285
5.8464306676119059958
5.830453848759221458
5.8140970229132316049
3.2405093659674138226e-06
3.2327317953837260585e-06
3.2251629071817684722e-06
3.2208983166258817257e-06
3.2169615468821775337e-06
3.2154842077114661236e-06
3.2143203061209902367e-06
3.2125532757330396493e-06
3.2118280086492243456e-06
3.2108661300906212976e-06
3.2056751413168394491e-06
0.00030230902588680063281
0.00034845831275254505674
0.00039237653348972011819
0.00041585298832307163218
0.00042321817812859439337
0.00042296158968634968173
0.00041538158663389731541
0.00038474513003272750892
0.00035052242680390404339
0.00033205334487352623513
0.0003257362789824552198
0.00032549527356072092358
0.00032912414481248359385
0.00034693608024686297406
0.00037488705083505786042
0.00039078242954952767483
0.00039549743531999931138
0.00039484897276453889432
0.00038708506918638628655
0.00037143317467647251132
0.00036551134331450898726
0.00036620722676949642258
0.00037835488513792060348
0.00043580176580221616613
0.00055434750764288178836
0.00063816334158620644564
0.00068075756198773883059
0.00069318298679092770279
0.00069295850608702539743
0.00068745559709289195873
0.00068561569009600127275
0.00069241283645189689259
0.00073617337737739269553
0.00086451997525039889214
0.00096603417903833390962
0.0010090222342723938458
3.5184032079023801377e-06
3.5143749340886764026e-06
3.5085047819191271333e-06
3.5009592648777265169e-06
3.4925875137495768769e-06
3.4835769911358128988e-06
3.4740257697040020023e-06
3.4642296381919685318e-06
3.4538077227184318824e-06
3.4444213340347030425e-06
3.4344976957394746979e-06
3.427182216556170574e-06
3.4204343959662293738e-06
3.4168012146101699308e-06
3.4131995511784977443e-06
3.411775932194660065e-06
3.4107540610373479387e-06
3.4092015873209135142e-06
3.4090798212449577628e-06
3.4085455224099311445e-06
3.4036718828536190339e-06
0.00030668472541900637868
0.00035439353413300333671
0.00039648645652909294277
0.00041808066884617417361
0.00042413769777834031162
0.0004233717658467146816
0.00041416251095971706557
0.00038093024216971551471
0.00034744822211132421735
0.00032919480045635250666
0.0003225082438366623375
0.00032193856148214492407
0.00032414243937518052692
0.00033524304784588289732
0.00035399621111014225629
0.00036530096236513960725
0.00036900237168866688005
0.00036875167747996829117
0.0003642597228630753566
0.00035759078375434887953
0.00035641817476710459852
0.00036050896329326692896
0.00038650393918050865482
0.00048331410170228422283
0.00060486769130158437105
0.00068032255410247768294
0.00071365147929598781503
0.00072024156851931305217
0.0007173843032091992318
0.00070882413509862807373
0.00070828901156186818353
0.00072192818401081953854
0.00079733865350183931453
0.00095731151509174244874
0.0010596934601029663666
0.0010985358610618488687
3.7246702664014817836e-06
3.7203422552621628921e-06
3.7142555618631238261e-06
3.7065189842210517167e-06
3.6979547276147153059e-06
3.6892034223021740271e-06
3.6807936900624464039e-06
3.6734153686403811611e-06
3.6653558413083855265e-06
3.6587505051358195573e-06
3.6506605478748856933e-06
3.6448235549023627516e-06
3.6385897447304886753e-06
3.635701192255824981e-06
3.632252716032182953e-06
3.6307076768978609836e-06
3.6293683220607369223e-06
3.6268185335736479212e-06
3.626663717739393623e-06
3.6260039657115440721e-06
3.6214378312940994492e-06
0.00034755019269920649043
0.00038704101499322527205
0.00040734397955021606598
0.00041293657774154739768
0.00041216271512713398501
0.0004033546836180175281
0.00037575008570044484075
0.00035394517878054357861
0.00034474510596010059108
0.00034338726538662062192
0.00034542151011703292303
0.00035766851477231646674
0.00038579455337533623575
0.0004041972391817541207
0.00041112402733723270006
0.00041142699628566740998
0.00040667192223588916056
0.00038747156626946178612
0.00037135492191781542667
0.0003670579780390600109
0.00036938188924421158383
0.00038936508052549330654
0.00047211430657055039909
0.00059218436675581749562
0.00066887599735946127663
0.00070427031142657951605
0.00071239629108917545616
0.00071089384503852806954
0.00070620377490873405095
0.00070755260642457133008
0.00072934115134151527009
0.00083779822913133538288
0.0010631307107598195107
0.0012097502960369817086
3.9391235435870485378e-06
3.9347404246947845888e-06
3.9275194882959368496e-06
3.9183028079115522397e-06
3.9087483915146727212e-06
3.9004554077986630143e-06
3.8947654183791455886e-06
3.8897884287035755965e-06
3.8862191787825441566e-06