/*--------------------------------*- C++ -*----------------------------------*\
  =========                 |
  \\      /  F ield         | OpenFOAM: The Open Source CFD Toolbox
   \\    /   O peration     | Website:  https://openfoam.org
    \\  /    A nd           | Version:  12
     \\/     M anipulation  |
\*---------------------------------------------------------------------------*/
FoamFile
{
    format      ascii;
    class       volScalarField;
    location    "0.009";
    object      nut;
}
// * * * * * * * * * * * * * * * * * * * * * * * * * * * * * * * * * * * * * //

dimensions      [0 2 -1 0 0 0 0];

internalField   nonuniform List<scalar> 
106891
(
8.7283962863617766857e-06
8.7189979487061820048e-06
8.7071792452613302376e-06
8.6978982646817732527e-06
8.6862023242143631926e-06
8.6771630097462551658e-06
8.6656121628733972237e-06
8.6567586513642774226e-06
8.6453087045578112894e-06
8.6365682710949077375e-06
8.6238946948103379443e-06
1.0082112069844613024e-05
1.0125411354945358194e-05
1.0296884484942953161e-05
1.0504817988480549129e-05
1.0645657532567731553e-05
1.0725965176909230765e-05
1.0760678860275267203e-05
1.0768422537201709048e-05
1.0765702357292449221e-05
1.0763600222050821888e-05
1.0769456463791042495e-05
1.0784557503643565202e-05
1.0796259233001230003e-05
1.0801579899550349583e-05
1.0799711980748674594e-05
1.0792493460943189821e-05
1.0780671638044146297e-05
1.0748057884603510724e-05
1.0648523964181003202e-05
1.0522526258174108268e-05
1.0436514396628975398e-05
1.0391690127148493601e-05
1.0376452767387660684e-05
1.0375949664715238642e-05
1.0415453088098108154e-05
1.0578360816796850022e-05
1.0803440912559986978e-05
1.0982057732423265589e-05
1.1127753569564044345e-05
1.1258910853977620211e-05
1.1388960639545868454e-05
1.1519634269371607232e-05
1.1639809499452289095e-05
1.173183328548100671e-05
1.1782424532545009475e-05
1.1792791666012348927e-05
1.1781810071306396601e-05
1.1740321055089402523e-05
9.2839098744112939885e-06
9.271479546512623708e-06
9.261452631533662077e-06
9.2490606030473343334e-06
9.2391028168011909196e-06
9.2266783225300656279e-06
9.2167584152134447066e-06
9.2042724192307200407e-06
9.1942914109891271418e-06
9.181818078066061425e-06
9.1719097912536938402e-06
9.1594341426624546201e-06
9.1496941652517811222e-06
9.1373822625942480272e-06
9.1278641195543409875e-06
9.1156888353115633593e-06
9.1063360983402385579e-06
9.0942601089868391591e-06
9.0850365307817584719e-06
9.0716084086161627908e-06
1.0673124935685761964e-05
1.0790831072076752345e-05
1.0950042816064585916e-05
1.1055240646671010081e-05
1.1117397377712584015e-05
1.1152850635842865705e-05
1.1176852117169191794e-05
1.1201187591342416449e-05
1.1229739673677219413e-05
1.1262119467299976425e-05
1.1294273976322432464e-05
1.1321828286420366436e-05
1.1339160439401235229e-05
1.1345895535037350422e-05
1.1342751221627121207e-05
1.1334094332679724265e-05
1.1315503660614732951e-05
1.1256432616706186687e-05
1.1125948595215194494e-05
1.1022796322890797177e-05
1.0964029880738507218e-05
1.0941948158609722056e-05
1.0936760703683334842e-05
1.0958348845098025236e-05
1.1074920777026423964e-05
1.1309394160300310106e-05
1.1501666135899145808e-05
1.1654559369551236838e-05
1.1790296197599156461e-05
1.1930090929105478418e-05
1.2081711771193623592e-05
1.2232916154073963084e-05
1.2360125491424825005e-05
1.2440677897527806486e-05
1.246865492658294154e-05
1.246201110466922031e-05
9.7667197250868228862e-06
9.7535887206881556578e-06
9.7430288398231989659e-06
9.7299357026137845577e-06
9.7194411888921259903e-06
9.7062972886252153905e-06
9.6958475417599062555e-06
9.6826496950031185735e-06
9.6721558847507269616e-06
9.6589883743402706523e-06
9.6486109384860511295e-06
9.6355045819368733947e-06
9.6253036854029561358e-06
9.6123389275751012031e-06
9.6023133095853025729e-06
9.5894759358819483825e-06
9.5795906056110320496e-06
9.566824253263573176e-06
9.5570617033098184337e-06
9.5427753045198517761e-06
1.1160856012156181272e-05
1.120129544691120714e-05
1.1324623039732788739e-05
1.1438134222559149809e-05
1.1524289766908940331e-05
1.1592862277356610039e-05
1.1651902296596072388e-05
1.1706696988407951985e-05
1.1758836498439505933e-05
1.1806881607534801642e-05
1.1847876488682787267e-05
1.1877634463889027755e-05
1.1893977421980084997e-05
1.1897975432224897494e-05
1.1892579796384045846e-05
1.1881719919289011916e-05
1.1853718865548552766e-05
1.1765975674637314515e-05
1.1650038739592387182e-05
1.1575356785635027801e-05
1.1541946914111676331e-05
1.1532487310501473191e-05
1.1544092720453436214e-05
1.1635780015583273319e-05
1.1905345312501256532e-05
1.2155825391729613888e-05
1.2321753345238909007e-05
1.2424330414811517062e-05
1.2498912925149808015e-05
1.2582601164711021494e-05
1.2694870908269745397e-05
1.2827941534910789679e-05
1.2954178413440251236e-05
1.3042486439370286911e-05
1.3078172618767186519e-05
1.307407435526169606e-05
1.026094336449202752e-05
1.0249867762494086659e-05
1.0236071486735085086e-05
1.0225024351014676822e-05
1.0211146012170843996e-05
1.0200165121274421925e-05
1.0186244077544974747e-05
1.0175251414087201144e-05
1.0161373992820444922e-05
1.0150540263462667708e-05
1.0136776033604817806e-05
1.0126088801201522534e-05
1.0112427282508612387e-05
1.0101859618969148471e-05
1.0088297993014182997e-05
1.0077830104518967168e-05
1.0064298505195846207e-05
1.0053940791014997407e-05
1.0038679901896652093e-05
1.1834866172037937415e-05
1.1918180762191978294e-05
1.2062408993080138449e-05
1.2169684093279367062e-05
1.2243707355935480846e-05
1.2295708775562109733e-05
1.2338506981218861798e-05
1.2378905931677750652e-05
1.2419556213790023335e-05
1.2458761267372251753e-05
1.2491870030592437408e-05
1.2513305606489416819e-05
1.2521806355052525768e-05
1.2518746300646196268e-05
1.2509106045798412432e-05
1.2486462767300596688e-05
1.2413185258185449922e-05
1.2305082882131523558e-05
1.2238444571618319236e-05
1.2211418138343059386e-05
1.2205251500416872866e-05
1.2233008161565007272e-05
1.2389144892975540021e-05
1.2727191422767850082e-05
1.2977083642612331527e-05
1.3119226343745191694e-05
1.317797836022719132e-05
1.3193491126628661259e-05
1.3205754354348477042e-05
1.3245110876274329088e-05
1.3371524580092329575e-05
1.3539933372062861797e-05
1.3662536829847848357e-05
1.3721370879660927487e-05
1.0809035645393740512e-05
1.0794406625671829411e-05
1.0782709319096331086e-05
1.0768197232883932877e-05
1.0756628340148996858e-05
1.0742042130950104113e-05
1.073054453050839719e-05
1.0715903809060731331e-05
1.0704431134299198318e-05
1.0689858548368341498e-05
1.0678511917581750112e-05
1.0664022095674687246e-05
1.0652818177202082653e-05
1.0638410298638179561e-05
1.0627266320801042969e-05
1.061291229417110106e-05
1.0601801149191702732e-05
1.0587418954991084866e-05
1.0576414960125172122e-05
1.056007725944408212e-05
1.2520701120803267678e-05
1.2688503196985965717e-05
1.2882418011621498468e-05
1.3009539234388530982e-05
1.3078862180082051096e-05
1.3106168735112639885e-05
1.3108989045775106452e-05
1.3101525748516010419e-05
1.3092060013483394166e-05
1.3083279875264238392e-05
1.3079800203507684975e-05
1.3090117426338314849e-05
1.3096900464933277746e-05
1.3093838933418951376e-05
1.3084660761659501249e-05
1.3066431570719707714e-05
1.3011021785726271631e-05
1.2922085260204418502e-05
1.2866837891941935906e-05
1.284417122808353864e-05
1.283897945299251829e-05
1.2870754438715147988e-05
1.3042650509360502744e-05
1.333462674504954901e-05
1.3520022435810644736e-05
1.3614399910335034917e-05
1.3665034591447819799e-05
1.3720068666332359411e-05
1.3813198510751624048e-05
1.3952254996181267624e-05
1.4119963288841320704e-05
1.4283482491188983883e-05
1.4405922100525579411e-05
1.1355448406510143582e-05
1.1343133534053428049e-05
1.1327821942320954722e-05
1.1315625298998826118e-05
1.1300298167799619281e-05
1.1288294948787799804e-05
1.1272946221788202222e-05
1.1260939675518190269e-05
1.1245619220457676684e-05
1.1233732696553644167e-05
1.12184460097506198e-05
1.1206657166489678688e-05
1.1191399068555041757e-05
1.1179639050226169297e-05
1.1164420477483757299e-05
1.1152619836412085041e-05
1.1137270459975189628e-05
1.1125560271455409199e-05
1.1108054475581119371e-05
1.3373908508994267522e-05
1.3515459586581052067e-05
1.3607416493327611115e-05
1.3664098470342611195e-05
1.3702742982796477326e-05
1.373325779628647849e-05
1.3762165155638481626e-05
1.3789233544464289853e-05
1.3813267638369872267e-05
1.3830246216267119561e-05
1.3838569129736826425e-05
1.3837943053872819491e-05
1.3830455967720830135e-05
1.381790690017876749e-05
1.3786741193553647306e-05
1.3695373217690085289e-05
1.3583684506999562806e-05
1.3511490403774289079e-05
1.3477288417665665753e-05
1.346632242299616194e-05
1.3474010844797443436e-05
1.3553033733182492354e-05
1.3779130354873315238e-05
1.3985145124872662409e-05
1.4136889856502618087e-05
1.4254743886862511872e-05
1.436593997156457902e-05
1.4497086789837986543e-05
1.4659707320335606197e-05
1.4843496246436036883e-05
1.5020938216701176598e-05
1.5156662101532464957e-05
1.1946120485539623034e-05
1.1933050394438682161e-05
1.1916815767674010483e-05
1.1903962319816788871e-05
1.1887816342544996366e-05
1.1875210473250309685e-05
1.1859093217169852923e-05
1.1846528327902839655e-05
1.1830412568241113129e-05
1.1817888156291515481e-05
1.1801744640648998504e-05
1.1789301264837504109e-05
1.177314180749477706e-05
1.1760704206950606566e-05
1.1744532472685746872e-05
1.17320060566314508e-05
1.1715628318015533447e-05
1.1703193889545821456e-05
1.1684912057891418889e-05
1.4061396541777770012e-05
1.4165532184706431418e-05
1.4241637114972817234e-05
1.4306357433511831523e-05
1.4372209586952306495e-05
1.4443719932316206054e-05
1.4517881296827761539e-05
1.458705421063012833e-05
1.4639175195105882796e-05
1.4669728438606832564e-05
1.4680196872848435793e-05
1.4676320423226244682e-05
1.4664541795768885736e-05
1.4635678348864487891e-05
1.4541394899123843461e-05
1.4385026018302589455e-05
1.4273692220354904653e-05
1.4214505337273121758e-05
1.4193405053613355972e-05
1.4189685008756421279e-05
1.4225071427782232577e-05
1.4384133636697863347e-05
1.4596183520183071396e-05
1.4750799240327816227e-05
1.4869560058927844615e-05
1.4985096556551138613e-05
1.5129075470767060202e-05
1.5315549640960720668e-05
1.5529274396361240489e-05
1.5731088328583067037e-05
1.2556672136092075155e-05
1.2539444032716253832e-05
1.2525857668445125948e-05
1.2508760545504261493e-05
1.2495449241106794806e-05
1.2478464780920169768e-05
1.2465250161469008762e-05
1.2448288590621957029e-05
1.2435103388342609335e-05
1.2418116061410206495e-05
1.2404993761913679564e-05
1.2387941251793333007e-05
1.2374814488293337376e-05
1.2357698636029968868e-05
1.2344461461504671542e-05
1.2327074141405900944e-05
1.2313952222318257253e-05
1.2294892392132730218e-05
1.4819928685176140455e-05
1.4882856339499081515e-05
1.4924666685152718109e-05
1.4962221652688787561e-05
1.5010091220578291834e-05
1.5077403555915113359e-05
1.5163533319984896891e-05
1.5259154230734097769e-05
1.534347275832012022e-05
1.5398561419930178719e-05
1.5419571758147289684e-05
1.5416094952397842047e-05
1.5400597441606527171e-05
1.5353796774626186694e-05
1.5218303818521439972e-05
1.508308456998429367e-05
1.5008172978173620326e-05
1.4979800439072076288e-05
1.4973116178150064462e-05
1.5000015778849142711e-05
1.5142696116824021368e-05
1.5347190954481685829e-05
1.5478255621966722464e-05
1.5550902996249072488e-05
1.5603940472037198373e-05
1.5685093293727608177e-05
1.5833878792509599871e-05
1.6052287083786608447e-05
1.3235237954165463828e-05
1.3217195496021625625e-05
1.3202922342874724346e-05
1.318507313211613301e-05
1.3171061683351195962e-05
1.315341437238116077e-05
1.3139499577544060902e-05
1.3122004082277077274e-05
1.3108093647115405962e-05
1.3090619915141126704e-05
1.3076799680278852138e-05
1.3059225192374735163e-05
1.3045427555899289556e-05
1.3027647537011306585e-05
1.301376992494010279e-05
1.2995633533903416668e-05
1.298194600709346488e-05
1.2963067208510633895e-05
1.5667902211341704977e-05
1.566190303248388442e-05
1.5646763631198326572e-05
1.5626060691595882607e-05
1.5613708579244525704e-05
1.5609978539796815557e-05
1.5641822687945909355e-05
1.5776009807377579252e-05
1.5928552911997647496e-05
1.6022144423274172051e-05
1.6059933341458725828e-05
1.6060237262883380666e-05
1.6043419663496196414e-05
1.5989772812540465301e-05
1.5888792075599985173e-05
1.5831168507734981861e-05
1.5811259443215695326e-05
1.5809890539184665584e-05
1.5863192468445454843e-05
1.6081267015528659495e-05
1.6321244112089522529e-05
1.6454353232816669493e-05
1.6499487087694897803e-05
1.6496414647404173228e-05
1.6479377631568044006e-05
1.6462701072471837608e-05
1.6460581480729027015e-05
1.3842436482411802652e-05
1.3823374867222076859e-05
1.3806293811075667945e-05
1.3787312686290792099e-05
1.3770417636311063037e-05
1.3751548883168767022e-05
1.3734444813075500269e-05
1.3715853225057463867e-05
1.3698661993919156434e-05
1.3680054356304672375e-05
1.3662945576772974558e-05
1.3644187123271935415e-05
1.3627200177196138796e-05
1.3608104653388381584e-05
1.359108348780121536e-05
1.3571911619920445645e-05
1.3554782426711864914e-05
1.6298359963472202467e-05
1.6271534624210255818e-05
1.6172711345140926948e-05
1.5968361793597380229e-05
1.5817332221836827094e-05
1.573315806863379105e-05
1.5700378701203061946e-05
1.5691832452196330199e-05
1.5716403993185232101e-05
1.5867149100121418685e-05
1.6194762643032924648e-05
1.6434699355046928856e-05
1.6567673814873945602e-05
1.6618449776276050719e-05
1.6624360486050141433e-05
1.6615272099616607465e-05
1.6606824031749106203e-05
1.661080539278168047e-05
1.6669977946235418301e-05
1.6848020012105832162e-05
1.6989875908048338493e-05
1.7049554532061602182e-05
1.7048969195391595942e-05
1.701742903953287086e-05
1.6888599404013817995e-05
1.6672287641785131756e-05
1.6556325928475145907e-05
1.4189919900077025e-05
1.4172786169620783011e-05
1.4149066470726685135e-05
1.4131992424727052437e-05
1.4108150560733723756e-05
1.4090996921443021535e-05
1.4067057113256921323e-05
1.4050005156458594452e-05
1.4025918770334008752e-05
1.4008959185926164994e-05
1.3984806938393361988e-05
1.3967848393623440829e-05
1.3943561654064911336e-05
1.3926640915583192424e-05
1.3898458825620089137e-05
1.3891156253977638335e-05
1.320843255772512868e-05
1.2998578570894960956e-05
1.2824364354660657385e-05
1.2691461528817212884e-05
1.2598579112600156299e-05
1.2540928734132214127e-05
1.2511430444552596754e-05
1.2499151546409368379e-05
1.249430269317909441e-05
1.2509414163516963537e-05
1.2591811654235002946e-05
1.2852608822620112408e-05
1.3166982923073886988e-05
1.3423905360403805474e-05
1.36205584562700584e-05
1.3765684768460404748e-05
1.3872258452227740683e-05
1.3947110217765390779e-05
1.3991022090062079728e-05
1.4003960781092861089e-05
1.3995943585888424203e-05
1.3972157320686869186e-05
1.3889001755898439417e-05
1.365233863521793755e-05
1.34034097731514055e-05
1.3230018261682585342e-05
1.3135708791733336236e-05
1.3103093829293921616e-05
1.1101299155057699379e-05
1.1081660121609495897e-05
1.1067679158793961174e-05
1.1047845566825274189e-05
1.1033732595603205719e-05
1.1013839076701043628e-05
1.0999757582210495087e-05
1.0979728017855199592e-05
1.0965811228570523881e-05
1.0945806374222148707e-05
1.0932009693375354195e-05
1.0912045122862120168e-05
1.0898357058389799055e-05
1.0875243130133156164e-05
1.0872236127841113177e-05
1.2424280535697028501e-05
1.2332985019863320004e-05
1.2246202982388056893e-05
1.2182600921839611562e-05
1.214195264356284515e-05
1.21203264815962888e-05
1.2110552585010329554e-05
1.2106911200721522193e-05
1.2122884958729201636e-05
1.2198640078430880037e-05
1.234733093571844701e-05
1.2492535757011463151e-05
1.2627331988255916385e-05
1.2746974886285449097e-05
1.2848909783045636801e-05
1.29317249251909533e-05
1.2992738105227200258e-05
1.3031177987094234681e-05
1.3046943557466966619e-05
1.3045400690316124798e-05
1.3035454851369760988e-05
1.301259337788266905e-05
1.294074828547583025e-05
1.2801728694549667506e-05
1.2694705659238771038e-05
1.2634689812916006225e-05
1.2612907159933708351e-05
1.0511388950382360627e-05
1.0498877901869298649e-05
1.0481657059389356624e-05
1.0469009110058254122e-05
1.0451707417069547689e-05
1.043910349946989557e-05
1.0421796107308272839e-05
1.0409404984787697546e-05
1.0392148831026270508e-05
1.0379940636244000494e-05
1.0362835008520071512e-05
1.0350771117897782301e-05
1.0331607607908177359e-05
1.0323810959489588214e-05
1.1802628361906208519e-05
1.1725219070944663578e-05
1.1676686206173263647e-05
1.1652497447480396835e-05
1.1643201726753738497e-05
1.1645095931492253477e-05
1.1689987998710694281e-05
1.181919912793163901e-05
1.1928988737402270094e-05
1.200332486917388509e-05
1.205263516144664935e-05
1.2089706047692998385e-05
1.2124962781630263178e-05
1.2164253310015742088e-05
1.2208731586739865187e-05
1.2254825157318399321e-05
1.2295668407674718631e-05
1.2324437672811954319e-05
1.2336411759646222764e-05
1.2333975359260358515e-05
1.2324014913452348914e-05
1.2298615592430524077e-05
1.222826785949863884e-05
1.2159195702763744471e-05
1.2124302376498339391e-05
1.2113352338808395159e-05
1.0113220119463685141e-05
1.0096907668969273481e-05
1.0084875815139484131e-05
1.0068465117834508529e-05
1.0056451006578220821e-05
1.0040084665276759947e-05
1.0028303865719271709e-05
1.0012003553440644853e-05
1.0000409620116372755e-05
9.9842806512661086009e-06
9.9727942963931428253e-06
9.9552128264274023818e-06
9.9466907504187668417e-06
1.122910340601877412e-05
1.1203208820718610011e-05
1.1191135768087046647e-05
1.1186172412547791479e-05
1.1201078200700347075e-05
1.1284744627176713865e-05
1.1430855602665337386e-05
1.1546063263115894135e-05
1.1624713316849678526e-05
1.1668392338781369161e-05
1.168445150344606581e-05
1.1685259347705816225e-05
1.1682978016266183148e-05
1.1687184231703572423e-05
1.1715694580602888135e-05
1.1772289545978829167e-05
1.181636897626632936e-05
1.1838882800931075268e-05
1.1840778114706523107e-05
1.1831920607033526475e-05
1.1806840742728113718e-05
1.1731534982660486949e-05
1.1654900427432946452e-05
1.1617960600410485501e-05
1.160761360705762827e-05
9.7143077571141457112e-06
9.7026817085915690887e-06
9.6867923470162965212e-06
9.6751908949624076522e-06
9.6593704208361825202e-06
9.6480104322791315936e-06
9.6322428726377340251e-06
9.6210401558262246868e-06
9.6054151231863229866e-06
9.5942668764092044756e-06
9.5771811241645625153e-06
9.5689577631953236621e-06
1.0764828712262516485e-05
1.0751641918050787585e-05
1.0746626447504020665e-05
1.0760732321774028007e-05
1.084289182502802014e-05
1.1000037615426830386e-05
1.1126177668202654511e-05
1.1214072532273774405e-05
1.126514969070158763e-05
1.1286176490724948067e-05
1.1288231015570316748e-05
1.1281949969000465688e-05
1.1275085621972592121e-05
1.1271699039229102524e-05
1.1280106989984714394e-05
1.1288194255490048156e-05
1.1286744765228870358e-05
1.127920390908923411e-05
1.1262474380568941845e-05
1.1208567842407769026e-05
1.1118239695152258635e-05
1.1057151256283512079e-05
1.1028305128953508278e-05
1.1019832312013879734e-05
1.0208423081492289342e-05
1.0211119137785758389e-05
1.0253818190637674463e-05
1.0401840059437584662e-05
1.0571229621940237369e-05
1.0702151963664364491e-05
1.0793696695162333937e-05
1.0847486677430460199e-05
1.0869440375716517971e-05
1.0871494037579203969e-05
1.0864194077467019769e-05
1.0852903016065186623e-05
1.0836936620731937072e-05
1.0825080686674671429e-05
1.0814171606351858615e-05
1.0800034329892291879e-05
1.077421116631685487e-05
1.0727068169907817948e-05
1.0677146592628631691e-05
1.0631465914552531028e-05
1.0597899729512790326e-05
1.0580033396545623838e-05
1.0573178330441575007e-05
9.8504596402211587019e-06
9.9565665284792726457e-06
1.011067228728266038e-05
1.0238986078263497798e-05
1.0336971628242404186e-05
1.0401172882198222791e-05
1.043414087551257004e-05
1.0443428287572880197e-05
1.0439415034523856482e-05
1.0430920899800189537e-05
1.0418322396867527952e-05
1.0408769676812258738e-05
1.0401843652574089749e-05
1.0397824820944025456e-05
1.0393273622724352409e-05
1.0386136057180438562e-05
1.0373649208969772968e-05
1.0340361819316948522e-05
1.0292809278358350773e-05
1.0264006799851086105e-05
1.0251842835348582323e-05
9.8487287700003347949e-06
9.9122009282402877062e-06
9.9541999312427700044e-06
9.9811475249586677097e-06
1.0000323757099873959e-05
1.0016587407675249272e-05
1.0031905954439481176e-05
1.0044341670045907789e-05
1.0051374049495098603e-05
1.0050607188498575652e-05
1.0044564451188989402e-05
1.0033498723056586327e-05
1.0002082753157969032e-05
9.9251253136276309602e-06
9.8589332934134665598e-06
9.822298289642111962e-06
9.8085485109379180822e-06
9.6150432294486888737e-06
9.6217464034093079295e-06
9.623067326697044255e-06
9.6203577925699020095e-06
9.6148906592742041993e-06
9.607906217729686644e-06
9.5975262978812319107e-06
9.5741179851015743591e-06
9.5227234711006982605e-06
9.4724829276947787214e-06
9.4337992906288321398e-06
9.4091554462081659763e-06
9.3974375488607449875e-06
9.277355406638963239e-06
9.2710789644865149525e-06
9.2629984444921574255e-06
9.2528779688024710492e-06
9.2446795637044284496e-06
9.2375383735085444322e-06
9.2298902041365399817e-06
9.2200111434445297757e-06
9.2016647949756526865e-06
9.1655354477053303732e-06
9.1336109087528270724e-06
9.1137465673421290218e-06
4.8472550445209669034e-06
4.8442285958805472878e-06
4.8433327123413813203e-06
4.8429676511794046657e-06
4.8442673045797511919e-06
4.8520165993934299205e-06
4.8812878643860600254e-06
4.9818293339861308892e-06
5.2494312132469394549e-06
5.5189769537021646402e-06
5.7079304645552271204e-06
5.814814360587689459e-06
5.8551461448268224812e-06
5.8585093839806055431e-06
5.8471504689761859912e-06
5.7975320342026576359e-06
5.635312465379542622e-06
5.4444397757951706993e-06
5.3072941883163969593e-06
5.2226836591945847529e-06
7.2842446514951025572e-06
7.2673284351277602961e-06
7.2592382240010990793e-06
7.2535935871732767086e-06
7.2494097293072582686e-06
7.2492572005858545251e-06
7.2646574007718957595e-06
7.329300278467207089e-06
7.5418521136724340335e-06
7.8442003965743785045e-06
8.0814251287082490598e-06
8.235104201136397327e-06
8.3093187216587907217e-06
8.3275314235532934133e-06
8.3215828849043417537e-06
8.2952912450327966038e-06
8.1942898190638417883e-06
7.9473104795531460999e-06
7.723525103506623051e-06
7.5646797662479640749e-06
7.4661658986629823707e-06
7.4146944972992374418e-06
1.3271426031890525322e-05
1.3265979250241856312e-05
1.327829004497144968e-05
1.3325694848589079338e-05
1.3359270558551139213e-05
1.3378120973152542617e-05
1.3409283017635272383e-05
1.3487962042180729329e-05
1.3676391464232283957e-05
1.3901523882665500905e-05
1.410010523792930626e-05
1.4237284240774817083e-05
1.43045376043659475e-05
1.4320756075405044564e-05
1.4312313328329710353e-05
1.4289594379920892095e-05
1.4218887063637485161e-05
1.4024786341589298889e-05
1.3813325842342661981e-05
1.3661938992070559115e-05
1.3577033360497162262e-05
1.3540819573383950481e-05
1.3525621265247805518e-05
1.3520423415012365931e-05
1.3539600493488899711e-05
1.3568548836653956339e-05
2.9972384155364515307e-05
3.0186814240703584064e-05
3.0445105550162777832e-05
3.062982353097432487e-05
3.0778171974689394735e-05
3.0934104920971025924e-05
3.1135915498648474465e-05
3.1402059338337034511e-05
3.1715492752951056018e-05
3.2024989133101187694e-05
3.2269609151097482496e-05
3.2413399323427232986e-05
3.2458345861950075326e-05
3.2445658373394198695e-05
3.2406974586832637455e-05
3.2296661230351652141e-05
3.2048877282912122632e-05
3.1843845952996807625e-05
3.1727567178135284982e-05
3.1678151864513657806e-05
3.166231606298907709e-05
3.1674063047274766481e-05
3.1775469489449094189e-05
3.1935812807753088157e-05
3.2054357226615748638e-05
3.21532338626130741e-05
3.2266503463919235419e-05
3.2412873341714838098e-05
6.2845985920191785984e-05
6.3020069617087461382e-05
6.3163105818156827106e-05
6.3277343021244666183e-05
6.336914855146914946e-05
6.3454990794558491229e-05
6.3545827447970969931e-05
6.3640131448542718224e-05
6.371891096462833188e-05
6.3761195016175478169e-05
6.3756712866804531037e-05
6.3721069485381826177e-05
6.367020542822275067e-05
6.3593960732474572148e-05
6.3441950665551899717e-05
6.3253165580883476062e-05
6.3095281749781496569e-05
6.2983732790465544863e-05
6.2915302894171295698e-05
6.2876219459954074079e-05
6.2856378065225863524e-05
6.2890920613345541678e-05
6.2958993296807180926e-05
6.300708357583996238e-05
6.3044805019052613856e-05
6.3076887042721628204e-05
6.3098392582452885726e-05
6.3104118647319695518e-05
6.3088639685766233689e-05
6.3052359006156432773e-05
9.1914646126867952797e-05
9.1758821240112004567e-05
9.158810890207677352e-05
9.1405510211997145786e-05
9.1216946871179759222e-05
9.1026325057621748573e-05
9.0831489398679538991e-05
9.0624447374313042377e-05
9.0395750523169008089e-05
9.0140741700766655454e-05
8.9863577284415599943e-05
8.9576021657550655448e-05
8.9292727791000654205e-05
8.9027022665288618286e-05
8.8787528130559808409e-05
8.8577528089049149883e-05
8.8395645235528726635e-05
8.82353029356037241e-05
8.8086593111752497804e-05
8.7938528323386786173e-05
8.7782851303340464358e-05
8.7616079414532454725e-05
8.7439107004102763557e-05
8.7255250031951811875e-05
8.7067392446453235454e-05
8.6876697116358955254e-05
8.6680424671718936608e-05
8.6473841157550510907e-05
8.6251508486842812652e-05
8.6011729115580682595e-05
8.5757773150276032101e-05
8.5498204577330770494e-05
0.00010572310696040359158
0.00010539997002996530004
0.00010507834122312966635
0.00010475637613352143534
0.00010443554550576960996
0.00010411773532882404145
0.00010380328514675227485
0.00010349112664253790311
0.00010318031563938752273
0.00010287244348036910023
0.00010257151871477204036
0.00010228101351911848805
0.00010200110070842417244
0.00010172831393993002737
0.00010145814513899544353
0.00010118866580431148526
0.00010092120172230440627
0.00010065792194538291998
0.00010039940450208312706
0.0001001435580433080217
9.9887505113258241458e-05
9.9629764866516034162e-05
9.9370915169282646802e-05
9.9113122709896034541e-05
9.8858279736308777696e-05
9.8607538753204483271e-05
9.8360280321066259211e-05
9.8115864001133040501e-05
9.7872716784162420772e-05
9.7630884112159932301e-05
9.7392323586826867526e-05
9.7160393869150210632e-05
9.6936990968645570226e-05
0.00014059037097236250983
0.00013974790223855157239
0.00013892119018146838606
0.00013811661582042213938
0.00013733764277486007455
0.00013657830047582078504
0.00011084254872582274863
0.00011051177472449434094
0.00011018506131723057931
0.00010986193921395237668
0.00010954469910117708834
0.00010923560744499490559
0.00010893464688900778492
0.00010863923484607966379
0.00010834734756970737448
0.00010805958371271060284
0.00010777865532224488465
0.00010750632981680556381
0.00010724079320482018225
0.00010697773781521775131
0.00010671416690040058596
0.00010645060494475394358
0.00010619034617972817843
0.00010593641105072211614
0.0001056890922621082831
0.0001054457616768313794
0.00010520351282764756431
0.00010496131920592718012
0.00010472131877311561317
0.00010448641104460007912
0.00010425862414732025673
0.00010403799991777431969
0.00010382196888725493916
0.00010360688701881309317
0.00010338950051715553569
0.00010317005334423373728
0.00010295101070546423599
0.00010273618232372560253
0.00010252817010216106722
0.0001023261734927061455
0.00013549084968380540337
0.00013462199547360090084
0.00013376522562594738656
0.00013293082676817718417
0.00013212607197641182519
0.00013134851137175233317
0.00013058656859325014658
0.00010613945131110313479
0.00010592957184865804806
0.0001057165388915204667
0.00010550416155660374579
0.00010529664029383528916
0.00010509310883524769031
0.00010488819837152744561
0.00010467731092172884806
0.0001044602340919323206
0.00010424061872910014544
0.00010402084847323495953
0.00010379806531118286497
0.00010356648568035128736
0.00010332339828253310672
0.00010307358503270386166
0.00010282612900657737412
0.00010258771448909310574
0.00010235784248689944013
0.00010212983176508205968
0.00010189670264247689116
0.00010165629054577000987
0.00010141288591853884354
0.00010117216901361260751
0.00010093696849583403774
0.00010070540419596504735
0.00010047207511816919523
0.0001002322581778517088
9.9984557411867907672e-05
9.9733176381812084976e-05
9.9486184107769315681e-05
9.9252217694096260938e-05
9.9033760440320330954e-05
9.8826904829282211399e-05
9.8623533798745786514e-05
9.8417126443486841825e-05
1.0348047933313393019e-07
1.0328446667886922968e-07
1.0309130963321791826e-07
1.0295077576045426627e-07
1.0281557906883566153e-07
1.0271999863653152403e-07
1.0262991581007342812e-07
1.0253044385410694079e-07
1.0244762007584073926e-07
1.0236133385795191942e-07
1.0220724356984265073e-07
1.2627612249594284548e-06
1.3545932055211924364e-06
1.4366398693159022413e-06
1.4781243028383211523e-06
1.4902135139513240239e-06
1.4887578696631609381e-06
1.4744354086410939641e-06
1.4182332901799253469e-06
1.3526627355786586167e-06
1.3155234296323123331e-06
1.3019692722498066498e-06
1.3005576101772853256e-06
1.3068208303774801186e-06
1.340624389004632406e-06
1.3926896190861921204e-06
1.421026583702181637e-06
1.4286489392337996626e-06
1.426514569625357474e-06
1.4115389397904042038e-06
1.3817096755217084386e-06
1.3696257346728511562e-06
1.3699321553205412697e-06
1.3913256366152226386e-06
1.4916365123489923259e-06
1.6813479286813498142e-06
1.8030790700066683043e-06
1.8612310911543972563e-06
1.8769635232273806097e-06
1.8753871064822680526e-06
1.8666492211803394379e-06
1.8628128216961558439e-06
1.8706330308629752675e-06
1.9271270366335950113e-06
2.0867184627147197502e-06
2.2047039306744155777e-06
2.2519207079790420075e-06
1.1139879300428017064e-07
1.1125751558208277874e-07
1.1108731028289568374e-07
1.1089073382687371638e-07
1.1068121725475535301e-07
1.1046176496315062038e-07
1.1023395473930218656e-07
1.1000252338565856028e-07
1.0976127242865287478e-07
1.0953646092726505614e-07
1.0930278840090095335e-07
1.0911022851193111816e-07
1.089263913619088236e-07
1.0879215917720513585e-07
1.0865866484981205493e-07
1.0856016907367159546e-07
1.0846848216509884824e-07
1.083685070906148245e-07
1.0829119660053889146e-07
1.0820768194932284902e-07
1.0805501242921134178e-07
1.3049244730630465028e-06
1.4016201843909660621e-06
1.4817170838281713922e-06