/*--------------------------------*- C++ -*----------------------------------*\
  =========                 |
  \\      /  F ield         | OpenFOAM: The Open Source CFD Toolbox
   \\    /   O peration     | Website:  https://openfoam.org
    \\  /    A nd           | Version:  12
     \\/     M anipulation  |
\*---------------------------------------------------------------------------*/
FoamFile
{
    format      ascii;
    class       volScalarField;
    location    "0.009";
    object      p_0;
}
// * * * * * * * * * * * * * * * * * * * * * * * * * * * * * * * * * * * * * //

dimensions      [1 -1 -2 0 0 0 0];

internalField   nonuniform List<scalar> 
106891
(
100641.59490885466221
100621.35749802114151
100602.22195462910167
100585.40608411717403
100571.76190115493955
100561.65064333511691
100554.99585948845197
100551.2903490785975
100550.04888371370907
100550.43586467111891
100552.01957181522448
100713.07097734283889
100695.77609001127712
100690.15039533934032
100696.63095230214822
100710.082304499374
100723.79845542291878
100732.39892185402277
100734.45744443192962
100732.10738016858522
100728.93243320386682
100727.85826143441955
100728.36772726976778
100727.49984806665452
100723.43455329246353
100717.84388661749836
100716.15773473442823
100722.87983933635405
100737.48576695402153
100753.18205105540983
100761.81641697678424
100758.83513096388197
100747.22834181896178
100735.67324625166657
100733.8493491474801
100747.01539115377818
100774.42410540929995
100810.83307208062615
100848.37637522821024
100879.49308954270964
100899.18554109372781
100905.9765798868757
100900.80546128055721
100885.8840699660359
100863.62312731158454
100836.22798378128209
100806.35290357882332
100777.88185114295629
100755.25619847992493
100715.46330756942916
100709.04338909999933
100701.63522705581272
100693.23320178342692
100683.56215307273669
100672.22835064333049
100658.92857726159855
100643.63843764332705
100626.73367423019954
100608.98190161702223
100591.44076654700621
100575.25354018426151
100561.41662026423728
100550.56722286915465
100542.8680389871588
100538.04059988932568
100535.36099338458735
100534.17773861909518
100533.57280271906347
100533.11639413627563
100700.08730630883656
100689.54803836223437
100690.61355002822529
100701.45836657844484
100716.97326739801792
100731.28198653565778
100740.67430835866253
100743.91191398912633
100742.64917970284296
100739.20287416533392
100734.94563324663613
100729.75273115973687
100723.89131884954986
100719.87392276593891
100721.44978063247981
100731.37958499707747
100747.22776332247304
100762.29834899453272
100769.33618404202571
100765.57022279310331
100754.7792037074978
100745.53938921066583
100746.54716992008616
100761.82377029648342
100789.22663052375719
100822.65285394595412
100855.15927636626293
100880.84673268122424
100896.44756172488269
100902.11033463847707
100899.43127858436492
100889.91652874923602
100874.68134088521765
100853.96620873303618
100829.14938118048303
100803.35479400887561
100670.01981109811459
100664.82443343230989
100658.68847338910564
100651.50572346035915
100643.0244323319348
100632.96848030781257
100621.22079492014018
100607.95480162276363
100593.68137990079413
100579.19716685160529
100565.44562118629983
100553.31033981249493
100543.44560030002322
100536.11807077050616
100531.13209065199771
100527.93593352960306
100525.61864210698695
100523.44605573160516
100520.570214413965
100516.72514995343226
100712.72269293574209
100697.21378140195156
100691.31656914589985
100697.5841848426353
100713.37836803977552
100733.19723214390979
100750.27439474021958
100759.81187711682287
100760.52406237275864
100753.84732764717774
100743.45555636023346
100733.25903687565005
100726.41186261446273
100725.77725278875732
100732.94363040056487
100747.29348555591423
100764.37017817130254
100778.65397261976614
100784.93584639781329
100782.45378128447919
100775.49515990048531
100771.10573456595012
100775.3842473331315
100790.58989488423686
100814.05293199101288
100840.2413921206462
100863.9356139308511
100881.14811787233339
100891.01771860430017
100894.29228205964318
100892.61653117681271
100887.44886104633042
100878.78155545813206
100865.81890754943015
100848.82049583128537
100829.65971485504997
100615.30323028351995
100611.36080801149365
100606.63820417835086
100600.73798602640454
100593.36763923463877
100584.48559878759261
100574.40007925379905
100563.75028566400579
100553.36287875765993
100544.06278365703474
100536.46679919284361
100530.85662023571786
100527.09216855067643
100524.59240297292126
100522.53090235016134
100519.86928466313111
100515.87462450198655
100509.89098378476046
100501.93272808367328
100713.27031624996744
100702.4588218571007
100704.02028652603622
100718.23292878914799
100740.61271087861678
100762.4707883959054
100776.14958167196892
100777.81622084361152
100768.1840376911714
100752.87847559906368
100739.24288286850788
100733.13355796028918
100737.29087305496796
100750.77364199102158
100769.40450698712084
100787.91699585851165
100801.78804722789209
100808.86894886863593
100809.94548729935195
100808.97604694582697
100810.43712098064134
100817.15939357955358
100829.85911580841639
100846.34005130047444
100862.92650005115138
100876.16155382497527
100884.17590416432358
100887.37494776704989
100887.09101522603305
100884.63894827314653
100881.44765038396872
100877.51217603933765
100872.25220851536142
100864.48009026584623
100565.61674415136804
100563.40799903910374
100561.87594751565484
100560.30672581486579
100558.01071934563515
100554.51585429642
100549.70631432614755
100543.86774063982011
100537.63315548216633
100531.8068219521374
100527.10967018216616
100523.93522284286155
100522.22229652425449
100521.45537813333794
100520.75281592682586
100519.11101328050427
100515.44805704581086
100509.1170485279581
100499.74478204206389
100487.65012907875644
100736.09797855155193
100724.68164441059344
100723.35733294031525
100734.46965031904983
100754.49523279682035
100775.77948230848415
100789.76206657972944
100791.22294047498144
100780.46250314517238
100763.73356292961398
100750.00508915935643
100746.53449547270429
100755.45678510503785
100773.73431167767558
100795.05310788979114
100814.52259158022935
100828.97273984162894
100838.45284165540943
100844.87669748107146
100850.64759320914163
100857.32198615507514
100865.48773791216081
100874.4642280995904
100883.22368470906804
100890.24484712138656
100893.61530449675047
100893.41344341532385
100890.05205514558475
100885.2592454241676
100880.93068280834996
100877.95117388275685
100876.62834840342111
100876.59146632293414
100515.6295975780522
100515.44280732588959
100516.42216307105264
100517.62357415590668
100518.32013781025307
100518.15731462585973
100517.20421760712634
100515.89234985079383
100514.82040277450869
100514.50734809415007
100515.15791246303706
100516.52284973180213
100517.90538152615773
100518.27578780971817
100516.55476643894508
100511.69490714865969
100503.17153452793718
100490.87686356491758
100475.33038905786816
100753.94113472441677
100752.02292933905846
100758.85496747745492
100772.89491553981497
100789.23226181250357
100800.44198217839585
100801.36656784746447
100792.20203561705421
100778.15975507623807
100767.68012073524005
100767.76891165258712
100779.65370060708665
100799.39438220841112
100820.91618330225174
100840.30858678343066
100856.29648309510958
100869.49883308380959
100881.37556915084133
100892.8219841960381
100903.45325505956134
100912.31925341561146
100918.15521385749162
100921.12516406443319
100920.73534641449805
100916.53455257989117
100909.60292369917443
100901.1492842600419
100892.91127292826422
100886.71298570538056
100883.60973890937748
100883.62920664745616
100885.58628475680598
100477.71266913035652
100477.30397316810559
100479.39546586220968
100482.981630432987
100487.12663977871125
100491.19140190030157
100494.91111234285927
100498.33725017806864
100501.68893177018617
100505.18534166963946
100508.8586560995027
100512.40807936618512
100515.17727474657295
100516.2067403706169
100514.50110373720236
100509.11901176930405
100499.59205751170521
100485.91146975649463
100468.5683242338273
100781.48564467468532
100786.05744519973814
100795.04348728967307
100805.5706834566663
100813.03830044876668
100813.58704014244722
100807.29471580749669
100798.09944476252713
100792.46011819283012
100794.86133636131126
100806.1062522867287
100823.23844381974777
100842.67750089945912
100860.98429086379474
100878.37651555769844
100895.7814620899735
100913.22741151339142
100929.4433841555292
100942.95470099388331
100952.34893460496096
100956.53273230558261
100955.38490447575168
100950.12646783977107
100941.40279350124183
100930.26485519674316
100919.11671404480876
100910.03074311288947
100904.20636831877346
100901.91467320290394
100902.10853995592333
100449.34002368307847
100450.61591534293257
100454.69452659753733
100460.6546705927758
100467.62300051207421
100474.91764868004248
100482.09458077646559
100488.92083592864219
100495.29360864043701
100501.10954857351317
100506.131276664295
100509.90853532552137
100511.7349014635256
100510.82855515954725
100506.37284308880044
100497.84426887783047
100485.13204315723851
100468.48235563466733
100811.11013684915088
100820.35875589924399
100828.79093072394608
100833.67725601635175
100833.0784522126487
100828.33566051466914
100822.66488026060688
100819.77148234419292
100822.36334575329965
100830.58304836066964
100842.82300626063079
100857.24598182299815
100873.31217524269596
100891.1833391655091
100912.03242201107787
100935.00712892018782
100956.90748958491895
100974.4795645751874
100985.74021060408268
100989.52024394270848
100985.76978598028654
100975.93496875739947
100963.10196266497951
100949.56969615272828
100938.12500338176324
100930.56045178278873
100928.11957785098639
100929.06857385774492
100431.68662361950555
100430.78466619415849
100433.64587693524663
100439.44392535644874
100447.17664410396537
100455.87313478990109
100464.74161049535905
100473.22589284292189
100480.98356515759951
100487.82913430832559
100493.63351087548654
100498.20499816533993
100501.1565590458631
100501.95513751859835
100499.90894538609427
100494.40505286584084
100485.10681955375185
100471.84222889784724
100850.79015319830796
100859.70924977875256
100862.19560121264658
100859.75085832538025
100854.55607091158163
100849.50338401793852
100846.96340624180448
100847.55932953178126
100851.1557411357353
100857.4012558417744
100866.75006130080146
100879.50663068948779
100897.29986503857072
100920.09981786705612
100947.16268531464448
100974.50840001062897
100996.70892694569193
101010.17789434980659
101013.86181660660077
101008.39441078687378
100995.79362946095353
100979.8544548535283
100964.72178342333063
100953.74687444149458
100948.5010921297071
100949.12292009523662
100953.15347601301619
100420.64919628071948
100421.89002837346925
100426.30856558923551
100432.85750212369021
100440.45123976870673
100448.19617241925152
100455.51330156189215
100462.15669333479309
100468.12632150875288
100473.51345233662869
100478.38568987938925
100482.60487040354928
100485.77924644446466
100487.23251527856337
100486.17767659925448
100482.03602448763559
100474.27264211706643
100863.94964595724014
100884.56381166768551
100893.0151637627132
100891.71065618614375
100885.6130287052365
100878.93350576268858
100873.42737532152387
100869.7373791688733
100868.70093788389931
100870.1033415494021
100874.23710905258486
100880.49354754629894
100890.50927766224777
100904.92310342319252
100925.23933949730417
100950.00406310797553
100976.15414910357504
100999.0858434818656
101014.36649824480992
101020.26669879980909
101017.0298374563281
101007.04273860270041
100992.96724219234602
100979.07196833155467
100968.21367481864581
100963.00110966908687
100963.26719501869229
100421.54611168254633
100424.86556654032029
100429.34839940910751
100433.95829751958081
100437.95704864569416
100441.06952199488296
100443.48958014544041
100445.74086365675612
100448.45304657304951
100452.12340173742268
100456.8551194339525
100462.29027735714044
100467.63101080132765
100471.78224530498846
100473.77046425902518
100472.67737067773123
100893.08202610441367
100913.79174992517801
100917.99820549688593
100910.68644854797458
100899.80618459702237
100891.02849064854672
100886.88416437020351
100887.03371321414306
100889.97210553631885
100894.74036051078292
100899.97800380497938
100905.4704070649459
100911.35348911199253
100919.14351512186113
100929.57956028210174
100942.64741563121788
100957.79219378367998
100974.06688561641204
100989.03680599594372
101000.58990160630492
101007.84445813947241
101008.8813262929616
101003.84144267142983
100994.10544058404048
100983.66521322984772
100975.38365055754548
100969.76257619728858
100967.16393482916465
100434.51203681059997
100437.82896450297267
100439.4627881978231
100439.09233029167808
100436.98936448142922
100433.96643321613374
100431.17028781420959
100429.77710580296116
100430.69560894557799
100434.28026071922795
100440.23803290659271
100447.67836676070874
100455.26007312670117
100461.69792306605086
100465.80115015560295
100936.39694110765413
100935.54683119156107
100922.86109762880369
100908.04787968430901
100898.36947471658641
100897.31371358736942
100903.05717791739153
100911.92311653998331
100920.96485783818935
100928.06644406040141
100932.78212000793428
100935.05592742926092
100935.7152764195198
100934.9798038660665
100934.29119019584323
100936.00465610431274
100942.58007668597565
100955.06002647166315
100972.42954982662923
100990.58825656681438
101003.60388764964591
101008.21906706597656
101004.34226236604445
100994.8349554202141
100983.1060543419153
100971.72612446041603
100961.30024814693024
100449.59521065437002
100449.14435980039707
100445.48548083507922
100439.42674126490601
100432.29029710951727
100425.64876640577859
100420.99671620821755
100419.42482679872774
100421.36363257859193
100426.53114546785946
100434.0402759307035
100442.53454997428344
100450.67447996068222
100457.22017950635927
100949.03877940020175
100933.33781587918929
100916.76332810509484
100908.47404690110125
100911.479267035058
100922.71765021140163
100937.03659159480594
100949.09443157572241
100956.71478839912743
100959.41215577398543
100957.85800001279858
100952.00160646319273
100941.51040868202108
100928.3526410843333
100916.68184972753807
100912.90920910830027
100921.68107772461371
100942.63475954382739
100969.135863434567
100992.49593315429229
101005.86456043466751
101007.06377001589863
100997.96815556507499
100983.48660655847925
100967.29400643199915
100950.23462155913876
100460.14542820262432
100454.43444927736709
100445.95577115603373
100436.35880318775889
100427.42436797860137
100420.69508878039778
100417.20541991433129
100417.31083984488214
100420.6930234839092
100426.52901516042766
100433.6270028467261
100440.86540284742659
100447.23780981193704
100945.59542818748741
100931.50997667391493
100926.21210723934928
100932.29529233324865
100946.68687707619392
100962.42265662226418
100973.71294134386699
100978.45270156495098
100977.83290804116405
100972.94147886757855
100963.25792377350444
100947.5228012954758
100926.56998969026608
100905.99215584731428
100894.26024613052141
100898.49553895280405
100919.20573145600792
100949.32486974744825
100977.96617369596788
100996.30859573381895
100999.72861129383091
100990.53856180622824
100974.29640354203002
100954.97970150696347
100933.81390484055737
100463.21095713866816
100454.26923883605923
100444.34216205176199
100435.08769522453076
100427.81674907421984
100423.30384825669171
100421.72475596050208
100422.72638781319256
100425.6290574552113
100429.54009352516732
100433.74218896323873
100437.69814899189805
100954.24904435564531
100952.93037324129546
100960.18719225934183
100972.70964730963169
100983.78046586984419
100988.78235313628102
100987.84458630798326
100983.42533578067378
100977.26718995034753
100967.92111025401391
100952.41677791065013
100930.38396923844994
100906.61701556749176
100890.07151390996296
100889.23432782271993
100905.89576998802659
100934.08204594680865
100962.34515013104829
100980.46333599060017
100983.31801231781719
100973.28788223786978
100955.61705216865812
100934.54466346629488
100911.92541370469553
100986.92619681739598
100992.07812703405216
100996.6997133299883
100996.94276467300369
100991.72208236224833
100983.419202461635
100976.14289194766025
100971.47915077155631
100966.15087928125286
100955.65832655677514
100937.94797606061911
100916.3765505226329
100898.55512749409536
100892.92140542955894
100903.13346902413468
100924.7439201118832
100947.62959236104507
100961.35563056850515
100961.31974716360855
100949.30523239697504
100930.18376272293972
100908.69247488044493
100886.79464873803954
101014.44871140542091
101000.48018250588211
100983.31413090910064
100968.05988869510475
100959.35079035170202
100957.83084531134227
100959.25348840325023
100957.27907653192233
100947.38727169550839
100930.85741856716049
100914.13506268597848
100904.86711532218033
100907.72738136624685
100920.34362334576144
100935.09669750604371
100942.27882031233457
100938.23899776990584
100923.82353709723975
100903.24413491028827
100881.33302746326081
100861.08552967956348
100937.26583922955615
100940.64445226307726
100950.08425107598305
100957.51928312102973
100956.05721389317478
100945.51294602733105
100930.79448510686052
100918.86998782835144
100914.82441549595387
100918.35767531688907
100924.11368216396659
100924.82573924791359
100916.76136848327587
100899.90481272293255
100878.15379268789547
100856.37279374343052
100837.5244304692751
100961.99320736055961
100956.44180488985148
100943.25396235442895
100929.11189558499609
100919.32236069394276
100915.29630123024981
100913.68304243461171
100909.47035529243294
100898.27785181974468
100879.88032145192847
100857.83690328399825
100836.28825578354008
100818.54658348709927
100960.80966862231435
100948.38403513705998
100932.29370837697934
100918.25136888046109
100908.91978074937651
100902.3727274567791
100894.8016865226673
100882.26565009049955
100864.17040874929808
100842.86293793651566
100822.16244575685414
100805.43406582598982
100687.46900399208243
100720.91758923538146
100748.6238064133795
100764.1994393786299
100771.12823681390728
100778.85589261591667
100791.04477285934263
100805.47122201943421
100815.18104799304274
100817.82142200745875
100819.17344687148579
100826.77344717711094
100842.64965091874183
100862.86978409768199
100881.45978119067149
100895.14297330309637
100903.49628489544557
100907.35158269514795
100908.46317028273188
100909.56581202839152
100652.73938662129513
100681.73719960733433
100714.8171664319816
100742.33971759554697
100759.52289796198602
100770.79398461405071
100784.46144259895664
100802.2363252256182
100818.80083379958523
100827.47993663960369
100827.06276462122332
100825.02010721727856
100829.7972993330186
100843.33568282809574
100860.64147778273036
100875.32918959071685
100884.70769886707421
100889.96377595899685
100893.78687702440948
100898.49705944537709
100905.1265312878968
100912.78205998169142
100614.7964319720777
100627.65855464625929
100647.53790550562553
100676.53626013905159
100709.01093984475301
100736.02529795108421
100754.8642563313042
100770.7568061183847
100790.00470978327212
100812.99846642480406
100831.80343071332027
100839.12931376966299
100835.66881428203487
100830.08084885121207
100832.0942247089697
100843.33620266750222
100858.02238313233829
100869.40016183254193
100874.91304177702114
100877.40757697098888
100881.27545145452314
100889.20136678402196
100901.28061375964899
100914.25855632391176
100922.47091725603968
100921.0153749033052
100599.94861684829812
100611.18624022167933
100623.12055966666958
100642.93277053323982
100671.81173126425711
100703.38547023686988
100730.08901822014013
100750.46452457737178
100770.52332008260419
100795.23785896069603
100822.9670581491082
100844.11769320875464
100850.07247232779628
100843.37641590299609
100834.38089826761279
100833.71062875576899
100842.97133918030886
100855.66251711919904
100863.99376959040819
100866.19336274979287
100866.10946677750326
100869.97109074643231
100880.8699524756521
100897.82283163721149
100915.7666962507501
100927.18415063059365
100926.27770609792788
100913.3561524215329
100583.92087858500599
100598.51191914154333
100608.38893955790263
100619.42861412183265
100639.05502781154064
100667.71477681446413
100698.60595962314983
100724.77095045630995
100746.7132084791665
100770.05815379490377
100800.14352027616405
100832.15065754044917
100854.68473605421605
100859.635204617196
100849.86928381946927
100837.78236227143498
100834.59575373100233
100842.37763028639893
100853.4378359207476
100859.51232042371703
100858.5823000606033
100856.40927618450951
100860.04854009640985
100873.5295716151013
100894.88922105204256
100917.30396266623575
100931.45651278292644
100930.85778280677914
100916.48347308118537
100897.53322455989837
100564.90902473154711
100583.11833427082456
100597.37112571083708
100605.98322890236159
100616.24359614420973
100635.61367957309994
100664.19359009129403
100694.57060595481016
100720.51391071765102
100743.14051625791762
100769.8098078421026
100804.17281427535636
100839.93706006288994
100864.29503617862065
100867.85427585760772
100855.2831186845433
100840.29926561450702
100835.0749915005872
100841.76133395936631
100851.75721246404282
100855.78456633180031
100852.51577744017413
100848.1538792931533
100851.61609435371065
100867.24722754173854
100892.49407408830302
100918.68165016385319
100935.39907157498237
100934.79043103616277
100918.72903869667789
100898.05058423636365
100885.84178958118719
100563.22074120430625
100582.88291315249808
100596.88388675324677
100604.38979810151795
100613.89903584273998
100633.143589835483
100661.56508064929221
100691.77705103771586
100717.23268435933278
100740.28713249159046
100769.38507575933181
100807.36951854360814
100846.30645199230639
100871.71586020514951
100874.31073420721805
100859.30472522311902
100841.89431149192387
100835.24145111207326
100841.1394679328514
100850.43991220244789
100853.17270575996372
100847.79695669880311
100841.83428110415116
100845.02669660441461
100862.24470386480971
100890.59600567037705
100920.04262715431105
100938.69020339587587
100938.3845493443514
100920.74130442220485
100898.37870526692132
100885.63822539716784
100889.75801455143664
100786.32283324647869
100776.04600560509425
100763.91041155726998
100763.73263825396134
100783.15647640623502
100805.52168495825026
100562.08356035270845
100582.8146461664146
100596.62853505929525
100603.27573092967214
100612.26258100492123
100631.41252256045118
100659.86194706390961
100689.89742138428846
100714.95988256609417
100738.25764910224825
100768.82654220797122
100809.51403731462779
100850.87975589898997
100876.99362791243766
100878.86665324884234
100862.02459672503755
100842.91667284011783
100835.17310430762882
100840.65060884095146
100849.66989594363258
100851.49233174836263
100844.5894054301607
100837.47859993355814
100840.38810158858541
100858.74126671529666
100889.28533748643531
100921.11500399198849
100941.07512194482842
100940.65025043845526
100921.89807487772487
100898.18351398062077
100885.07444797454809
100889.884153607185
100906.59602932093549
100786.91795431921491
100785.95676842848479
100774.69865702786774
100762.24992421225761
100762.70854823738046
100783.71318623088882
100807.53817284859542
100561.57498380607285
100582.89945259880915
100596.58439673566318
100602.72782537984313
100611.44435900222743
100630.51992150655133
100659.14070472551975
100688.99419713561656
100713.86350457833032
100737.25512892511324
100768.44007012184011
100810.68314067491156
100853.42795724429016
100879.78432402413455
100881.17178994639835
100863.31627861681045
100843.23993046143732
100834.92081321236037
100840.39097212662455
100849.38089138457144
100850.68119987520913
100843.01417549136386
100835.19463516464748
100837.99395555027877
100856.96997304202523
100888.640749818529
100921.88218623958528
100942.51498943270417
100941.87518798709789
100922.48357995954575
100897.98317537253024
100884.74605679934029
100890.00610987226537
100907.42993474270042
100921.19777938247717
100684.05514282044896
100661.66257554502226
100640.2995340438938
100622.72251498348487
100610.89531980083848
100605.67470690207847
100606.77933717361884
100612.80169889515673
100621.76488061330747
100631.09817150258459
100638.73023272264982
100848.2993020992144
100861.63782113968045
100860.83147486948292
100844.91825707019598
100816.32298052804254
100780.14644213869178
100744.55626880850468
100717.79708381932869
100705.64139507150685
100708.27457292155304
100719.20688636762497
100728.54540192900458
100728.74046560814895
100718.02785608067643
100700.86359696355066
100684.09127726392762
100672.1058652807842
100666.67253997802618
100666.70394263599883
100671.85651139955735
100683.16845347687195
100701.06409248309501
100723.96553576753649
100749.12054104240087
100773.30736976728076
100795.09056424057053
100815.098380486932
100834.35855713341152
100853.12567871353531
100869.42899233973003
100880.51665316423168
100883.96309422091872
100878.99145497752761
100867.28728042797593
100851.74093501537573
100835.20910125608498
100704.78473670037056
100698.06905048720364
100695.72307448113861
100696.80330201913603
100699.33640162821393
100700.80132910574321
100698.76153412273561
100691.48374224909639
100678.40656067965028
100660.31931936866022
100639.18905564399029
100617.71602133169654
100598.73306659352966
100584.64094177115476
100576.91930859374406
100575.83237995013769
100580.44688699507969
100588.73065289057558
100598.26035466275061
100606.3569779243262
100611.14765503550007
100826.67553395337018
100845.32270486860943
100851.0678890877025
100841.09070121389232
100816.72709867834055
100783.1714766639052
100747.87266594456742
100719.01266147788556
100702.85528283809253
100700.97726727077679
100709.13291549331916
100719.50645674805855
100725.38554267444124
100724.14807440216828
100717.80078719336598
100710.61456812186225
100706.2784903744614
100706.5694344775402
100711.01164487014466
100719.11411530556506
100730.67473471342237
100744.6266359535075
100759.17482157656923
100772.47191195104097
100784.38032756166649
100796.91292754691676
100812.69990800252708
100832.76059084828012
100854.68339003356232
100873.78019769306411
100885.23396100176615
100887.1741178434313
100881.3895181807311
100871.89621473716397
100863.22066909950809
100857.06828205045895
100692.0505577839649
100685.18279177305521
100680.49247832864057
100677.36551398120355
100674.4953376858175
100670.20087643370789
100662.89045387532678
100651.53179775267199
100635.99091060934006
100617.15213071895414
100596.80572668304376
100577.31537661721813
100561.12379988186876
100550.23304348044621
100545.72276244976092
100547.45904035744024
100554.13370582315838
100563.3908654236875
100572.59183682294679
100579.04174147477897
100581.0177953006787
100829.29080256167799
100839.50411911332048
100834.12847847575904
100813.67929908756923
100781.92390770379279
100746.21629377566569
100715.09043877942895
100695.63591913104756
100690.93160690851801
100698.72601693953038
100713.09379552688915
100727.57400688156486
100738.44183999870438
100745.2465536154923
100749.77945454328437
100754.70233390660724
100760.89274376850517
100768.35236903274199
100776.7918942393153
100785.07617427893274
100791.52687004712061
100795.23188144234882
100796.05545120421448
100796.44470514704881
100800.37432593092672
100811.3216772780579
100829.67021120528807
100851.34513161501673
100870.55572115379618
100882.13802832044894
100884.70731472969055
100881.5009628880216
100877.54448937384586
100877.33990796825674
100670.06722040797467
100662.39087300338724
100654.52570169129467
100646.06790898866893
100636.37987305354909
100624.80725849782175
100610.94395036296919
100594.87270145727962
100577.30774721926718
100559.57520619161369
100543.41863773080695
100530.63985274468723
100522.69742814704659
100520.3213854196365
100523.21047905700107
100530.02817514589697
100538.4672462669987
100545.98133818431234
100550.06284470990067
100549.21554109174758
100816.38302699460473
100827.41453323532187
100823.7532742684707
100804.68513059597171
100773.54503144304908
100738.42102035180142
100707.50883246156445
100688.1202164455899
100684.19515407444851
100694.68776442922535
100714.85697020789667
100738.92406696043327
100762.08388272514276
100782.16848845992354
100798.50209225233993
100811.8795744178351
100822.03125127905514
100829.80609557850403
100834.87712593222386
100836.43725139329035
100834.0173758444289
100827.76710235742212
100819.19778137950925
100811.87305505457334
100809.94782254435995
100815.79479117986921
100828.88202501587512
100845.44189132963947
100860.77008821525669
100871.45027180483157
100877.2851250210515
100880.82173993182369
100885.80417140913778
100895.06689630392066
100650.71709006624587
100639.9649142758426
100627.65419333563477
100614.29216129951237
100600.22018550314533
100585.61735021689674
100570.61011684522964
100555.41046189551707
100540.4500579956366
100526.45649451159989
100514.418908840933
100505.38190447042871
100500.17208223592024
100499.12475505696784
100501.83406761527294
100507.13539548909466
100513.09534727981372
100517.62412569463777
100518.68039292856702
100515.10296758402546
100814.2271006731753
100808.11444996162027
100788.20229487627512
100759.29529026945238
100728.16390448786842
100702.82715254166396
100689.09821930255566
100690.02936163028062
100704.78150678309612
100729.86414188658819
100761.08091341026011
100793.76980099787761
100824.41641439306841
100850.06230362338829
100869.21644218631263
100880.51014945808856
100884.84485278991633
100883.07806474517565
100876.18651562540617
100865.85694251081441
100853.73059109540191
100842.00703852098377
100833.2045046674757
100829.1574090939539
100830.11070271731296
100834.59775853942847
100841.06309763030731
100848.36649382127507
100857.13121616194258
100867.83878660904884
100881.13611980229325
100897.52800384240982
100613.97396293963538
100598.3256586453499
100581.53626870676817
100564.66442361567169
100548.46246707520913
100533.36992086171813
100519.62155236136459
100507.39740619373333
100496.94007055126713
100488.59518394595943
100482.72452230000636
100479.5384283226158
100478.93932168740139
100480.39053794118809