/*--------------------------------*- C++ -*----------------------------------*\
  =========                 |
  \\      /  F ield         | OpenFOAM: The Open Source CFD Toolbox
   \\    /   O peration     | Website:  https://openfoam.org
    \\  /    A nd           | Version:  12
     \\/     M anipulation  |
\*---------------------------------------------------------------------------*/
FoamFile
{
    format      ascii;
    class       volScalarField;
    location    "0.009";
    object      pMean;
}
// * * * * * * * * * * * * * * * * * * * * * * * * * * * * * * * * * * * * * //

dimensions      [1 -1 -2 0 0 0 0];

internalField   nonuniform List<scalar> 
106891
(
99116.706076461661723
99117.233706093902583
99117.790082264647936
99118.375832269215607
99118.991470658147591
99119.63737275825406
99120.313869003104628
99121.021207501471508
99121.759016208350658
99122.525426782303839
99123.313299986039056
99099.122041802998865
99099.088917783199577
99099.058071112362086
99099.026230279123411
99098.990670254817815
99098.950569253938738
99098.907307237241184
99098.863465982998605
99098.821611050603678
99098.783464558771811
99098.749725137648056
99098.720727824314963
99098.696738069309504
99098.678483848256292
99098.666791292169364
99098.661171259052935
99098.659472152590752
99098.658805616432801
99098.65724844711076
99098.65543645391881
99098.656243970050127
99098.662935183951049
99098.67706775428087
99098.697444491874194
99098.720773604421993
99098.74307277193293
99098.760964026514557
99098.772628344464465
99098.778258459511562
99098.779695839984925
99098.779488165382645
99098.780432275962085
99098.784858970087953
99098.79439793957863
99098.810233545707888
99098.833084716228768
99098.863108943129191
99098.899453905731207
99115.897356843619491
99116.271905856890953
99116.665172082910431
99117.078085370871122
99117.511593408198678
99117.966730531377834
99118.444641699563363
99118.946529463370098
99119.47351129524759
99120.026584281629766
99120.606572523553041
99121.214183565825806
99121.849938826213474
99122.514293553947937
99123.207629094264121
99123.93025693394884
99124.682433208305156
99125.46383280918235
99126.272696374944644
99127.102539170940872
99099.071942271315493
99099.039561897778185
99099.007723485716269
99098.973521936743055
99098.935173030025908
99098.892866991198389
99098.848339540476445
99098.804113259800943
99098.762530800158856
99098.725394578359555
99098.694146889974945
99098.669400389946532
99098.651365225276095
99098.639706631205627
99098.633212695611292
99098.629648726040614
99098.626774221353116
99098.623275356716476
99098.620254888344789
99098.620595396540011
99098.627105912746629
99098.640695071517257
99098.660035888286075
99098.681812215130776
99098.702348811755655
99098.718804437681683
99098.73023095294775
99098.737312667566584
99098.74171125664725
99098.745589539888897
99098.750893972799531
99098.75906118171406
99098.771124892722582
99098.788018165432732
99098.810650052168057
99098.839797412452754
99118.76562243718945
99119.192591617698781
99119.638191341698985
99120.103246332160779
99120.588652914113482
99121.09538069012342
99121.624419651561766
99122.176776470354525
99122.753408829317777
99123.355179096382926
99123.982755173565238
99124.636655502981739
99125.317238714793348
99126.024817957790219
99126.759752621597727
99127.522418834560085
99128.313240934410715
99129.132142736300011
99129.977661932818592
99130.843959791745874
99099.084514226808096
99099.049401705691707
99099.016218291202676
99098.982345034601167
99098.94520252312941
99098.903749058474205
99098.858716325237765
99098.812379489216255
99098.767635074851569
99098.72737711625814
99098.693827501338092
99098.667868668955634
99098.649245764521766
99098.63680898208986
99098.628625618352089
99098.622389252341236
99098.616351610398851
99098.610194131499156
99098.605294570705155
99098.604044722364051
99098.60850721722818
99098.619064576429082
99098.634215014986694
99098.651094826927874
99098.666860407058266
99098.679627986872219
99098.689325496408856
99098.697027790913126
99098.7043218917388
99098.712860685423948
99098.723681134375511
99098.73709431818861
99098.753346009136294
99098.772954738946282
99098.79667807034275
99098.825342418989749
99122.140668469306547
99122.635598467895761
99123.14954274201591
99123.683302024728619
99124.237780377836316
99124.813906211973517
99125.412567880062852
99126.034521880719694
99126.680398633892764
99127.350678977338248
99128.045739196270006
99128.765872986972681
99129.511333635469782
99130.282466222924995
99131.079674840919324
99131.903505963491625
99132.754118489538087
99133.630408129552961
99134.527226970225456
99099.063723143219249
99099.028730683523463
99098.994558865917497
99098.958111567902961
99098.917060735504492
99098.871254888392286
99098.822773952852003
99098.775171010420308
99098.732524659237242
99098.697899912032881
99098.672307613946032
99098.654489740802092
99098.642016536367009
99098.632133917577448
99098.62269520299742
99098.612805218610447
99098.60298697365215
99098.594800293067237
99098.590133228979539
99098.590179158782121
99098.594856871874072
99098.602820231535588
99098.61233750548854
99098.621729808612145
99098.630190668089199
99098.638180150170228
99098.646816780645167
99098.657347985426895
99098.670515366786276
99098.686601651352248
99098.705444109786185
99098.726654027370387
99098.750265662019956
99098.776635752714355
99124.581097456277348
99125.104152128566056
99125.645195808479912
99126.204698296191054
99126.783266338097746
99127.381626287635299
99128.000564658621443
99128.640862325453782
99129.303232035861583
99129.988249938978697
99130.696279807743849
99131.427528171348968
99132.182160188167472
99132.960385619429871
99133.76262255810434
99134.589391263725702
99135.441359147094772
99136.318855229706969
99137.221039226991707
99138.143274068235769
99099.091469987470191
99099.053626738081221
99099.017322573126876
99098.979676903400104
99098.938238885530154
99098.892354572322802
99098.843484430166427
99098.795189837968792
99098.751810470130295
99098.716649580310332
99098.690717498509912
99098.672441097471165
99098.658640791720245
99098.64599578200432
99098.632573322131066
99098.618203355290461
99098.604203188588144
99098.592208516274695
99098.583414217544487
99098.578070270246826
99098.575439894761075
99098.574693192189443
99098.575584308040561
99098.577946552148205
99098.58202174276812
99098.588392316669342
99098.597812786203576
99098.611043164215516
99098.628330741907121
99098.649409565827227
99098.67371387797175
99098.700416160354507
99098.728880518727237
99128.071847622748464
99128.655579281286919
99129.257044272540952
99129.876648715158808
99130.514964873655117
99131.17265862977365
99131.850417662397376
99132.548821097821929
99133.268288889317773
99134.009085829005926
99134.771417396768811
99135.555527882374008
99136.361707087256946
99137.190449156682007
99138.042310677905334
99138.917983081933926
99139.817909419318312
99140.741524799668696
99141.684732731999247
99099.084445190688712
99099.045754280610709
99099.00673468990135
99098.965454985067481
99098.92066375919967
99098.873372605608893
99098.826676673124894
99098.784532732519438
99098.74986729491502
99098.723381637479179
99098.703354100594879
99098.686481239885325
99098.669945781643037
99098.652633192803478
99098.635022763031884
99098.618039289154694
99098.60239117751189
99098.588427315276931
99098.576286771000014
99098.565966905181995
99098.557422104349826
99098.550951657132828
99098.546946814880357
99098.546076291735517
99098.549202691821847
99098.557385449501453
99098.571122066729004
99098.590383717353689
99098.614523136260686
99098.642305718458374
99098.672554337332258
99098.704504384135362
99131.025512221982353
99131.647963309122133
99132.28752674315183
99132.944336723710876
99133.618724849424325
99134.311169317836175
99135.022205831046449
99135.752338149977732
99136.50200896372553
99137.271564457711065
99138.061233847678523
99138.871221118446556
99139.701780538889579
99140.553384056227515
99141.426617698074551
99142.322265348557266
99143.240892260655528
99144.182159290154232
99145.142382903854013
99099.094520072976593
99099.054572218272369
99099.013391844709986
99098.97026872621791
99098.925930511133629
99098.882363360389718
99098.842160084415809
99098.807574567195843
99098.77912525155989
99098.755662982919603
99098.73483161997865
99098.71453265393211
99098.693877946861903
99098.673484379178262
99098.653997472720221
99098.635357217703131
99098.617405158802285
99098.599841267394368
99098.582570374273928
99098.566105719553889
99098.551746501601883
99098.541084752345341
99098.535316370805958
99098.535379324937821
99098.542001207664725
99098.555262413967284
99098.574667245076853
99098.599177619369584
99098.627572627941845
99098.65884850799921
99134.607533697708277
99135.280984462369815
99135.971075532841496
99136.677825133810984
99137.401400129951071
99138.142096857729484
99138.900294324106653
99139.676395620554104
99140.470794002714683
99141.283866595797008
99142.116019389141002
99142.967597517374088
99143.839050173584837
99144.730832694287528
99145.64352579084516
99146.577493987162597
99147.532592488962109
99148.505605577287497
99099.104712253887556
99099.06395110306039
99099.021062301893835
99098.977157836809056
99098.93405344398343
99098.893954101746203
99098.858390889930888
99098.827624930767342
99098.800861723400885
99098.776598428594298
99098.753972540507675
99098.732714151774417
99098.712780988818849
99098.694249664287781
99098.676222003661678
99098.65746731699619
99098.637121075022151
99098.615277822274948
99098.593339600862237
99098.573103761373204
99098.556581322161946
99098.545631158398464
99098.541662377669127
99098.545576180680655
99098.557066828681855
99098.575090485290275
99098.598219893916394
99098.625061778511736
99137.515146662815823
99138.217595741632977
99138.936075381207047
99139.670515772828367
99140.420982273848495
99141.187651655913214
99141.970796766298008
99142.770762167594512
99143.587913325507543
99144.422576914235833
99145.275070488278288
99146.145685781069915
99147.034805823321221
99147.942757152181002
99148.869971999214613
99149.816620661440538
99150.782617929580738
99151.764797785435803
99099.133764663754846
99099.090419819782255
99099.045971463099704
99099.002795842287014
99098.962741801515222
99098.92649906562292
99098.894103518628981
99098.865133252533269
99098.839340304592042
99098.816220196473296
99098.79553306523303
99098.776700690461439
99098.758686542278156
99098.740247613677639
99098.720002093396033
99098.697126490093069
99098.671939041101723
99098.646133564136107
99098.621885614251369
99098.601499456664897
99098.587234048172832
99098.580939155988744
99098.583215582548291
99098.593361282924889
99098.610018485560431
99098.631652684562141
99098.65658629812242
99141.091753071304993
99141.834290228434838
99142.592018644048949
99143.36479968232743
99144.152721116930479
99144.956082807810162
99145.775307818810688
99146.610893305842183
99147.463282818178413
99148.332829999068053
99149.219707004187512
99150.124058838337078
99151.045981466901139
99151.985684973522439
99152.943108946958091
99153.918242817177088
99154.90804825934174
99099.240254886884941
99099.199698704818729
99099.155601736871176
99099.111412598169409
99099.069346353731817
99099.030138200731017
99098.993952401448041
99098.960830805197475
99098.930919774575159
99098.904181947000325
99098.88036437361734
99098.859190450093593
99098.84043761146313
99098.823257139563793
99098.806555335206212
99098.788729924170184
99098.76852008458809
99098.745548717852216
99098.720793056389084
99098.696743550288375
99098.675910857273266
99098.660367990160012
99098.651745598617708
99098.650763567929971
99098.657455971770105
99098.6706576814031
99098.688771515895496
99144.645185044704704
99145.42162017802184
99146.212399344061851
99147.017771440310753
99147.838140776540968
99148.673987358255545
99149.525762151446543
99150.393807786109392
99151.278352730252664
99152.179455843055621
99153.097067619324662
99154.031007581477752
99154.981141179741826
99155.947084363389877
99156.928782946357387
99157.923391894582892
99099.287157874787226
99099.247333238905412
99099.203861859408789
99099.161456613161135
99099.122551665030187
99099.087364251870895
99099.055152945729787
99099.024864066275768
99098.995787920037401
99098.968000478242175
99098.941966303522349
99098.918094845343148
99098.896726963779656
99098.87777809126419
99098.860665228654398
99098.844414630715619
99098.827956647714018
99098.810607773673837
99098.792297278851038
99098.773555258798297
99098.755633288281388
99098.740038522679242
99098.728824507910758
99098.72372476151213
99098.72572961631522
99098.734597589747864
99098.749718680366641
99098.770345448356238
99147.758488182356814
99148.560180604181369
99149.376139944215538
99150.206993841973599
99151.053344039712101
99151.915719375072513
99152.794455676863436
99153.689638251002179
99154.601083842353546
99155.528405022691004
99156.471140882684267
99157.428948585817125
99158.401291598638636
99159.388086959763314
99160.386714163047145
99099.287823101651156
99099.246863133957959
99099.207710910355672
99099.172694019827759
99099.14162454957841
99099.112908827228239
99099.084738351477426
99099.056023421580903
99099.026856386044528
99098.998069978275453
99098.970698993070982
99098.94555668841349
99098.923368603893323
99098.904589349214802
99098.889322271250421
99098.877078723497107
99098.866774783615256
99098.856801926798653
99098.845526782839443
99098.832302481954684
99098.818095907146926
99098.804988320291159
99098.795704730786383
99098.792426606727531
99098.796418700527283
99098.807852921818267
99098.826431566645624
99150.414544164552353
99151.237441481891437
99152.075127427306143
99152.928413446934428
99153.7978842871089
99154.683790874507395
99155.586064792762045
99156.504333793040132
99157.438028709366336
99158.386524405388627
99159.349292690807488
99160.325698360829847
99161.315665713802446
99162.316730068763718
99099.296212873799959
99099.261442610644735
99099.231395724898903
99099.205357060403912
99099.180645220301813
99099.154528607381508
99099.125587316797464
99099.094296780589502
99099.06232103567163
99099.031307447890867
99099.002356496581342
99098.976750587215065
99098.955795389221748
99098.940564137112233
99098.931231261871289
99098.926576448182459
99098.923848626145627
99098.919611306773731
99098.911476435008808
99098.899391696148086
99098.885624111018842
99098.873697393501061
99098.866906131210271
99098.867393692620681
99098.876016108435579
99098.893121565663023
99152.909364844686934
99153.752776038149022
99154.611566779538407
99155.486343997021322
99156.377347496250877
99157.284457939502317
99158.207239873619983
99159.145050823353813
99160.097235618755803
99161.06328677147394
99162.042584514449118
99163.035093695594696
99164.038507347315317
99099.31184034665057
99099.285750982846366
99099.262404558918206
99099.239109182279208
99099.213282600263483
99099.183578010546626
99099.150912438926753
99099.11745787478867
99099.085192799379001
99099.055423833837267
99099.029171506146668
99099.007729191624094
99098.992602384576458
99098.984731649965397
99098.983329085865989
99098.985270843753824
99098.986008657724597
99098.981969337954069
99098.972373913042247
99098.95924955913506
99098.946383375456207
99098.938035141443834
99098.937165406547138
99098.945052329538157
99098.962280985782854
99155.260740248166258
99156.124601075644023
99157.003883304510964
99157.898732955000014
99158.809010951954406
99159.734364301897585
99160.67429984442424
99161.628341635674587
99162.59611182527442
99163.57708901805745
99164.571335758504574
99165.576687735505402
99099.346257481345674
99099.323393185768509
99099.299461581671494
99099.272554567884072
99099.242352426008438
99099.210104202502407
99099.177826908882707
99099.147068228237913
99099.118606580552296
99099.092996333958581
99099.071559608346433
99099.05609586587525
99099.047956451351638
99099.046799009476672
99099.049761740767281
99099.052271913329605
99099.050433691052604
99099.042876710795099
99099.031412882352015
99099.020093121027458
99099.013215757237049
99099.013819996762322
99099.02330082593835
99099.042295168677811
99099.37205228516541
99099.345276448060758
99099.316617069707718
99099.287016892150859
99099.257902784098405
99099.230564873054391
99099.205221753843944
99099.181270986868185
99099.158449618233135
99099.137624323833734
99099.121044448111206
99099.110550543948193
99099.106781123453402
99099.107938635483151
99099.110206217781524
99099.109740978077753
99099.104753500549123
99099.096507437934633
99099.088778510064003
99099.085346911262604
99099.089060976650217
99099.101380475869519
99099.12300524978491
99099.369583697567577
99099.34135373927711
99099.316581145860255
99099.295387007470708
99099.276771417265991
99099.258893544130842
99099.240272620299947
99099.221212741351337
99099.203861899892217
99099.190694148928742
99099.183307469560532
99099.18103504316241
99099.181120752604329
99099.18012235412607
99099.176162259973353
99099.170301267498871
99099.165771256550215
99099.165898801045842
99099.173289441576344
99099.189253492397256
99099.214002741238801
99099.357134162026341
99099.345726371131605
99099.331335209310055
99099.313892641221173
99099.295520346480771
99099.279460072968504
99099.268190372851677
99099.262116058569518
99099.259467992349528
99099.257621632816154
99099.255028924264479
99099.252239155917778
99099.251433737939806
99099.255360161099816
99099.266281472373521
99099.285406217371929
99099.312714639760088
99099.389078631822485
99099.371477223554393
99099.357468294692808
99099.348402450952563
99099.343564624243299
99099.341055403099745
99099.339482817667886
99099.339025894470979
99099.341307331065764
99099.348666659730952
99099.362951481060009
99099.385126638866495
99099.414958515830222
99099.46411514544161
99099.448257361989818
99099.437537842735765
99099.432103508806904
99099.430472196821938
99099.431299655683688
99099.433995539802709
99099.439368106657639
99099.449232057988411
99099.465223895036615
99099.488275251555024
99099.518389025179204
99099.313322654314106
99099.271212024614215
99099.220829451660393
99099.165422044505249
99099.109612794665736
99099.056148762771045
99099.005155426988495
99098.956506535992958
99098.911372745875269
99098.872257169248769
99098.840774505486479
99098.816152134662843
99098.795848878289689
99098.77740572852781
99098.760087834452861
99098.744778827691334
99098.732363561197417
99098.723019247190678
99098.716735921421787
99098.7131538301619
99099.334863940093783
99099.301831793010933
99099.261477664898848
99099.213493740302511
99099.16073751647491
99099.106992962711956
99099.053906490342342
99099.001435392230633
99098.949903717177222
99098.901536493256572
99098.859767189118429
99098.826567130658077
99098.800982834640308
99098.780029393790755
99098.761252507727477
99098.744316370080924
99098.730446968285833
99098.720612459772383
99098.714616858182126
99098.711514254668145
99098.710074718852411
99098.709042785616475
99099.378369684680365
99099.352409472558065
99099.3247206700471
99099.292465949751204
99099.253017181981704
99099.206593362716376
99099.155927885251003
99099.103779233453679
99099.051009530434385
99098.997149314163835
99098.942896959968493
99098.891589625287452
99098.847464648046298
99098.812823972533806
99098.78650503193785
99098.765170427461271
99098.746360092394752
99098.729978148883674
99098.717598650473519
99098.710449560036068
99098.707895716986968
99098.708034405004582
99098.708735652166069
99098.708223146240925
99098.706364164652769
99098.705358739636722
99099.389811703731539
99099.365651448548306
99099.340262829311541
99099.313211821572622
99099.281710549650597
99099.243624759765225
99099.199097218137467
99099.150501883472316
99099.100044800710748
99099.047830599869485
99098.992921644356102
99098.936491198139265
99098.882605878417962
99098.8363800606312
99098.800383013382088
99098.773453567555407
99098.751998699604883
99098.733116750532645
99098.71691220907087
99098.705477424766286
99098.700142063767998
99098.70004201681877
99098.70263682444056
99098.70504837903718
99098.705099273094675
99098.702766630696715
99098.700827759079402
99098.703247628131066
99099.397025003796443
99099.377421449171379
99099.35519381314225
99099.331836086712428
99099.30625457878341
99099.275499679992208
99099.237521929549985
99099.193225873401389
99099.145301917931647
99099.095724812272238
99099.043921081145527
99098.988390223690658
99098.930273900288739
99098.874409126248793
99098.826387900277041
99098.789326616490143
99098.761938932759222
99098.740327373394393
99098.721558526231092
99098.706041055440437
99098.696124009977211
99098.693219536129618
99098.695918735524174
99098.700928848513286
99098.704555443269783
99098.704430859463173
99098.700993919817847
99098.697811787817045
99098.699354752912768
99098.708238966180943
99099.403044823091477
99099.388729643789702
99099.369278347163345
99099.347098110345541
99099.323995529324748
99099.298725893095252
99099.268280533971847
99099.231187746714568
99099.188643298679381
99099.142935205236427
99099.095242048497312
99099.044073882643715
99098.987707204563776
99098.927762187624467
99098.869679678071407
99098.819891684208415
99098.781694986915682
99098.753898839873727
99098.73233479182818
99098.713549170235638
99098.697997365670744
99098.688513273489662
99098.686639740873943
99098.690854034066433
99098.697398180753225
99098.702156189145171
99098.702470510819694
99098.698804523519357
99098.695140499025001
99098.696577788927243
99098.705902521993266
99098.722186327402596
99099.401952727974276
99099.387938518411829
99099.368765401886776
99099.347227916849079
99099.325069671001984
99099.300691931130132
99099.270943120587617
99099.234429859003285
99099.192393051984254
99099.147340214069118
99099.10016060435737
99099.048846255187527
99098.991376422971371
99098.92961854240275
99098.869845940324012
99098.818871296840371
99098.780175622232491
99098.752244383053039
99098.730547664163169
99098.711649198652594
99098.696286277598119
99098.687569930392783
99098.687165537063265
99098.693199981717044
99098.701400540245231
99098.70707801602839
99098.707273863765295
99098.702737048413837
99098.697956662086654
99098.698577041766839
99098.707669447132503
99098.724166995976702
99098.742878794801072
99104.569880861134152
99104.390626513966708
99104.220434086309979
99104.058462417844567
99103.898401092548738
99103.734222266604775
99099.401192238772637
99099.387417061559972
99099.368261065203114
99099.346723998809466
99099.324728187581059
99099.300517091221991
99099.270939923924743
99099.234749813898816
99099.193336889380589
99099.149112939689076
99099.102694524510298
99099.051602191117126
99098.993468053973629
99098.930495255423011
99098.869373945097323
99098.81728889142687
99098.777925274538575
99098.749789987836266
99098.728110783515149
99098.70916631873115
99098.693804899929091
99098.685381531933672
99098.685640160489129
99098.692578148111352
99098.701674979762174
99098.707940694293939
99098.708171786172898
99098.703159506170778
99098.697819528300897
99098.698129556141794
99098.707356663566316
99098.724370784257189
99098.743546101657557
99098.758410654569161
99104.754035342572024
99104.568922725971788
99104.390024858221295
99104.220370108640054
99104.058966849406715
99103.899194228535634
99103.734668873759801
99099.406208676678943
99099.392538611471537
99099.373355503295898
99099.351863570947899
99099.330101556843147
99099.306129902324756
99099.27676729815721
99099.240812109521357
99099.199635697936174
99099.155649444874143
99099.109479748512967
99099.058324580502813
99098.999657754087821
99098.935955439519603
99098.874161601634114
99098.821614090600633
99098.782134230845259
99098.754101576734683
99098.732446804337087
99098.713422195476596
99098.69805650053604
99098.68982419729582
99098.690504289566888
99098.69802051197621
99098.707698752958095
99098.714331656403374
99098.714504383824533
99098.709099133819109
99098.703346212540055
99098.703347738119191
99098.712524031769135
99098.729745970325894
99098.749059379581013
99098.763855265322491
99098.771796386485221
99117.186435547526344
99117.709599908150267
99118.262487949774368
99118.845587422416429
99119.45896524041018
99120.102326667081797
99120.775262237017159
99121.477335503121139
99122.207779626274714
99122.964681587574887
99123.740911865912494
99099.534350663627265
99099.471886061350233
99099.405746866585105
99099.340745993118617
99099.281554310451611
99099.232082626098418
99099.194369909266243
99099.16766899562208
99099.148736575472867
99099.133152181166224
99099.117495302285533
99099.100624501515995
99099.084411091578659
99099.072355751952273
99099.067413511394989
99099.070798283428303
99099.081959921415546
99099.099319779110374
99099.121343882710789
99099.1470747308922
99099.175002687290544
99099.20326178050891
99099.23007522887201
99099.254220822738716
99099.275256429929868
99099.293352047374356
99099.308888518949971
99099.321922560469829
99099.332087923627114
99099.339315188393812
99099.344221771811135
99099.348148106175358
99099.35303656916949
99099.36059434049821
99099.371999243579921
99099.387727562818327
99116.003804665568168
99116.36506132473005
99116.74435197339335
99117.141504540180904
99117.556607062419062
99117.990212403063197
99118.443448053105385
99118.917952081930707
99119.415681882834178
99119.938583518945961
99120.488348573679104
99121.066189781355206
99121.672834819721174
99122.308435424944037
99122.972745374485385
99123.665303041532752
99124.385613368736813
99125.133320461769472
99125.9078426653723
99126.707625065784669
99127.526384112366941
99099.546172267771908
99099.486561845318647
99099.421680202969583
99099.356312567004352
99099.295441975133144
99099.243287253309973
99099.202555458410643
99099.173228391387966
99099.15282558403851
99099.137476263858844
99099.123620011014282
99099.109312481290544
99099.095179383773939
99099.083509367512306
99099.076552240381716
99099.07554539499688
99099.080457055140869
99099.090200649414328
99099.103626858195639
99099.120122690626886
99099.13886686830665
99099.158701228472637
99099.17882892616035
99099.199107472202741
99099.219582872581668
99099.24010026655742
99099.260103466949658
99099.278449061181163
99099.293871581612621
99099.305968364293221
99099.315731182170566
99099.325083083953359
99099.336030140068033
99099.349881104848464
99099.366810320076183
99099.386002016515704
99118.809340174062527
99119.218587127339561
99119.646007104282035
99120.091824988558074
99120.556409541968605
99121.040415834228043
99121.544860209716717
99122.071101420180639
99122.620720633247402
99123.19528552184056
99123.796132532239426
99124.424140214570798
99125.079686104189022
99125.762688463073573
99126.472756391623989
99127.2093884809874
99127.972102259795065
99128.760667826165445
99129.574696146068163
99130.412946288153762
99131.269844452253892
99099.523762927536154
99099.460576721568941
99099.395473917698837
99099.333958645147504
99099.280721912480658
99099.238766647264129
99099.208418173118844
99099.187690651364392
99099.173018709101598
99099.160652849721373
99099.147943029835005
99099.134240962710464
99099.120731774659362
99099.109063840660383
99099.100471435725922
99099.095519917114871
99099.093955670599826
99099.095559429959394
99099.100308934153873
99099.108070887203212
99099.118606292482582
99099.131938549908227
99099.148403928164043
99099.168196762198932
99099.190852401952725
99099.214921997700003
99099.238362231131759
99099.259462039131904
99099.27768527250737
99099.293968204161501
99099.310133956707432
99099.327823373416322
99099.347735003088019
99099.369307259650668
99122.095174356756615
99122.56787369196536
99123.059491766354768
99123.570666067869752
99124.102097362294444
99124.654633265410666
99125.229260068445001
99125.827067168211215
99126.449141379882349
99127.096442050722544
99127.769604143322795
99128.468857290616143
99129.19402600803005
99129.944675880295108
99130.720385031279875
99131.520778613063158
99132.345750661144848
99133.195024250569986
99134.067556028239778
99134.958320805162657
99099.552332623192342
99099.491595763523947
99099.428736426809337
99099.368860053320532
99099.316874942334834
99099.275729292319738
99099.24594948925369
99099.225939956741058
99099.212160575290909
99099.200691550926422
99099.188476126277237
99099.174069596236222
99099.157746839540778
99099.14042221957061
99099.12316319051024
99099.10695200812188
99099.092648505335092
99099.08109937471454
99099.073218736200943
99099.069962693247362
99099.071807617845479
99099.079109892685665
99099.092269855595077
99099.111166177652194
99099.134788193390705
99099.161318633457995
99099.18874879530631
99099.215388955330127
99099.240654063600232
99099.265002062980784
99099.289396643216605
99099.314585299172904
99099.340478159487247
99099.366248688529595
99124.983530116660404
99125.498645879604737
99126.033061592068407
99126.587585070781643
99127.162894753870205
99127.759598974269466
99128.378340200943057
99129.019831718571368
99129.684768623352284
99130.373718873728649
99131.087014559831005
99131.824763255543076
99132.586872812302317
99133.373054023410077
99134.183015784845338
99135.016483393657836
99135.873461662660702
99136.753794177129748
99137.656657317304052
99138.577454715545173
99099.53719522265601
99099.478301392271533
99099.422679804600193
99099.374417234983412
99099.335742861585459
99099.306875103517086
99099.28635084014968
99099.271048706039437
99099.257539750484284
99099.242975199842476
99099.225415112421615
99099.204058537303354
99099.179040282426286
99099.15165122372855
99099.123522248890367
99099.096943871409167
99099.074064047832508
99099.056511592847528
99099.045538739213953
99099.041611484615714
99099.044724809384206
99099.05457630228193
99099.070673270151019
99099.092016897528083
99099.117372432592674
99099.145682126443717
99099.17607548207161
99099.207913673308212
99099.240593885479029
99099.273337461083429
99099.30537908191036
99099.336001914372901
99128.432132681351504
99129.006202766497154
99129.600560822465923
99130.21580971046933
99130.852387823426398
99131.510608078329824
99132.190739183541154
99132.893053719657473
99133.617870838279487
99134.365486534239608
99135.136054641290684
99135.929594385073869
99136.745991360643529