/*--------------------------------*- C++ -*----------------------------------*\
  =========                 |
  \\      /  F ield         | OpenFOAM: The Open Source CFD Toolbox
   \\    /   O peration     | Website:  https://openfoam.org
    \\  /    A nd           | Version:  12
     \\/     M anipulation  |
\*---------------------------------------------------------------------------*/
FoamFile
{
    format      ascii;
    class       volScalarField;
    location    "0.009";
    object      T;
}
// * * * * * * * * * * * * * * * * * * * * * * * * * * * * * * * * * * * * * //

dimensions      [0 0 0 1 0 0 0];

internalField   nonuniform List<scalar> 
106891
(
300.55319040535079012
300.53579852826732122
300.51919605266510871
300.50481304033326069
300.49263716893881337
300.48432148464087277
300.47783253185656349
300.47503583768656199
300.47368944175377692
300.47310301858396997
300.47557860826918841
302.39006981524391904
302.40944150748413222
302.43114678342760726
302.45500659802337395
302.47628030411226518
302.4888728958613342
302.48812104909444542
302.47358386507744399
302.44900552874167943
302.42039202591502089
302.39358893800829264
302.37096057679548267
302.35160782229655752
302.33428204458704158
302.32002337409767279
302.31323775864206027
302.31826714094478348
302.33582288829438767
302.36125916402124858
302.388029794137708
302.41152748459597888
302.43254940320395008
302.45619620836350805
302.48831276656829914
302.53104406111941671
302.58145827118482885
302.6325582270369523
302.67454713864248106
302.69726958569748376
302.6926460090022033
302.65683343324627685
302.59097621446812809
302.5017795245306047
302.40120623189841353
302.30515417449282722
302.23139621506828689
302.19646140438379689
302.2112842835807669
300.61508354893464912
300.60977657212140457
300.6036237627095602
300.59663254129861798
300.58853886116605736
300.57899216529699515
300.56775287056689194
300.55469960801929119
300.54025574043288316
300.52497284114843978
300.50986652633804397
300.49577075341244381
300.48394779518878295
300.47414188120563949
300.46792011679514189
300.46305517357114923
300.46109077617154526
300.46003680742518327
300.45855069478920996
300.45946879716672129
302.41011470242148107
302.41978953471902969
302.43294964844039896
302.44863692101006336
302.46251133240582476
302.46921839615004046
302.46555392491217162
302.4512812410908964
302.42979755420634547
302.40580527176626902
302.38321582705464152
302.3639473551565402
302.34911439413616563
302.34075842949147273
302.34153162578689944
302.35333008619193151
302.37391566799220755
302.39760176516716683
302.41805898057992863
302.43241407274024368
302.44303093658021453
302.45623429094513313
302.47852692091561266
302.51259718277225375
302.55581131172561982
302.60168732272529724
302.64199328506549591
302.66806649415315178
302.67254044295486892
302.65131475190798938
302.60393892168633556
302.53437310873050592
302.45184504924219482
302.36966808363234804
302.30403185086572648
302.27033286814673829
300.57654979524124883
300.57219267723911571
300.5670114415494254
300.56093031178488673
300.55372078941877589
300.54513959257155875
300.53511587567481911
300.52370677111849773
300.51144490324884373
300.49892065688914045
300.48703964840871095
300.47641352989569441
300.46803432795474009
300.46127730659344479
300.45745392631101822
300.4541282108316409
300.45246647836677312
300.45085522576664516
300.44742542945147079
300.4455800885083363
302.40995171447895018
302.40973306311281021
302.41320777956377697
302.42309253231462662
302.43690530220709434
302.449324005397159
302.45432975258438546
302.44857685242203615
302.43297144631719675
302.41145855704257883
302.38983653484734759
302.37317596726637703
302.36457199874934076
302.36574842345129355
302.37677731271912762
302.39592027500833638
302.41869206217984356
302.44011970041805171
302.45573023398202395
302.46483095172203548
302.47092428213341009
302.47972243586724517
302.49598012652336365
302.52115448607338521
302.55247495938681368
302.58465602029167485
302.61220243497547244
302.6298783514743036
302.63401036407100264
302.62160801594200166
302.5911299517323414
302.54366141880927898
302.48354021343675413
302.41931021667988944
302.36355160628943395
302.3299185740388566
300.53004138340389773
300.52658513439178023
300.5224534526873299
300.51730623274187337
300.51088819376093397
300.50319850820727652
300.49442073282864385
300.48519043868702738
300.4761398018951013
300.46806844400180125
300.46135301006677309
300.45669119472165676
300.45306827907910474
300.45147286120771923
300.44931995504248334
300.44737220823742518
300.44450415140170207
300.43845194323307624
300.43315353634636722
302.406491986461333
302.39987048703477512
302.40316792179390859
302.41653551575097936
302.43500090133227332
302.44989012883689838
302.4543018767796525
302.44597538658757685
302.42763374328922055
302.40652090307253275
302.39080076916593498
302.38618811209749992
302.39447125645432379
302.41344534908739661
302.43783856995969472
302.46184662405619292
302.4809031736259044
302.4931265009680601
302.49950127129670818
302.50378264258773697
302.50997150683946302
302.5204243509109574
302.5355632510058399
302.55346531736921634
302.57106930223528707
302.58536872599012213
302.59416215205072831
302.59605842124665287
302.58945212228678656
302.57248234020613609
302.54469784702956758
302.50738208474120938
302.46519417563240495
302.42562920960023121
300.4877401355515758
300.48563303003129477
300.48409593320121758
300.48253140483802781
300.48035790441605286
300.47716158394575814
300.47288068746229328
300.46769227302382888
300.46221209706118316
300.45706268218935975
300.45295473999999558
300.45006235980133624
300.44881801100336816
300.44786192862460439
300.44788512791780022
300.44630670738865774
300.4434900938346118
300.43888741315572588
300.42999568216595208
300.42115863206538506
302.40679840549279334
302.39712279650899518
302.39641583290415383
302.40633228697350887
302.42273140045944047
302.43826446523411278
302.44596369735444341
302.44285396337670591
302.43122714657260985
302.41807244520452969
302.41169837039467438
302.41772006163876085
302.43635845951462215
302.46305645101642767
302.49070411670697922
302.51410160699526841
302.5303552517249841
302.53996356108831378
302.54530174658481201
302.54892532597790478
302.55235055026707869
302.55611076140570503
302.55979855876847751
302.56330807608406985
302.56657757597383807
302.5691592921486972
302.57139952663919757
302.57232040297128606
302.57038065777391012
302.56345147489008696
302.54939061841514558
302.52818148647435237
302.50283410587650224
300.44453683400411137
300.44403847161402155
300.44456506628677062
300.44532908531476778
300.44568976769323854
300.44537235128996144
300.44437585473701802
300.4431253141264051
300.44207492888222077
300.44176460681768503
300.4421847599217017
300.4436316049120137
300.44459765665237683
300.44555929880289113
300.44410496236520203
300.44021236924049845
300.43393230761859058
300.4226318776129574
300.41078732910256122
302.39700326695782451
302.39762482009473388
302.40575686772007202
302.41803996355719164
302.42948802565564392
302.4349257391950232
302.43268088911207769
302.42615215230244985
302.42210675987286095
302.4281955063922851
302.44872243961805225
302.48151442631109376
302.51945839198452859
302.55415051594786746
302.58030271655457
302.59644831437077528
302.60378493514514275
302.60473322458750545
302.60117986264828005
302.59380404561210298
302.58293113670345065
302.56915817907406563
302.55510110041359439
302.54332918130904773
302.53616021956958093
302.53569349843019154
302.54183356523208204
302.55233451464181371
302.56333382489526684
302.57035390253997775
302.57003275329543612
302.56150852839596155
300.41176643518622313
300.41100766698383495
300.41243075276946684
300.41521612919905238
300.41854042004791836
300.42187591359669341
300.42494091868377382
300.42781117404331326
300.43061725520084337
300.43364401219969295
300.43670084016412147
300.44005698012949779
300.44227849373066874
300.44376085614703698
300.44247590605647247
300.43804480424688563
300.43101954707725554
300.41865178629421962
300.40515150453410342
302.40274002494646766
302.41062675455174258
302.42130741249388848
302.43128939727893112
302.43761869155696331
302.43967630773931887
302.44073495072581181
302.44647523971656256
302.46269622073884875
302.49116371455301078
302.52871249055124281
302.56824047308981562
302.60266133813655642
302.62651941871467898
302.63937611295608576
302.64311052515063238
302.63974805409219471
302.63047694555098133
302.61611048916756772
302.59732976397936
302.57525054473740056
302.55223725884445685
302.53242215466258358
302.51951279344706336
302.51646935753331036
302.52521345582221102
302.54440741116019353
302.56932744350842768
302.59337274944209639
302.61004996616429708
300.38677355182676365
300.38752090205093737
300.39077464562581099
300.39572582543860335
300.40164240402486939
300.40788880196441824
300.41408576274830011
300.41996663657533873
300.42554324853307435
300.43047111741731214
300.43508004385199683
300.43818320241990705
300.4402039502768389
300.43967697501932435
300.43587815343113334
300.42969753262735821
300.41827084266276415
300.40516791550027165
302.39626565222459931
302.40966693635795082
302.42277733569324027
302.43375948175940948
302.44321526030267933
302.45505722987996933
302.47384337574845858
302.50230829445291647
302.5397747685539116
302.58151698741852442
302.62076680860269562
302.65152935375340348
302.67102909765202412
302.67941345610779535
302.6795860873643278
302.67351516811743295
302.66105250294464213
302.64139200120229134
302.61438226634726334
302.58098181026105067
302.54418518294801288
302.50967573260140853
302.48530258091716405
302.47730477759643009
302.48955091971549791
302.52092737514828968
302.56573631924464962
302.61317149564644069
300.37152547598310548
300.37055179963709861
300.37291307952762054
300.3778746809652489
300.38458900535516705
300.3921740149943389
300.3999279018330526
300.40729660155113834
300.41409595938597477
300.41987735243696989
300.42505709043979323
300.42877521877227309
300.43149749702666895
300.43239362268656123
300.43042290177402265
300.42668378217513236
300.41828595053823392
300.40781992802504874
302.40859343275513993
302.42296812631116154
302.43319639481723016
302.44298389858840892
302.45742948682038787
302.48123950155320472
302.51617093893247556
302.55955365337985086
302.60573678056255176
302.64804552982428731
302.6814081315520184
302.70276272455703293
302.71289635836859588
302.71340816586996425
302.70660022511339093
302.69218223311969496
302.66803658049968817
302.63322566179368778
302.58937212113318083
302.54086844119393618
302.49482746504480701
302.46084171822298003
302.44806444690311764
302.4620800096649873
302.50239226219366628
302.5623905100166553
302.62985151483349
300.36206802272789673
300.36326421256211461
300.36724161222787188
300.37310623131014609
300.37987736795253113
300.38675272900837854
300.39314930212520949
300.39897790815882672
300.40393120981588027
300.40859234311335513
300.4124605057933195
300.41594453075282445
300.41876327472482444
300.41952163328318193
300.41933350787996915
300.41542890017410627
300.40934128797943004
302.37022633999663412
302.39301256147979302
302.40940788410233608
302.42188335077014472
302.43706446745540006
302.4613958674366927
302.49760542730808766
302.54461585788084221
302.59841025496103839
302.65200550036422555
302.6985249401298006
302.73180674190115269
302.75024063073163916
302.75424861164952972
302.74724948397698654
302.73115611218503318
302.70628685691650617
302.67107445639572916
302.62405881949518971
302.56702966754994577
302.50564356533919863
302.44972307494140296
302.41040345725190264
302.39899371015025054
302.42145678101115891
302.47740103316721161
302.55765280427874586
300.3629854347291257
300.36623442145696572
300.37052141879661349
300.37489635681953359
300.37867959877445401
300.38153560976695644
300.38375772191346869
300.38548351045125173
300.38770396438383159
300.39045983062840151
300.39407702165499359
300.39869607690832254
300.40253912088041943
300.40646432111765307
300.40783657302159781
300.40704885055890827
302.36823579217519864
302.39694988525781127
302.41481966719521779
302.42590560872775995
302.43966082687001062
302.46451861447559395
302.50467480389170305
302.55866168211463219
302.62048570720304497
302.68219199605158565
302.73497667319008997
302.77242499371590156
302.79099025271688106
302.7912586095241636
302.77537340953074363
302.74590294816260894
302.70514746739883094
302.65495526397410231
302.59630451449100974
302.53195004707765747
302.46800475674342579
302.41217155753037105
302.37483235494357814
302.36599617325418876
302.39337738985176429
302.45701081941314214
302.54735870400276099
302.64907029768357916
300.37414322221462726
300.3775421109582453
300.3794757872681771
300.37962009162328059
300.37809597538091566
300.37572353458722318
300.37318333056367692
300.37186351516407967
300.37230702502591839
300.37480941735162787
300.3798363733833412
300.38538548193815814
300.39198612702887203
300.39719619959919328
300.40049937646188027
302.41058369390157168
302.4229682340357499
302.43060071551445844
302.44498988030613873
302.47592339355873037
302.52774793597922098
302.59623131846547039
302.67159276759190334
302.74233379257316301
302.7978010136409921
302.83106862966195649
302.83909825125857651
302.82298267087583099
302.78562411347326133
302.73202675390717786
302.66808490837399859
302.59960411469864994
302.53142527761804104
302.46793638853279163
302.4128759398990951
302.37026955996230981
302.34724638720280154
302.35199925733388682
302.39084258020386642
302.46383393824720542
302.56309458129987888
302.67334332878323266
300.38735568548742094
300.38748612881835243
300.38481028875548873
300.3799054077225037
300.37402947784312346
300.36825435415613583
300.36416949491689365
300.36259478436340942
300.36370809553847039
300.36812918470417344
300.37381617442281367
300.38109569209234451
300.38786375507993398
300.39306384473792377
302.41529771896477996
302.42068629314849204
302.43508210422226057
302.47073093982737646
302.5321007918818168
302.61390051128057621
302.70436080489997721
302.78850936511372538
302.85380554459084124
302.89166271302462974
302.89869568146417578
302.87512388776565331
302.8240587786712581
302.75201384985905406
302.66743564190772986
302.58031451256215405
302.49922282578819477
302.42963405146230116
302.3737309544807772
302.3340686941865556
302.31557093196119013
302.325366580608204
302.36917130348575711
302.44797328177440932
302.5539523624278786
302.67082472702639961
300.3966890256221518
300.3921630427428795
300.38510765030400762
300.37706586561853328
300.36933362549859794
300.36347346827153615
300.3603697499220857
300.35999210881959698
300.36300622337211053
300.36743758787309844
300.37352985245087211
300.37969167656581249
300.38468782407295521
302.41312723439091315
302.43516625591462343
302.47933478870572799
302.54914005214817507
302.63885859911260923
302.73505681860132199
302.82244211578608883
302.88873738144286563
302.9268375660766992
302.93341458582483483
302.90772654618132265
302.85137192374310189
302.76931548457127974
302.67105641984164777
302.56877648233916034
302.47412773178325551
302.39453285369518198
302.3329309367247788
302.29091857642862351
302.27240190043687562
302.28308190694940549
302.32978803010672664
302.41484406046708955
302.53066230329574182
302.65971676746005414
300.39931508091314072
300.3917497473282765
300.38333358707041043
300.37531021104808815
300.36897817354997642
300.36510113603634409
300.36338430313816161
300.36448650118228443
300.36661872616258506
300.37004764096110421
300.373795802244274
300.37676064545655663
302.43765626313853545
302.49010805758882725
302.5674801370238356
302.6631696239643361
302.76288718456800098
302.85133304933287945
302.91732391692698911
302.95435699263447304
302.95942705826655583
302.93104637590079165
302.86976209468508614
302.78050318157636411
302.67352284173989574
302.56281399407816934
302.46190290631381004
302.3789275361788782
302.31633676394329768
302.27318891911551191
302.25069042470789782
302.25403380773639128
302.29177093554534395
302.36887949248557561
302.48144009825989542
302.61534452331460443
302.48801611185513138
302.56804472822193475
302.66517754507458449
302.76606912663805815
302.85595494700140762
302.92298893192509013
302.96045751935866974
302.96516157636591515
302.93549261443160958
302.87297277711996912
302.78288624828479669
302.6749980325283218
302.56131420991914638
302.45356597501483975
302.35961292158890501
302.28236493047415934
302.22297600080946722
302.18494152465001434
302.1767184283817187
302.20857153039975174
302.28591232404147604
302.40458970855064535
302.54927794260140672
302.64018866773375294
302.72909940806943041
302.81578983298635421
302.89037623719860903
302.94433208599656382
302.97057242238491881
302.96384362092908304
302.92202884379179295
302.84732349095884274
302.74728612067104905
302.63293776477422625
302.51556537052340445
302.40453629471750219
302.30571748129597154
302.22403268387341768
302.1655739420974669
302.14180378251694492
302.1641438897520402
302.23870808225410656
302.36132293055408127
302.5156801590698592
302.95282925094136317
302.98697328676536245
302.99116705760468449
302.95998246420077749
302.89224593853180068
302.79408477370077435
302.67621531751882458
302.5508589789607754
302.42892757540562343
302.31817449954320409
302.22444964861017525
302.15439200016959376
302.11866799634316294
302.12894735950987979
302.1940757071159851
302.31400194747322985
302.47578619363071084
302.8769226216198831
302.77664185070864278
302.65686772343286748
302.52908926351568653
302.40319558275996314
302.28691269869830194
302.18659364192654948
302.11009486827038018
302.06721038063801643
302.06941214870056456
302.12573651608596492
302.2371190985670637
302.39421714610529079
302.80560968404194
302.68295992825892426
302.54677727010300714
302.40832722924932341
302.27867548156194744
302.16832497978663241
302.08874954068090801
302.05093364799472511
302.06449022863927212
302.13390568762446264
302.25552433287128906
302.41641360423454898
301.62260891400097762
301.68447263140217274
301.72886234955421969
301.73244260901668667
301.68824102238488649
301.60752016842866396
301.51047019251552683
301.4219489575427815
301.3650164158430016
301.35976193003051549
301.41926763259465361
301.5411717173039392
301.70423192825450087
301.87548461947824308
302.02293857821234724
302.12694168370728676
302.18346793254374916
302.2015215668201904
302.1986920414526594
302.19572036303230789
301.5538265446028845
301.59407182991776608
301.6523003755706327
301.70615988989993639
301.73241871135724068
301.71845572422273563
301.6653954036598293
301.58303484977568587
301.48844688530925851
301.40510797924827102
301.35978928349243233
301.37634481760733252
301.46338887920239813
301.60742724507872481
301.77768382700378424
301.93943644095173795
302.06686414957999887
302.1486668182535027
302.1873978540517669
302.19581750377523122
302.19191396323520848
302.19299861095072401
301.54921310607380747
301.5452329539693892
301.55117497995382791
301.58036228335492979
301.63005185908667727
301.68376475911696843
301.72250453288910421
301.73284008080162266
301.70860678362691942
301.65067694681192734
301.56685099026270791
301.47619890524708808
301.40811220331653431
301.39285645941498615
301.44795578904455624
301.56740731757838603
301.72498121497903867
301.88704479764720645
302.02534471593133958
302.12468894576380762
302.18288845187623792
302.20766436030828572
302.21292344489398829
302.21346060991925242
302.22019766761843584
302.23793352294853776
301.61953311691354429
301.63002266006128593
301.63526662239365805
301.65145838590916583
301.6845920982430016
301.72689771532765235
301.76339746209163195
301.78174334855509642
301.77876348935160422
301.75719482153789386
301.72308355229228027
301.6831486623868841
301.64846309313935535
301.63720461739598022
301.66680491123946695
301.74450959238225778
301.8599223376238001
301.98946446266029398
302.10754297260746171
302.19803709260577307
302.25723110866215393
302.29166526404196702
302.31171590474087907
302.32751839605913347
302.34531939878519324
302.36543817132417189
302.38366845168263808
302.39466877843426573
301.84565323591004926
301.87408857226449754
301.89872727142659414
301.91910192211116737
301.93676616052891859
301.95076175261812068
301.95880284252262982
301.96257041243592312
301.97210185496015811
302.00029914866041736
302.05572250654108757
302.13251676026067116
302.2141927151337768
302.28440018809334333
302.33680100643113065
302.37644684737324496
302.41181743206090005
302.4472425203059629
302.48051755402008212
302.50830011132819664
302.53009975952772947
302.54879698732929683
302.56601079334194537
302.58043968008627189
302.58814414259006753
302.58536168932545252
302.57067196239290752
302.54756366667675138
302.52537841316416234
302.51685837266961698
302.16112870727334894
302.20260272073898022
302.23974614615588052
302.27209009326611522
302.30519965013536421
302.34305793210154434
302.38299138481170303
302.41742735196248759
302.44237738383350234
302.46240579723189512
302.48803881683704731
302.52534033337474284
302.5695383819363542
302.60818602710889991
302.63106097623887081
302.64052727049772784
302.64780806722120587
302.66316607728202825
302.68776413437603878
302.712549959492776
302.72741382286449152
302.72965389489030485
302.72451289662666341
302.72099001617436898
302.72514488965140345
302.73716314734542721
302.75149450106999893
302.76045134226910704
302.75794994810098615
302.74598057582596766
302.73407948162690673
302.73342713587112485
302.23795317409724248
302.26539944982425823
302.28686937498486031
302.30019407907741424
302.3119003654103949
302.32877828495952599
302.35128788014077372
302.3744162494417651
302.39397681263363893
302.41318772615994703
302.44015990679878314
302.47745201809004811
302.51716734244172358
302.54503037563603129
302.55091195908386226
302.53797678597794629
302.51929500392600403
302.5074114021235232
302.50560453751216983
302.50740294225693106
302.5048028013811745
302.49628648316274848
302.48771751003118879
302.48695254847285696
302.4978500575371072
302.51793183268557641
302.53872130371394178
302.5501383914163398
302.54521828486178947
302.52514234788361591
302.50066273054733301
302.48409247981282988
302.48175132233848217
301.51332590952489454
301.52177244453059757
301.52813683183200055
301.54358877733534428
301.57570381522754133
301.61179617916076268
301.79226875713123945
301.80751428811134929
301.81648307735366643
301.8186711719873756
301.82233660044943235
301.83460808483391702
301.85509362807397338
301.87721456931700459
301.89507283952337957
301.91110288417019092
301.93305580035257663
301.96356550246389361
301.99463412286422681
302.01237675542228089
302.00876077246175555
301.98833895284394657
301.96539223981176292
301.95211089248857661
301.95047988584167342
301.95227454076848517
301.94796008708550517
301.93575488610514412
301.92275433695994025
301.91787731474249767
301.92610652088143297
301.9449981406543202
301.96540203122680168
301.97597814713617481
301.96915518320645333
301.94629776772211471
301.91863352390566888
301.89961679965040275
301.89584686991946683
301.9025443465888543
300.84177591889351788
300.8491508585725569
300.84698675467473095
300.84319924050458894
300.85015435417017216
300.87510134411985518
300.90331618109433975
300.79129329811911475
300.8078832307301127
300.81799110131458974
300.82133419472552305
300.82659132988044348
300.84073517843069112
300.8632957636999663
300.88710991254981764
300.90657192263620345
300.9245036947949643
300.94894725800196511
300.98304859338622919
301.01798670718420681
301.03910790120676211
301.03868604634021722
301.02129146729208742
301.00150384111401536
300.99164983219299074
300.99384685022198482
300.99941210451402185
300.99844075621865613
300.98938059022486868
300.97962186730325129
300.97859820391812491
300.99150514813294421
301.01573470380321851
301.04195134818394308
301.0578799082205137
301.0556950329043957
301.03711342259856565
301.01353799964846303
300.99914733949680112
301.00057392684902879
301.01283964291980055
301.02253438656936169
300.58916384441027958
300.56971339657451381
300.55088161091413212
300.53554753696857915
300.52461859156824175
300.5203157911961398
300.52049923004426546
300.52597960206554717
300.53397286279721357
300.54149452669071252
300.54944042019360495
302.52343227309995655
302.56755995484269306
302.59201537000063809
302.59516143989304737
302.57832312458378965
302.54526344493871193
302.50308311786062632
302.46010454828035563
302.42374674799691547
302.39751927774227624
302.379289287750737
302.36332573942667068
302.34479609694363944
302.32281410405857969
302.30124029842556865
302.28588493850497798
302.28068501575154414
302.28749455237903021
302.30569027930039283
302.33488482296058919
302.37534449954836191
302.42604817420038898
302.48348954587726212
302.54236636166899643
302.59633543799930067
302.64010189268503837
302.66986449191136899
302.68218838379118552
302.67367045653645619
302.64069882196605477
302.58215133449829182
302.50163511220119972
302.40908238814125752
302.3205178755889051
302.25429761155095321
302.22624256625925909
300.60595603855608715
300.60026857779541842
300.59836803968681807
300.59945612919375435
300.60185444591905934
300.60336854503526638
300.60187581494329834
300.59586212830595287
300.58472695600318048
300.56920870246102595
300.55084885939089645
300.53214174941297188
300.51531564518745654
300.5029562957449798
300.49554345354175666
300.49480773719392346
300.49806103170243432
300.50546456231558068
300.51414098070796399
300.52050420268443531
300.52607385060701972
302.49586692106032615
302.53757990173721737
302.56209968412201761
302.56642096152944532
302.55095189208896045
302.51954309799702969
302.47861859861365019
302.43637548683005889
302.40061083542565257
302.37581026146750673
302.36134764507266937
302.35272514618787909
302.3452337726162682
302.33670711004828036
302.32846971687899895
302.32377553544944249
302.32570697116409519
302.33602615600642594
302.35465988055301523
302.38128447570073831
302.41532338169321292
302.45476505566404057
302.49631062838329854
302.5360837821141331
302.57141909852151684
302.60129220936750016
302.62494670877470071
302.63992918098688278
302.64079207314267705
302.62107759127997042
302.57667639276206728
302.50999251427748504
302.43130509069857226
302.35672916125264464
302.30423157532806044
302.28721357208996778
300.59511064287272575
300.58934932062402368
300.58547170603384302
300.58295630416898803
300.5806900250944409
300.57721274661025745
300.57113735185168935
300.56156731460498577
300.54828922107225253
300.53212224307787892
300.51446429276143135
300.49751205956215472
300.48314243981030813
300.47359995469884097
300.46900367828931167
300.4707194700027344
300.47580198727962397
300.48396312138123676
300.49246998696514765
300.49727288140530845
300.50039859012395027
302.51189780479552383
302.53690785706220368
302.54511928965587231
302.53540648534675483
302.50922325461147011
302.47190520229025879
302.43145932288263111
302.39632334860993979
302.37254086073517101
302.3615771747506642
302.36074344425759364
302.36542304769119482
302.37206328681571676
302.37919910592842143
302.38728176985250684
302.39790155716497111
302.41176498548190921
302.42905441760473195
302.44972577186814533
302.47262553269712271
302.49564076641900101
302.51691599181697256
302.53513996307970046
302.55129864293041919
302.56771606189272461
302.58591107915924567
302.60394937790817949
302.61505626774163602
302.6107472236041076
302.58436251459357891
302.5357793026633999
302.47353337067380608
302.41220732893441436
302.3684557850876331
300.57671855213061463
300.57023044425062608
300.56356464338034584
300.55638471738581075
300.54815075724070539
300.53830054590224563
300.52650011737512159
300.51274802302856415
300.49771142229496945
300.4823897066543168
300.46842934817135529
300.45712293358428724
300.45023896890620563
300.44757723506569391
300.45029809026129897
300.45555735169568834
300.46287681409597781
300.46995532527569139
300.47254392213585561
300.47312148370559726
302.48413929176126658
302.50649369264624511
302.51397325885108103
302.50446928550042003
302.47906295740386895
302.44376695203374084
302.40631054610429373
302.37527499897782945
302.35737326800347091
302.35488953144977131
302.36572437013103354
302.38525745602623829
302.40830097745384819
302.43127740325576269
302.45204291729839952
302.47037770904830722
302.48589427842154009
302.49965467801843033
302.51177167915938071
302.5215147289522406
302.5280458976222917
302.53084826094800519
302.53081614686669809
302.53105737250126595
302.53549397437546986
302.54619203971054731
302.56163699495414221
302.57600179247299366
302.58148401762696267
302.57160853900563779
302.54481083462098923
302.50579229467308551
302.46483185651231906
302.4347690431439446
300.56058412203236685
300.551355701819773
300.54073559197206578
300.52917757440008018
300.51701461339706611
300.50442316574583401
300.49154983643205696
300.47853012170236298
300.46578070239468161
300.45378574252640647
300.4435221849116715
300.43558689609869816
300.43119360294764419
300.42979270703705197
300.43235491918346725
300.43636874145585125
300.4413847751414437
300.4458466776133605
300.44566553802735598
300.44370965762982451
302.46508817233228683
302.46634000854902524
302.45549201477433598
302.43423501759536975
302.40648800750568626
302.37895263944614044
302.35843695020707855
302.35077540580124378
302.35856095713972991
302.38092182152155374
302.41450726390797854
302.45381076526649622
302.49328873373963233
302.52782287817927909
302.5542508405099511
302.57044993964655077
302.57710856803595334
302.57537029369518677
302.56661519456650922
302.55302483093652199
302.53703482716292683
302.52198053922364807
302.51172789554561859
302.50934276423527081
302.51563020163655437
302.52831836186641112
302.54326083949837312
302.55515657609356595
302.55994382315435587
302.55489834627991286
302.54064905141484587
302.52187737967642533
300.52949026579040037
300.51585837574020843
300.50118866918649019
300.48645997509839844
300.47235865224951112
300.45931644321279919
300.44750953609297994
300.43712822554573449
300.42824288044749892
300.42126440869844828
300.41616322972009812
300.41361500856345401
300.41270577825741839
300.41415738412649716