/*--------------------------------*- C++ -*----------------------------------*\
  =========                 |
  \\      /  F ield         | OpenFOAM: The Open Source CFD Toolbox
   \\    /   O peration     | Website:  https://openfoam.org
    \\  /    A nd           | Version:  12
     \\/     M anipulation  |
\*---------------------------------------------------------------------------*/
FoamFile
{
    format      ascii;
    class       volScalarField;
    location    "0.0072";
    object      k;
}
// * * * * * * * * * * * * * * * * * * * * * * * * * * * * * * * * * * * * * //

dimensions      [0 2 -2 0 0 0 0];

internalField   nonuniform List<scalar> 
106891
(
0.018708137278097822231
0.018699051005462662828
0.018684339387111933983
0.018675366902345724718
0.018661084352436078243
0.018652749154720548591
0.01863841508349596901
0.018631387543264741474
0.018618116781474854105
0.018612116418062159273
0.018597360678414071727
0.018923716774004620961
0.018909230303888229646
0.018909226375765267325
0.018914259366284744829
0.018937064266090042342
0.019022550964024442788
0.019225825125545405875
0.019412761895676859669
0.019555289483400829786
0.019651515299326353242
0.019706184573933631377
0.019731185169639363364
0.019741488691866093674
0.019752148970199154276
0.019776530592531441077
0.019832488718272762995
0.019901427280993370245
0.019974704037374522991
0.020051609720932579012
0.020135176700654743714
0.020232628856902502845
0.02034857907113846176
0.020483609174348760967
0.020632075066566221005
0.020784156536044918334
0.020927567153019421137
0.02105115632518906113
0.021146897755929733309
0.021212560280351091396
0.021250916128926371218
0.021269657556155532191
0.021277976154447965362
0.021284810151115985538
0.021298422141205378133
0.021330597384089992202
0.02140954119981765269
0.021525338775829353649
0.021660090411698956075
0.019800327714313680633
0.019781830991110194162
0.019769845537590584328
0.019751917403001868767
0.019740718043689080979
0.019723314485975099175
0.019712526429408832457
0.01969575061508722566
0.019685616677413655951
0.019668894138624496565
0.019658951450727314009
0.019642130406638227264
0.019632052927425567429
0.01961543273741825702
0.019605916370536852211
0.019589326677696580065
0.019581109806458822653
0.019565483524021987094
0.019558301938618242316
0.019540705364236892611
0.020037247362068535961
0.020039065349512236863
0.020049772436347961663
0.020093200566974455529
0.020230648608125321314
0.020384175214868571757
0.020490869304524157724
0.020557614364018771819
0.0205997470255378963
0.020634419954466014235
0.020675063531335417105
0.020728200477166933147
0.020794029718723738842
0.020866265827731437371
0.020938874117790721302
0.021007281397996072775
0.021071507642747157318
0.021137596531064600097
0.021213275159223693445
0.02130611822963027896
0.021422572475418774629
0.021561704320874293395
0.021717392345965695621
0.021878589294909558949
0.022033354085646644077
0.022169911743289610895
0.022280516806662913759
0.022361012886846456937
0.022412528936658175638
0.022440241960232313462
0.022452367911481124069
0.022456615781588806779
0.02245938689338371555
0.02246565748218091324
0.02248252795938742235
0.02253260151707723799
0.02082230423379627729
0.020802110278628847817
0.020789368170473585679
0.020769369611134454873
0.020757116793683669936
0.020737464012888777443
0.020725432924606362189
0.020706556170873424011
0.020695357995499725351
0.020676550811919578582
0.020665589258866808031
0.020646519230006175893
0.02063532595343468834
0.020616241982136393474
0.020605451889740042382
0.020586377774135453111
0.020576863652314505287
0.02055873947057231324
0.020550238040510624554
0.020529592445365379277
0.021245808028934994732
0.021243439741551493199
0.021244892529282150689
0.021249609263902596856
0.021265142260402162405
0.021316916644061705
0.02141037362820413098
0.021500368454549556585
0.02158954083257744877
0.021680895924253353046
0.02177844440339141846
0.021884273469205892115
0.02199634694162743917
0.022109335077165327005
0.022212600705191511835
0.02230103055030638326
0.022371496915612246875
0.022430848538932030706
0.022489200386331103382
0.022559020529395172605
0.022648145441954644491
0.022757659756363728121
0.022884438863716282525
0.02301815396342557149
0.023148318127746408263
0.023263507467751635277
0.023359614605533568499
0.02343717232163271616
0.023501424766562840907
0.023562653685958979966
0.023629260090373624403
0.023709575902370681744
0.023806213279700751823
0.023918650489887772342
0.024042595116783381515
0.024171140192805425084
0.021873743198398569454
0.021859852017776296856
0.021837390803202984951
0.021823803239960994776
0.021801687782735244825
0.021788191085643771744
0.021766720044169570597
0.021754185105760465158
0.02173312263836049002
0.021721011635988822508
0.021699621594386094697
0.021687299284299882407
0.021665773672506740549
0.021653755169401690817
0.021632100055197264754
0.021621230578607281841
0.021600520894432852226
0.021590601303579200904
0.021566731439178810081
0.022408894036514033499
0.022400546720277945273
0.022400397809780168978
0.022403761884375150704
0.022418813361712787435
0.022452251779852758218
0.022480905350182947555
0.022512778924418847676
0.02256532754804932428
0.022651932153227836292
0.022777506938199746506
0.022933803376998681406
0.023104717265826805322
0.023269499706065489841
0.02341032373265921826
0.023515230972524100994
0.023581821324356010139
0.02361682559771295653
0.023634742099486672623
0.023649913056690865382
0.023678208402314809139
0.023742808763862352506
0.023901013201653172058
0.024107422604060374516
0.02431708716145414978
0.024513414609671196204
0.024683347647600058228
0.024821505171095752801
0.024930878713815204928
0.025019064632538647042
0.025097389515433526919
0.025175564394535991652
0.025261622501796181933
0.025356823333281031801
0.023022632042650002793
0.022997902967751868847
0.022982731488703934258
0.022957772101059731318
0.022942514837955063634
0.02291755361402295077
0.02290248479354546271
0.022878319241823458219
0.022864320835584317493
0.0228406957807793555
0.0228274878060529679
0.022803763775321922447
0.022790473651140567141
0.022766504860613174382
0.022753338352197043787
0.022729086682526381674
0.02271687654154754335
0.02269350705860441117
0.022682029425652828342
0.022654554442769214012
0.023346570278710843116
0.023351661325371281253
0.023374157262888634046
0.023457183960635979991
0.023588526331833604283
0.023689273775134536693
0.023765523779167324614
0.023833080036785209838
0.023911457857164405971
0.024011292142585401871
0.02413800775196357426
0.024284878156451757125
0.02444076004824028911
0.02458947688242955204
0.024718424967139881326
0.02482202275201328065
0.02490046902222231226
0.024965959432149846531
0.02502993917449217523
0.025106136451155825623
0.025203063636776771445
0.025322367888397274288
0.0254593445141844954
0.0256024482543781573
0.025742991711305774488
0.025867982489477837904
0.025973370910970291353
0.026058360068011054284
0.026127958690178976209
0.026194015931669818731
0.026265810746180541513
0.02635524505448551616
0.026466554208942196652
0.024176961495057849166
0.024160024477371040696
0.024132257353134359268
0.024115395632144324273
0.024087692872275304895
0.024070866401484942304
0.024043800497399375748
0.024028372964193817768
0.024002211921959726304
0.023988087567804527306
0.023961945556526937501
0.023947912782750047089
0.023921545113432210461
0.023907386619359205504
0.023880564099892441499
0.023866985805445002644
0.023840786806508914436
0.02382760207040163572
0.023796052016241849708
0.024577392766858913165
0.024690490302802188538
0.024812334662211294606
0.02490740590318010414
0.024980530983211644835
0.025041886376804340514
0.02510405631600436116
0.025181760390977990516
0.025283489043453968859
0.025415369559348029854
0.025571250811298486955
0.02574134206683286949
0.025908527552473671618
0.026058208494018100104
0.026180848037812828877
0.026272862587490359437
0.026342585165880463838
0.02639975602724839443
0.026458415090404634185
0.026527577356699742761
0.026615137869335243198
0.026722066271716870406
0.026842523405916161872
0.026971958276154874012
0.027101177347430130404
0.027225250740522954906
0.027340996661942500168
0.027448763697643565468
0.027551970184881913878
0.027656696373041158438
0.027768336199901922506
0.027889627095734902812
0.025414808616815699749
0.025396162796404029433
0.02536553616342941686
0.025346839277991715933
0.025316143118570080123
0.025297621578424862865
0.025267658980511295552
0.025250773963889774215
0.025222047308405586702
0.02520686857620951099
0.025178170670713852231
0.02516339871383538665
0.0251344527695012733
0.02511922288369944356
0.025089827591933393236
0.025074719277896267283
0.025045498485101503477
0.025030539983747452509
0.024994576551023686001
0.026016757392480584221
0.026016110598365591727
0.026016979605842979056
0.026020731190003709016
0.026029958718740451445
0.026056105572308394663
0.026134571565420251088
0.026298311238740389867
0.026490464888029228302
0.026709153929413163853
0.026942004768266497594
0.027169535101946310635
0.027374490746581742195
0.027541501390759625528
0.027667645051732005224
0.0277541989333250326
0.027815672178002862069
0.027864949077274391714
0.027916103460249298146
0.027978769610103929738
0.028058255900834758179
0.028159097322373712047
0.028275904185878816821
0.028408638386231435669
0.028552726207862047514
0.028704788387297532765
0.028860366678855622902
0.029017425025657253568
0.029173682939900049543
0.029327816088802263761
0.026700881484565241325
0.026667515967407032229
0.026647073294283656758
0.026613375869324704115
0.026593260959669611648
0.02656043486297630582
0.026542010751318657891
0.026510736320030672125
0.026494223804513446219
0.026462879621937322738
0.026447270788973107486
0.026415812318112356222
0.026399526683475210004
0.026367683716032208618
0.026351136563574649452
0.02631909281385642202
0.026302520900087104916
0.026262662636534452737
0.027161915920581466977
0.027164320152645689971
0.027174437801921663693
0.027208089228920113306
0.027315870766512952844
0.027504032228475139288
0.027696400068632227864
0.027898769167295934396
0.028117000160489079991
0.028346738462380498269
0.028575475985401596613
0.028784072698037056065
0.028957386414290839372
0.029082287299158758598
0.029160161896288040728
0.029202415036349564648
0.029229474826512624047
0.029262762733571985596
0.029317486884319607365
0.029406137535928186105
0.029530263239123315938
0.029686229438606430431
0.029862776277732684671
0.03005034023202958135
0.030236642560918246952
0.030411914160345797364
0.030571706906030820389
0.030716323492326072508
0.028148774162997131087
0.028114746130960068665
0.02809302097407150034
0.028059028189460648306
0.028037510714286912467
0.028004566614131566615
0.027984764918923595717
0.027952870385641703788
0.027934705654148492965
0.027902818398932615479
0.027886035881896614752
0.027853768358279434869
0.027837017521228527711
0.027804581808146103944
0.027787517479173035745
0.027754521183409496671
0.027737330287866068801
0.027699647590429782307
0.028668604579397623938
0.028721170835220577455
0.028831240053414128321
0.028938498843895169022
0.02904952476326677982
0.029178175438122757462
0.029333419099184403211
0.029518149020894036971
0.029724007665280265111
0.02993635253189545764
0.030136681843836863465
0.030310117345168544056
0.030447234660757049873
0.030549093275180346646
0.030624976747525969878
0.030689668467105368083
0.030759677992989488404
0.030845735400686989658
0.030956046020624048559
0.031089800904280540106
0.031240716523932371418
0.031400782133702925814
0.031561923503819297454
0.031718853615929645806
0.031867481623840905602
0.032007804770347508816
0.032140936034068756655
0.029342187504064885795
0.029299619161000638873
0.029268462772155400681
0.029225239341625221245
0.029194347363439846627
0.029151601708760868648
0.029120931690203567116
0.029079499770709844875
0.029047943331053590471
0.029007273056882311446
0.028974931823932625896
0.028933006774984091486
0.028901888666603821332
0.028858675511225367893
0.028827147528165411594
0.028784522916569733192
0.028752382744965016698
0.029488919252470983945
0.029574482554174191806
0.029650465351351247556
0.029703786450093298821
0.029748877915577207759
0.029803441465296152263
0.029879445639512947075
0.02998903376398002335
0.03013062950614050009
0.030300307387533392811
0.03048817709325007605
0.030681982198878538642
0.030872514546245462264
0.031055628900625121408
0.031236125786675783544
0.031417573808528657942
0.031608113050988519144
0.031807522929043971494
0.032011967957078085734
0.032210869082685035514
0.032389500126368736543
0.03253876550406724355
0.032646898601892015979
0.032718540830805969977
0.032758875089667238711
0.032782565572790779707
0.032808072918710927401
0.029336449987018509145
0.029302948714892800008
0.029237535159243575184
0.029203100953381976729
0.029136117807885948683
0.029100885929018997095
0.029033022548648968614
0.028997455660807136546
0.028928688880376453307
0.028892661444038736374
0.028822639169322213093
0.028786429297633371605
0.028715652726542164469
0.028679760612822395582
0.028589953404394987529
0.028597328222816627979
0.023844250584364581891
0.023912389581092766827
0.023961203603056521749
0.023989973583565797621
0.024003751111599667262
0.02400850783281171727
0.024010108414487293937
0.024012883662185513511
0.024021930181019595513
0.024051711437067087307
0.024146332297416583934
0.024350225852616386862
0.024560944464957795708
0.024768287829543215312
0.024973899839511412568
0.02517948288462501169
0.025383868850897592373
0.025585242430094183586
0.025778124576728612266
0.025954330314121663859
0.026106659746217494855
0.026223868377908261112
0.026306348053059550041
0.02635437418338728438
0.026377734000577381795
0.026386402279018499051
0.02638900662249597448
0.026386467258435547523
0.023430886485265919189
0.023372473164050996258
0.023339512992929693086
0.023280352271676761633
0.023247999977451860865
0.023188591182937964841
0.023156513857804289502
0.023096885817289049964
0.023065208403560716333
0.023006137405593516526
0.022975742448143623292
0.022917910927646577279
0.022889125133789794964
0.022817681463451606333
0.022835197791672048884
0.022482488468072211324
0.022532372850120409996
0.022559501804041443701
0.022576827203910132535
0.022602946207770986675
0.022654786508962104774
0.022744076305895487983
0.022872067940594986712
0.023029499766795011317
0.023198259963288003771
0.023359018219713843095
0.023495532582044297704
0.023599370598508213198
0.023672108742449311097
0.023725583628361246458
0.023777915831450613382
0.02384545692737947975
0.023939534647089123764
0.024063928852124574082
0.024213001797639643192
0.024374562484174147614
0.024533540290338943374
0.024674429502499126837
0.024788040644523601924
0.024869166560918368886
0.024919709704106670495
0.024946626958108970157
0.022053551216372552918
0.022029811750013748861
0.021985359943040121145
0.021961424979230249194
0.021916643772902463794
0.021892801652250697825
0.021848345802693854012
0.021825026503397258748
0.021781012687575516257
0.0217585157414820346
0.02171517868598561718
0.021693630319630046593
0.021642884971078826112
0.021637384684567266546
0.021578898103867726055
0.021628701113831059338
0.021665685542070045599
0.021707596602945928438
0.021770232551131103033
0.021862103127798550306
0.021981132072534381727
0.022113716662529571411
0.022243490990374235189
0.02235427517410988954
0.022437997306429580818
0.022495994437667202887
0.022539715506280311175
0.022586306998166404136
0.022651230449243234255
0.022748888250432655611
0.022882560647884971072
0.023047791613612065437
0.023231825509744723213
0.023415733687354872011
0.023583384799134608084
0.023720251028330488485
0.023821535026181214767
0.023888095580932577899
0.023928157325866672434
0.023955485293588103801
0.02124745544798121652
0.021204981816382889592
0.021182127952141211608
0.02113938869435588036
0.021116613122838110567
0.021074411148295800478
0.021052501347633367779
0.021011058312025245043
0.020990096729428201622
0.020949244310036262834
0.020928769316467650541
0.020881744941660177611
0.020873790792669717764
0.020617821145860849158
0.02070778303761795433
0.020838538423235790364
0.020977159371221357903
0.02112135069486652944
0.021263450318215415535
0.021392021672181210645
0.021497698413618673147
0.021576135965905945263
0.021630669379157470983
0.021670441596789411648
0.021710147875391737349
0.021764565062519416333
0.02184432236268392391
0.021957318566999423082
0.022100792591419900213
0.022265456252457124092
0.022437819552906707737
0.022601893244124145882
0.022745681272084216501
0.02285947880296245599
0.022941617799722372611
0.02299479975190953096
0.023026962944034220365
0.023050807458587035947
0.020395692306280251149
0.020373320101380022751
0.020332114442326212206
0.020310100126711708168
0.020269590613039106114
0.020248690425812537752
0.020208956118738664876
0.020188898823992933174
0.020149460639345667667
0.020129538717539741804
0.020083658846570096035
0.020075870630283584872
0.020249444648583771883
0.020303751484439160752
0.020330119501932218673
0.020354493961834987936
0.020397092281585382095
0.020462828355038664013
0.020545569990514222364
0.020632809166553682523
0.020713932879196973041
0.020783661929085289755
0.020845588216067054838
0.02090977970526565477
0.020988168308001119156
0.02109033607923292003
0.021219489819611376397
0.021373254748632639771
0.021544009844922024088
0.021721200639802141358
0.021892525537657969714
0.022047403397140237502
0.022176037487910634644
0.022274467642506162041
0.022340966131782130644
0.022381223686198777056
0.019656401335556097226
0.019699940244998492833
0.01973506496575201663
0.019776057804193610673
0.019827956240024233875
0.019889934680618039098
0.019955914047826140562
0.0200209092290669112
0.020081935977119384079
0.020142232954007716073
0.020208996033839143197
0.020292308271874847508
0.02039803707182566081
0.020527919673958793662
0.02067762362543551849
0.020839050002984242649
0.021001461750457847688
0.021154103527536445573
0.021287305538729615895
0.021393971363218494686
0.021471757545770107228
0.021520847290082592562
0.021547811157607888594
0.018919105196404481517
0.019004038522717908027
0.019094830714923897996
0.019185475267355759504
0.019267013267246758945
0.019338144957538924706
0.019397111372172960719
0.019452326419822838638
0.019512313456486619218
0.019585670245013838547
0.019678049110239983349
0.019789787087561027529
0.019916790512371423255
0.020049980780834218697
0.02018020834913268613
0.020298368681028553656
0.02039988668777717104
0.020483380899918416512
0.020551439194965055723
0.020608041311809110335
0.020659922691115144983
0.018693618803094148861
0.018818977578744087997
0.018911100926549212486
0.01896938166741722262
0.019001246374815289331
0.019021239398375140717
0.019045330742263621299
0.019086211907779919439
0.01915143718535307002
0.019241470704883040926
0.01935100715454271883
0.019470094494433966281
0.019588689953794893167
0.019697578199317201941
0.019792047158935236612
0.01986986277974756368
0.019933357078186997313
0.018438493677871113652
0.018486771964438125648
0.018533736828006842218
0.018587630383845164805
0.018654549722241557663
0.018733566371090661778
0.018820487630182167194
0.018908461948620093607
0.018989004576929160995
0.019058030171649472523
0.019112937037495190962
0.019156661153917172585
0.019194729131332421285
0.017629603517719538014
0.017703838103638836615
0.017792943168481553662
0.017895360543760587685
0.018003925105389461531
0.018106956733010146077
0.018197916310422685565
0.018267940482062337837
0.018317377793568484501
0.018347366599423084454
0.018365835027206196123
0.018382632088607381293
0.0087953496746352426844
0.0092731835801771900912
0.010509510825738584833
0.011615769878891226904
0.012331141406800453023
0.012695729122384522003
0.012825974259910869271
0.012841575880178816155
0.01282314672017214989
0.012728209697621156032
0.012381063687241603347
0.011708751710167804652
0.011067452511351457897
0.010503053495205057558
0.010052942635757537368
0.0097436829069337902581
0.0095741824162974276113
0.0095136831097711368338
0.0095117498517183537293
0.0095478889466692352245
0.019270634863146882121
0.019580824202105696907
0.020721373860732594102
0.022901082655982125946
0.024582823663293295463
0.025606883789836543813
0.026073960578094423218
0.026203013644737243454
0.026195064850615571578
0.026134187840633198163
0.025901734225234597508
0.025164297566116582833
0.024007636048040043031
0.022852060126581592858
0.021766521530117204086
0.020866191598490041459
0.020241180182939324389
0.019912160496270855936
0.019814711880420998735
0.019826818933931952132
0.019942219881209657939
0.020397967088109598965
0.064733458857863385161
0.065395074134313585512
0.067270828455285522351
0.070358145461940260756
0.072934156503414004913
0.074525513255217071262
0.075203403322708153866
0.075264255670627389083
0.075136958443083073922
0.07485791389796228601
0.074296322547402857128
0.073011774845051224947
0.071369784041753397963
0.069591242954993692837
0.067731152823903600924
0.066021678189372337564
0.064705785436491511375
0.06394300772781226494
0.063713062839429568385
0.06375854377195819267
0.064016954978513909702
0.064807167972681101187
0.067235183956325050847
0.071105932543603034279
0.074073694682750323981
0.075806572618669035291
0.35708358110785654027
0.36516961450172319426
0.37408178891192644944
0.38227656244475671787
0.38786982604004355268
0.39051617869701199526
0.39070398095586800213
0.39012452325273311304
0.38829281630108508638
0.38360550197612269807
0.37836507689184245562
0.37468299205663757601
0.37223881406824799178
0.37069428010020133435
0.36976913082677864697
0.36928314460261646435
0.36925409527774410989
0.36955366828016489311
0.37059255716870892483
0.3733692730164104856
0.3813141703400514948
0.39400753302691821078
0.40507715168535640693
0.4132122986768715367
0.41749325274957382881
0.4184258859802863495
0.41820212665089084858
0.41672754284679502934
1.7511729871365002698
1.7621638370945191809
1.7716389013938973473
1.7778846521427322802
1.7803449557571731088
1.7803472569480713883
1.7787679593039114057
1.7734552789997251043
1.7618135141157105217
1.7507288557336855295
1.741861643365467005
1.7350942612071931226
1.7303930755132026498
1.7273407783696970164
1.7254249342520224797
1.7248179509257610675
1.7248667390936733845
1.726091628004876366
1.7307821132043144097
1.7426169354475313789
1.7553033182766781817
1.7664057570436362266
1.7739629015200055751
1.7771238234063269079
1.777587431294479714
1.7761285442809442436
1.7691199336672995823
1.752349532753695982
1.7351481427892623266
1.7198161243958791644
4.151685175230197089
4.14030041398011317
4.1269583302939043534
4.1110142226380643748
4.0926380058942291029
4.072773688618198662
4.0527838835099219139
4.0339840722300488451
4.0172170492534382547
4.0027895353695610581
3.9905034312838574273
3.9798226070070894522
3.9701372716891398795
3.960975082414436077
3.9521329157342544036
3.9436542658087683222
3.935670252193152141
3.9281635825987444299
3.920753239406408408
3.9126691447147661229
3.9030019390686843117
3.8910363215039875939
3.8766305762548016745
3.8602804821032439264
3.8427023959068833392
3.8249057708409828216
3.8076925398251928456
3.7918665744043562604
3.7780133118467573716
3.7664538468648602887
3.7573123668517434126
3.7502382900517607922
6.0644280357715434349
6.0400837064753307715
6.0160752685676408547
5.9925374392463170992
5.9696200431927488594
5.9473699522478566948
5.9258211655448311816
5.904955571692418026
5.8847819571629811364
5.8653365344162882167
5.8466587993484093744
5.8286879424184592224
5.811221078202678747
5.7939735025878800201
5.776748933580048373
5.7595583894742237163
5.7426139187707825329
5.7260745944831290544
5.7098491361984526904
5.6935963339631063818
5.6769842062523272475
5.6599389422358044044
5.6427772143769159285
5.6260070604632863578
5.610008639672346753
5.5948824389123013034
5.5804934965645154321
5.5668026541740225355
5.5538599982069785099
5.5417824828450727992
5.5304274694455992645
5.5195006815342262385
5.5085180736263907875
10.254269264734585221
10.153387047828870138
10.056137632175124352
9.9623592388802570952
9.8719538283915362342
9.7843774943500960717
7.3638362836699799985
7.3404734293253568467
7.3180472775310141387
7.2966464541397098031
7.2762770636043443417
7.2568316658155156418
7.238122856579903619
7.219975904411175982
7.2024077708829077338
7.1855147941389505561
7.1693371025141168218
7.1536912715257514606
7.1381190358070982782
7.122177339003821217
7.1057170036830292759
7.0890490937222923051
7.0727146644044385226
7.0570874534545291468
7.0420942413174207886
7.0272699696146059267
7.0121423924835131203
6.9966638245507670746
6.9812333742417784777
6.9663837048966037457
6.9523796865271485501
6.9390954093444348061
6.9262815408851707843
6.913929024914295951
6.9022727595550161794
6.8914639484368338529
6.8813263369818278292
6.8712895347355633646
6.8608955364433752422
6.8498465683793057224
9.9665447629565040444
9.863265002984915597
9.7652792534253425316
9.6721958257733557929
9.5835550139978717965
9.4979065562744171558
9.4129887514443986163
7.2040860372090511632
7.1948370949114828221
7.1874718851967509536
7.1812579387868060721
7.1753742393928341414
7.1691560615111500354
7.162161693182583555
7.1543403029023675543
7.1457365489133968239
7.1362613898524633882
7.1254559262699403988
7.1126551594845714988
7.0974240546101086125
7.0801215409097544295
7.0618261525704824066
7.0437943821899571262
7.0266476808769766649
7.0100450588107499073
6.9931457431507855205
6.9753613899918835983
6.957008674292610273
6.9392244111541065976
6.9231794819392531437
6.9093284219397474999
6.8972146681054233852
6.8860065375681305255
6.8752131983372830604
6.8648107674122575972
6.8547748806141148847
6.8444843046003516207
6.8328366745537794102
6.8188740093019237776
6.8024993934599331524
6.7844296453878918385
6.7655022837402540858
2.042619626670624336e-06
2.0476887978604489083e-06
2.0524979151314925439e-06
2.0549887531179594855e-06
2.0577510376338234943e-06
2.0613016382541779392e-06
2.0636035607389678742e-06
2.0685210637473185753e-06
2.0725144722175773966e-06
2.0829005188037529217e-06
2.0845150478606415506e-06
0.00011218887863521745678
0.0001015333270315525461
9.2893544838725086764e-05
8.5999056349420302417e-05
8.0581853181652178487e-05
7.6387575047220723301e-05
7.3165487592875236723e-05
7.0725275579232459622e-05
6.892044316737023005e-05
6.7639400905974902001e-05
6.6760885131711351958e-05
6.6184912513154572152e-05
6.5810692699684730247e-05
6.5557249290377277401e-05
6.5368459001077273973e-05
6.5225123362395141541e-05
6.5128685278698021763e-05
6.5096323283671847395e-05
6.5103812243263387894e-05
6.5166073110938153661e-05
6.5419817449256347842e-05
6.5813087697397224429e-05
6.6113357556429365458e-05
6.6329847819442724335e-05
6.6483477601917507832e-05
6.6594486834893002543e-05
6.6677069479102008768e-05
6.6731737894961992816e-05
6.6772044670140352513e-05
6.6820033740678369798e-05
6.6919588806100543531e-05
6.7189651693108450492e-05
6.798378846091551091e-05
6.9062768510398003016e-05
6.996235848059274994e-05
7.0616040872530325156e-05
2.106307091308939652e-06
2.1060631857863729075e-06
2.106220582938928574e-06
2.1065903391823379019e-06
2.107340063631656066e-06
2.1090850000034712097e-06
2.1124960681270996505e-06
2.119110312541964603e-06
2.1239297145126812057e-06
2.1306278487355356613e-06
2.1365532411525405834e-06
2.1421163130248506624e-06
2.147721940463196328e-06
2.150727040296400385e-06
2.154397706982497244e-06
2.1593623940670187125e-06
2.1624273950129178826e-06
2.1689699536287983634e-06
2.1737924143249062285e-06
2.1855359715036638071e-06
2.1869134627051999253e-06
0.00012722939311717411924
0.00011575707513141227773
0.00010555320307716158361
9.6621326415700372562e-05
8.901460976927337565e-05
8.2726594923735526522e-05
7.767380669588283635e-05
7.3690567843503427268e-05
7.06367300636882205e-05
6.8346803057696796911e-05
6.6663238229172847569e-05
6.5435794458805544805e-05
6.4547669949580421356e-05
6.3919607154729022485e-05
6.3479500107344825205e-05
6.319404369738616876e-05
6.3031687348059261189e-05
6.2976215432339097242e-05
6.2978326885989731505e-05
6.3021410186480097135e-05
6.3226305626758283842e-05
6.3943998768362632031e-05
6.5163343883512729431e-05
6.6313417128480397805e-05
6.7355464564994961063e-05
6.8250534969138614374e-05
6.8968029799366188833e-05
6.9499459238407264284e-05
6.9840591731882848748e-05
7.0021120539928000375e-05
7.0084757431659590148e-05
7.0099611115166074633e-05
7.0089289745969864912e-05
7.0046458975379674952e-05
6.9944600556360290739e-05
6.9822027600495453433e-05
2.2073045923644856427e-06
2.2054981410448629171e-06
2.2049236733250082984e-06
2.2050639656967327841e-06
2.2055513725939465969e-06
2.2067533972526966344e-06
2.2093634284459788077e-06
2.2161953947772099832e-06
2.2215407119268173208e-06
2.2291127624584560473e-06
2.2352292845802918248e-06
2.2417728950454610083e-06
2.2482997778093252313e-06
2.2521094782120664246e-06
2.2584831357265822959e-06
2.2659955541488687476e-06
2.2703057062520590516e-06
2.2794494675689178502e-06
2.2853597497109424537e-06
2.2984365504438271707e-06
2.3002213401222403308e-06
0.0001227161355384630032
0.00011106585364030516596
0.00010100984815301431428
9.2458118858426899928e-05
8.5331130870068986412e-05
7.9511067225501402106e-05
7.4889181634774258851e-05
7.1330117904697598261e-05
6.8700463523702117179e-05
6.6855828572998782493e-05
6.5643010710272859743e-05
6.4918647401635939573e-05
6.4560406845597432222e-05
6.443201859883735034e-05
6.4422018680262876683e-05
6.4456939663793587575e-05
6.4622012945165588642e-05
6.5183930455201075788e-05
6.6047017777223120463e-05
6.6796175227668667398e-05
6.7448475956026634299e-05
6.80484648078108484e-05
6.862562222939114112e-05
6.9196252372059644463e-05
6.9774646599415787685e-05
7.0352491492505921209e-05
7.090159231948708245e-05
7.1388386795449905345e-05
7.1773933932142524022e-05
7.203299413062869258e-05
7.2172237423230665553e-05
7.2230770020644745159e-05
7.2244003021875550521e-05
7.2248561316727653425e-05
2.318155927367746126e-06
2.3178601410351395981e-06
2.318064511610799268e-06
2.3187619607018385913e-06
2.3205199408552720073e-06
2.3250610893640473184e-06
2.3330490221986369512e-06
2.3389122659467410947e-06
2.3459696575697346981e-06
2.3518076755521063161e-06