/*--------------------------------*- C++ -*----------------------------------*\
  =========                 |
  \\      /  F ield         | OpenFOAM: The Open Source CFD Toolbox
   \\    /   O peration     | Website:  https://openfoam.org
    \\  /    A nd           | Version:  12
     \\/     M anipulation  |
\*---------------------------------------------------------------------------*/
FoamFile
{
    format      ascii;
    class       volScalarField;
    location    "0.0072";
    object      pMean;
}
// * * * * * * * * * * * * * * * * * * * * * * * * * * * * * * * * * * * * * //

dimensions      [1 -1 -2 0 0 0 0];

internalField   nonuniform List<scalar> 
106891
(
98834.832524650046253
98835.405827706039418
98836.010310809957446
98836.647764793757233
98837.320008980939747
98838.028644251913647
98838.7750055170618
98839.560113646177342
98840.383386780857109
98841.24375707814761
98842.13146657255129
98815.904630470278789
98815.836370673117926
98815.759781595537788
98815.676737458197749
98815.590948440280044
98815.506183436358697
98815.424507784598973
98815.346128775243415
98815.269555643113563
98815.193724111566553
98815.118995946220821
98815.047464645598666
98814.981730346480617
98814.923330232209992
98814.872006579680601
98814.825436904706294
98814.780373890534975
98814.734417968735215
98814.687382303294726
98814.641062505237642
98814.597770064297947
98814.558447439500014
98814.521974779388984
98814.48594070818217
98814.448367003627936
98814.408996672762441
98814.369538202125113
98814.332901680056239
98814.301700879019336
98814.276756054692669
98814.257477207429474
98814.242473335922114
98814.230559338669991
98814.221038084637257
98814.213438115155441
98814.206782854962512
98814.199598539504223
98814.190695882120053
98833.967587746723439
98834.375052610950661
98834.803194975218503
98835.253037519374629
98835.725470186182065
98836.221302806603489
98836.741315485865925
98837.286321152103483
98837.857194149692077
98838.455020031993627
98839.081155880019651
98839.737251593076508
98840.425034399391734
98841.146282778165187
98841.902565923432121
98842.695107619132614
98843.5248378214892
98844.391012303414755
98845.292535146392765
98846.220071289135376
98815.785153106160578
98815.715115457715001
98815.639468001507339
98815.561199388175737
98815.483125294107595
98815.406773315015016
98815.331642038654536
98815.256538134926814
98815.181153711586376
98815.10679277915915
98815.036160521442071
98814.971856674397714
98814.914994460195885
98814.864934664801694
98814.819687459530542
98814.776563054721919
98814.73361485679925
98814.69056062157324
98814.648560806686874
98814.609056091401726
98814.572319571438129
98814.53699297257117
98814.500900408937014
98814.462124375204439
98814.42022208905837
98814.376729078998324
98814.334684668647242
98814.297192894038744
98814.266174892632989
98814.241918481915491
98814.223788942268584
98814.210655798771768
98814.201290009048535
98814.194183670406346
98814.187667785619851
98814.180341133076581
98837.100126421501045
98837.560914197179954
98838.04186779493466
98838.544120874561486
98839.068771545003983
98839.616784201003611
98840.188936011283658
98840.785895246066502
98841.408297005895292
98842.056894521374488
98842.732656797583331
98843.436885968461866
98844.171117233636323
98844.937047549668932
98845.736280603916384
98846.570077040538308
98847.43945308077673
98848.343730050633894
98849.281908595497953
98850.24510821243166
98815.749132329860004
98815.685448236079537
98815.61660794900672
98815.545168969474616
98815.473305313658784
98815.401798913284438
98815.329862713289913
98815.256723237966071
98815.182878759689629
98815.110533061815659
98815.042724801416625
98814.981758487701882
98814.928121859396924
98814.880655004497385
98814.837341831080266
98814.796106183159281
98814.75575547212793
98814.716243048198521
98814.678205203977996
98814.642176793655381
98814.607856237431406
98814.573882360375137
98814.538126483486849
98814.498718198839924
98814.455134648014791
98814.408717074693413
98814.36227579433762
98814.319236292009009
98814.282322685961844
98814.252761212395853
98814.230492603062885
98814.214596387566417
98814.203684898136999
98814.196063083960325
98814.189790398697369
98814.183317992545199
98840.734620241128141
98841.265137199763558
98841.816656802140642
98842.390449796206667
98842.987622284679674
98843.608990232256474
98844.25508253677981
98844.92622358223889
98845.622760267535341
98846.345243441392086
98847.094586831342895
98847.872043516355916
98848.679102557362057
98849.517316641678917
98850.387994523742236
98851.292297789172153
98852.229724328732118
98853.199524452691549
98854.193520097207511
98815.65212593137403
98815.590321573341498
98815.526638674578862
98815.462241461558733
98815.396663435836672
98815.328761020238744
98815.258316773848492
98815.187101243762299
98815.118645111608203
98815.056469899922376
98815.002238294764538
98814.955062121487572
98814.912557497940725
98814.872340186775546
98814.833204987109639
98814.79531802792917
98814.759285218708101
98814.725564548993134
98814.693915954499971
98814.662959084540489
98814.630525145010324
98814.594544527222752
98814.553848206167459
98814.508501468677423
98814.459954349455074
98814.410955614279374
98814.364731619119993
98814.323887125923648
98814.290021697001066
98814.263858623744454
98814.245265913399635
98814.233239807741484
98814.226055438703042
98814.221486749273026
98843.322388138360111
98843.879771341526066
98844.456582812912529
98845.054233347414993
98845.67413933048374
98846.317491636291379
98846.985071873335983
98847.677214535258827
98848.393952577593154
98849.135259398070048
98849.901254702417646
98850.692414916396956
98851.509663629753049
98852.35430097077915
98853.227866806933889
98854.131731797737302
98855.067163495084969
98856.033826250961283
98857.031195187490084
98858.051868393013137
98815.629836163279833
98815.574795625318075
98815.519377268385142
98815.463330006547039
98815.404935949933133
98815.342455403588247
98815.276049859778141
98815.208664224701351
98815.145044505727128
98815.089255801343825
98815.042380174389109
98815.00238249974791
98814.965596531124902
98814.929071423277492
98814.892183613934321
98814.856342834609677
98814.823518815537682
98814.794420116697438
98814.767801465117373
98814.740760659900843
98814.709999381244415
98814.673599642890622
98814.6315831533866
98814.585179848480038
98814.536380168472533
98814.487621381966164
98814.441232307086466
98814.399219903600169
98814.363324072241085
98814.335071513822186
98814.315399489278207
98814.303960919831297
98814.298851685496629
98846.985579115178552
98847.605469001820893
98848.246138482529204
98848.909062600156176
98849.59542646711634
98850.305936429387657
98851.040805425276631
98851.799811349264928
98852.582508088307804
98853.388513061639969
98854.217841244433657
98855.071106865259935
98855.949449955616728
98856.854414109024219
98857.787428046809509
98858.749884333126829
98859.741709392998018
98860.762701822997769
98861.806389522418613
98815.556899408082245
98815.511531916374224
98815.465605161734857
98815.416096484841546
98815.36086941837857
98815.300589200400282
98815.239035286445869
98815.181555271279649
98815.132452260004357
98815.09256376758276
98815.059219086295343
98815.028301312195254
98814.996722435273114
98814.96416559399222
98814.932890451877029
98814.905464496914647
98814.882211599819129
98814.860720183423837
98814.8372330434795
98814.808297739291447
98814.772309513631626
98814.730069493118208
98814.68406059811241
98814.637123591848649
98814.59148489907966
98814.548459306548466
98814.509011529327836
98814.474565767523018
98814.447143344994402
98814.428454487977433
98814.418804628105136
98814.416626682446804
98850.040356983241509
98850.700157011742704
98851.380720159912016
98852.083476935018552
98852.809510911552934
98853.559378652222222
98854.333049004126224
98855.130026508079027
98855.949643935149652
98856.791367843004991
98857.654997392382938
98858.540820033638738
98859.449653867457528
98860.382815916324034
98861.34167304384755
98862.327775960235158
98863.34134759704466
98864.382457960251486
98865.445479304384207
98815.517660593381152
98815.481920311358408
98815.441785139031708
98815.395475867437199
98815.343815638843807
98815.290253341052448
98815.239662944382872
98815.196340365422657
98815.16181801512721
98815.134304235165473
98815.110097952390788
98815.08570968019194
98815.060134831684991
98815.03513504723378
98815.012993616488529
98814.994241821754258
98814.976705491630128
98814.956327620981028
98814.92927381611662
98814.894290503434604
98814.853362230482162
98814.810317382783978
98814.768637934044818
98814.730084410781274
98814.694617327841115
98814.661904344626237
98814.63277441856917
98814.609350184735376
98814.593930782779353
98814.587457171874121
98853.73410163623339
98854.45171300212678
98855.19125497272762
98855.953540045695263
98856.738856785639655
98857.547007056491566
98858.377419322467176
98859.2293646659964
98860.102217278326862
98860.995706199333654
98861.91009383572964
98862.846038534567924
98863.804623780408292
98864.786911528470227
98865.794167768966872
98866.826503114541993
98867.88412914701621
98868.962322457984556
98815.504150221400778
98815.472433336894028
98815.435193360070116
98815.393345380245592
98815.349307970929658
98815.306740776024526
98815.26938462020189
98815.239550013371627
98815.217022405966418
98815.199327573296614
98815.183433000041987
98815.167409201065311
98815.151218516068184
98815.135871193429921
98815.121590460286825
98815.106924586201785
98815.089266846684041
98815.066364913931466
98815.03779334295541
98815.005294856688124
98814.971737473373651
98814.939718618188635
98814.910414841608144
98814.883610902092187
98814.858604516790365
98814.835655297647463
98814.816553925425978
98814.80359179287916
98856.695182502342504
98857.446117235842394
98858.218126494990429
98859.011904126906302
98859.827676281987806
98860.665237001128844
98861.524095832239254
98862.403681517243967
98863.303532458347036
98864.223430587007897
98865.16351282755204
98866.124204775769613
98867.106258692860138
98868.110277169558685
98869.137060124165146
98870.186406937995343
98871.258276282635052
98872.348300630910671
98815.524735883896938
98815.4993597369903
98815.471182249384583
98815.440925616814638
98815.41060657343769
98815.382866984204156
98815.360089802910807
98815.343379635203746
98815.332063512760215
98815.323782734165434
98815.315519574898644
98815.30491913491278
98815.291182777640643
98815.274935186214861
98815.25736463094654
98815.23939196561696
98815.221373282838613
98815.203367940892349
98815.185493596174638
98815.168131473459653
98815.151537526966422
98815.135515280402615
98815.119428995923954
98815.102785695431521
98815.086094271478942
98815.070870191892027
98815.058852222806308
98860.363455148341018
98861.16374263149919
98861.984211500253878
98862.824940638587577
98863.685836589473183
98864.566769384386134
98865.467653941886965
98866.388525887072319
98867.329499964951538
98868.29078364140878
98869.272513164294651
98870.274902070595999
98871.297928120111465
98872.341742277334561
98873.405678254086524
98874.489373686679755
98875.588893307256512
98815.603971362768789
98815.591381463586004
98815.579324181118864
98815.566263781220187
98815.551087973901303
98815.534122368349927
98815.517079357276089
98815.502476367750205
98815.492256262019509
98815.486400410809438
98815.482873067521723
98815.478651733603328
98815.471029373118654
98815.458735706619336
98815.442828913495759
98815.426132083361153
98815.411810914054513
98815.401924656558549
98815.396907071684836
98815.395775841752766
98815.396491358755156
98815.396697974341805
98815.394641391831101
98815.38944752086536
98815.380797354067909
98815.368796593829757
98815.354268655108172
98864.004896858794382
98864.847226234109257
98865.708142859773943
98866.587945227511227
98867.486953426341643
98868.405520145097398
98869.343989918779698
98870.302641268557636
98871.281664689828176
98872.280988922560937
98873.300383452762617
98874.339163741562515
98875.396687616681447
98876.47168994344247
98877.563354676880408
98878.668104577343911
98815.68686734775838
98815.683513984491583
98815.681545843108324
98815.678386006591609
98815.672805144684389
98815.665577858628239
98815.658786511514336
98815.654236958143883
98815.65263170475373
98815.653129704398452
98815.6536844024522
98815.651938167211483
98815.646082166262204
98815.635516003632802
98815.621520510801929
98815.607191513568978
98815.595910966017982
98815.590027147540241
98815.59028507876792
98815.595789089013124
98815.604548956107465
98815.614255026361207
98815.622856975038303
98815.62848226208007
98815.629278778593289
98815.623821540531935
98815.611873117886716
98815.594819134785212
98867.198242969418061
98868.072532215039246
98868.965257051793742
98869.876982006942853
98870.8082193810842
98871.759396040870342
98872.730738886297331
98873.722204549761955
98874.733349978720071
98875.763467669428792
98876.811476893897634
98877.87642406798841
98878.956936367772869
98880.05209343455499
98881.158816131894127
98815.764198700417182
98815.769548630196368
98815.772560896715731
98815.772184467234183
98815.770299883064581
98815.769955932773883
98815.772929511702387
98815.778811702650273
98815.785393027821556
98815.789950968639459
98815.79056006706378
98815.786599139362806
98815.778855893178843
98815.769247450472903
98815.760132456300198
98815.753725631642737
98815.751578396229888
98815.754233965169988
98815.761441937560448
98815.772539352605236
98815.786346688575577
98815.801074281029287
98815.814222654589685
98815.822440444317181
98815.822599119492224
98815.813328687829198
98815.796087587223155
98869.932321617568959
98870.834123954773531
98871.754953317780746
98872.695373351918533
98873.655698640810442
98874.635899962784606
98875.635632776786224
98876.654155270662159
98877.69052125341841
98878.743494250476942
98879.81196934163745
98880.894639149599243
98881.99066777448752
98883.097348929280997
98815.860345515102381
98815.86666847919696
98815.869878470868571
98815.872831192260492
98815.878798698380706
98815.889014189568115
98815.901785838388605
98815.913873376630363
98815.922182092937874
98815.925243535224581
98815.923672523800633
98815.919559546571691
98815.915367493231315
98815.912522857470321
98815.911577824517735
98815.912680581095628
98815.915992815542268
98815.922164119649096
98815.932214217784349
98815.946604508411838
98815.964246180301416
98815.981961331926868
98815.995202367237653
98815.999736289624707
98815.99368371370656
98815.978522015007911
98872.508475670867483
98873.43732268907479
98874.385558462367044
98875.353289181701257
98876.340237285010517
98877.345789493017946
98878.368990680770366
98879.408763470797567
98880.463887592864921
98881.533391083401511
98882.616204757854575
98883.711679609070416
98884.817446971777827
98815.946463791580754
98815.952307213156018
98815.958611058740644
98815.968926261964953
98815.984301714459434
98816.002347879722947
98816.018813674803823
98816.030443216033746
98816.036279866137193
98816.03792732648435
98816.038372606461053
98816.040167366023525
98816.04396328087023
98816.048763976228656
98816.05355047986086
98816.05814867389563
98816.063669832525193
98816.072280673019122
98816.085791274395888
98816.103727045847336
98816.122564256453188
98816.137318098073592
98816.143817394302459
98816.140530927645159
98816.129275715036783
98874.948633109452203
98875.903591976981261
98876.877191623483668
98877.868867613331531
98878.87784560828004
98879.903176018298836
98880.943914830480935
98881.999091111458256
98883.067966838498251
98884.149732613921515
98885.2439347578038
98886.348441441848991
98816.026254939570208
98816.03532503824681
98816.048827827064088
98816.067643360249349
98816.08932942172396
98816.10949371989409
98816.124588449441944
98816.133907971394365
98816.139461829108768
98816.144471674881061
98816.15141834266251
98816.160781821425189
98816.170860185753554
98816.179619881353574
98816.186521065450506
98816.192844935649191
98816.201065110319178
98816.213366205949569
98816.229826018039603
98816.247550149550079
98816.261901811943972
98816.269012708333321
98816.267911836694111
98816.260951846852549
98816.094999252309208
98816.109905543955392
98816.129329080315074
98816.151611189037794
98816.173305686563253
98816.191358041789499
98816.204893661721144
98816.215190679722582
98816.224946336384164
98816.236481176805682
98816.250273021243629
98816.264638597815065
98816.277534464665223
98816.288140523829497
98816.297420334492926
98816.307299545602291
98816.319542656827252
98816.334335995838046
98816.349585311836563
98816.361738276100368
98816.368048122196342
98816.368461419231608
98816.365784853667719
98816.179281615754007
98816.199507498953608
98816.220477132097585
98816.239963563872152
98816.257148428936489
98816.272746957358322
98816.288353875890607
98816.305334622127702
98816.323752144788159
98816.342322371856426
98816.359418699212256
98816.374092342361109
98816.386658762276056
98816.398365597211523
98816.410447777336231
98816.423316553307814
98816.435861108082463
98816.445887356065214
98816.451933849573834
98816.454674428910948
98816.456737486252678
98816.28652496713039
98816.307769107341301
98816.329502191845677
98816.351909891542164
98816.374580292918836
98816.396644423264661
98816.41701945051318
98816.434916544545558
98816.450312136250432
98816.463839159012423
98816.476359258260345
98816.488321826414904
98816.499356360101956
98816.508526225836249
98816.515490692589083
98816.521372855830123
98816.528410512430128
98816.415701693695155
98816.441081071665394
98816.464010351381148
98816.484142835091916
98816.501370585610857
98816.515965619168128
98816.528547391673783
98816.539827083892305
98816.55025045441289
98816.559982918246533
98816.56926297119935
98816.579150114572258
98816.591265433904482
98816.464390006862232
98816.488919395487756
98816.510060809014249
98816.52805080775579
98816.543378413116443
98816.556913042964879
98816.569438014397747
98816.581671225096215
98816.594143483525841
98816.607276159717003
98816.621794746140949
98816.63852262646833
98822.420292212802451
98822.195794723273139
98821.964350495865801
98821.729241019260371
98821.49434008411481
98821.262996977893636
98821.036983602301916
98820.816640807213844
98820.601573546329746
98820.391427861555712
98820.186549580408609
98819.988113291663467
98819.797602838298189
98819.616049401665805
98819.44525932923716
98819.288102866485133
98819.14737463570782
98819.024217559854151
98818.917524393968051
98818.823898463742808
98822.659590396069689
98822.446684804337565
98822.225002099017729
98821.995871799736051
98821.76194015488727
98821.526268521512975
98821.291360823990544
98821.059376276345574
98820.83197920085513
98820.610398233387969
98820.39548387582181
98820.187630690139486
98819.987114933115663
98819.794192417379236
98819.609972761012614
98819.436950800038176
98819.278853484443971
98819.138925457576988
98819.018002990342211
98818.914225121334312
98818.823906929974328
98818.742818396916846
98823.07635957893217
98822.881126061518444
98822.679049493046477
98822.468152093279059
98822.248491916805506
98822.02142989829008
98821.788768292783061
98821.552551484885043
98821.314765986302518
98821.077633634515223
98820.843949202477233
98820.616597816362628
98820.397574491638807
98820.187315775023308
98819.985193441243609
98819.790488899016054
98819.603881997390999
98819.428728902261355
98819.269875682351994
98819.131008281212416
98819.012543556891615
98818.911786525888601
98818.824625865905546
98818.746975686706719
98818.675575210159877
98818.607756059238454
98823.276664882374462
98823.087623874729616
98822.894505086369463
98822.694196317097521
98822.485110803056159
98822.267374932955136
98822.042017974104965
98821.810363661425072
98821.573770053830231
98821.333647364663193
98821.092105084273499
98820.853051523838076
98820.620811378408689
98820.398274688297533
98820.185968476391281
98819.982492437266046
98819.786356445169076
98819.597847192155314
98819.420776162398397
98819.260989971284289
98819.122648447795655
98819.005860667602974
98818.907433818429126
98818.822832492805901
98818.748059493125766
98818.680204742922797
98818.616412158880848
98818.552867871068884
98823.466372073278762
98823.280614560208051
98823.094971707643708
98822.904761967947707
98822.706654157547746
98822.49920035157993
98822.282656488881912
98822.058257375640096
98821.827187866234453
98821.590256165523897
98821.348313317022985
98821.103408701092121
98820.859991890654783
98820.623653693837696
98820.398226633085869
98820.184393688366981
98819.979998735841946
98819.78245599073125
98819.591969274319126
98819.413242772905505
98819.253091424194281
98819.115987883094931
98819.001453123870306
98818.905207301882911
98818.822458293783711
98818.749834147951333
98818.684965445223497
98818.624770849346532
98818.564203286645352
98818.498086451378185
98823.655889336427208
98823.46811681590043
98823.284992057015188
98823.101483017511782
98822.913004337446182
98822.716111491288757
98822.50942451042647
98822.293801996711409
98822.070691661036108
98821.840749707116629
98821.604028757981723
98821.360596404701937
98821.11252195535053
98820.865131368322182
98820.625162770505995
98820.397345946621499
98820.182340750383446
98819.97731056525663
98819.778946048114449
98819.587044503714424
98819.406751471397001
98819.245796001036069
98819.109133457459393
98818.995906465890585
98818.901329705389799
98818.820412028580904
98818.749926243297523
98818.687766964285402
98818.630732248653658
98818.572911532741273
98818.507910659813206
98818.4333023273648
98823.658144871049444
98823.472130707174074
98823.29092484251305
98823.109252081820159
98822.922366914732265
98822.726758884091396
98822.521151646462386
98822.306610936881043
98822.084492661757395
98821.855163323270972
98821.618295319727622
98821.373559861487593
98821.122908366451156
98820.872282144409837
98820.629524596995907
98820.400027122377651
98820.18438713667274
98819.979110164102167
98819.779927339070127
98819.586609893449349
98819.404988938083989
98819.243610642166459
98819.10767622118874
98818.99590992560843
98818.902904326590942
98818.823287787628942
98818.754164038560702
98818.693899074642104
98818.639148317699437
98818.583210400611279
98818.518884943288867
98818.443577959653339
98818.35984546803229
98832.367563559295377
98832.181421920497087
98832.003913365886547
98831.832181064673932
98831.659964443460922
98831.480956911313115
98823.658873270032927
98823.474235816815053
98823.29451674153097
98823.114074646437075
98822.928179247057415
98822.733216144828475
98822.528018973971484
98822.313935250000213
98822.092348862279323
98821.863367927333456
98821.62641519823228
98821.380714293787605
98821.128167329938151
98820.875267707786406
98820.630556666030316
98820.39986669193604
98820.183753763587447
98819.97836530317727
98819.77884651174827
98819.58466597268125
98819.402149364352226
98819.240410277474439
98819.104856013960671
98818.993959365630872
98818.901905353472102
98818.82319590858242
98818.755035405556555
98818.696049210295314
98818.642904907479533
98818.588325219330727
98818.52444187036599
98818.448507313267328
98818.363416297885124
98818.274794544369797
98832.562826864625094
98832.365938131173607
98832.180469545288361
98832.00382082327269
98831.833286746536032
98831.662377870481578
98831.484046581259463
98823.664424039830919
98823.480575569192297
98823.30158331846178
98823.121738055735477
98822.936380982209812
98822.741788918545353
98822.536907959380187
98822.323256566349301
98822.102084324185853
98821.873368077824125
98821.636453787185019
98821.39025993263931
98821.136695887034875
98820.882599880773341
98820.636879239755217
98820.405611454407335
98820.189420993352542
98819.984077489410993
98819.784318182035349
98819.589531979334424
98819.406484319624724
98819.244532161887037
98819.109229179201066
98818.998852461343631
98818.907376726099756
98818.829227658905438
98818.761610726156505
98818.703357551479712
98818.651130699028727
98818.597256544366246
98818.533592339095776
98818.457384343884769
98818.371592044146382
98818.282216978244833
98818.19456577290839
98835.569420982763404
98836.152106781635666
98836.765005764449597
98837.408415897894884
98838.08313411672134
98838.790400085548754
98839.531921488320222
98840.309772214284749
98841.125017859289073
98841.978349874611013
98842.861567246291088
98816.700594616428134
98816.620728984242305
98816.547280818675063
98816.482905702665448
98816.426300746985362
98816.373055689706234
98816.318258229614003
98816.259092237960431
98816.196250180873903
98816.13340088413679
98816.075053714288515
98816.023938344485941
98815.979751995924744
98815.939114261505893
98815.897206528868992
98815.85010499713826
98815.796669172254042
98815.73892155275098
98815.680667745589744
98815.625669106448186
98815.575738880201243
98815.530416742956731
98815.488363668671809
98815.448759346210863
98815.412157645827392
98815.379972824142897
98815.352941885852488
98815.329482822067803
98815.305533961713081
98815.276511458476307
98815.24029204621911
98815.198820473262458
98815.157775737665361
98815.123807054347708
98815.101280109942309
98815.090559517164365
98834.325460955515155
98834.707714391392074
98835.110376302371151
98835.534081425779732
98835.979909445362864
98836.44929332502943
98836.943857432896039
98837.465173672986566
98838.014536904971465
98838.592759439750807
98839.200202971056569
98839.836891874001594
98840.502840084416675
98841.198145649657818
98841.923289697020664
98842.679237206641119
98843.467385866737459
98844.289620716284844
98845.146888562914683
98846.039927622594405
98846.961297751025995
98816.620768343724194
98816.543394303764217
98816.473616781426244
98816.413308068309561
98816.360782517993357
98816.311813820240786
98816.262065841234289
98816.209643466936541
98816.155762101581786
98816.103751904171077
98816.056979675937328
98816.016548365500057
98815.980356390035013
98815.943710429099156
98815.901308790518669
98815.849458614538889
98815.788680227749865
98815.72270061117888
98815.657304116510204
98815.597707836204791
98815.546396404737607
98815.502753191220108
98815.464709177264012
98815.430444737474318
98815.399281447360408
98815.371557246515295
98815.347536834495259
98815.325599979041726
98815.301838540326571
98815.271925993030891
98815.233976715477183
98815.190338701140718
98815.147122331094579
98815.11134730563208
98815.087646841246169
98815.076490217223181
98837.403288321045693
98837.838851030261139
98838.295516785641667
98838.773622478809557
98839.273868628195487
98839.797338633376057
98840.345354564822628
98840.919277354492806
98841.520304516132455
98842.149283347054734
98842.806663323426619
98843.492512923272443
98844.206734727020375
98844.949305717251264
98845.720525380471372
98846.521133485322935
98847.352187539392617
98848.215262345998781
98849.111038243587245
98850.0401603741484
98850.995872911298648
98816.487986524152802
98816.423808793464559
98816.36843132476497
98816.320183879550314
98816.275839633584837
98816.232490467213211
98816.18894306907896
98816.145879373274511
98816.105233630049042
98816.068708544320543
98816.035893231630325
98816.003769210947212
98815.967536057738471
98815.92232933404739
98815.865587932494236
98815.798688261973439
98815.72690436267294
98815.657135943387402
98815.595384846325032
98815.544478736148449
98815.503656444547232
98815.470157511794241
98815.441081021606806
98815.414620407420443
98815.390162641429924
98815.367532924457919
98815.345318713516463
98815.320510574078071
98815.289859934448032
98815.252161720680306
98815.209742611768888
98815.168008071239456
98815.133261948838481
98815.109543532700627
98840.967521597121959
98841.474970520095667
98842.003974703533459
98842.554921802278841
98843.128554050228558
98843.725918989570346
98844.348172833735589
98844.996388364146696
98845.671411380841164
98846.373809602242545
98847.103823481287691
98847.861481961648678
98848.646741095624748
98849.459714415264898
98850.300900238871691
98851.171015529514989
98852.071301841337117
98853.002112846777891
98853.963833235902712
98854.950222485218546
98816.446225207939278
98816.387807691397029
98816.336876801680773
98816.292263446099241
98816.252640687001985
98816.21677346782235
98816.183717646854348
98816.152829428086989
98816.12365657967166
98816.095388613757677
98816.066401470350684
98816.034090240049409
98815.995101441425504
98815.946258621363086
98815.88645205294597
98815.817666183807887
98815.744963475764962
98815.674971990141785
98815.613775418023579
98815.564608566346578
98815.526995969659765
98815.497851156804245
98815.473448492964962
98815.450706808594987
98815.427807157378993
98815.404174351977417
98815.379274078804883
98815.35166261663835
98815.319833555695368
98815.283644413459115
98815.245172636699863
98815.208413288783049
98815.177730430077645
98815.156051165307872
98844.077439477667212
98844.63237854752515
98845.208656187372981
98845.806455383702996
98846.426239539330709
98847.068762699185754
98847.735000844244496
98848.425995767844142
98849.142650864552706
98849.885634731239406
98850.655337568969117
98851.451965927102719
98852.275646229390986
98853.126470893257647
98854.004684405968874
98854.910515087307431
98855.84466007775336
98856.807028229770367
98857.797729114667163
98858.811004320785287
98816.383276504653622
98816.336624081930495
98816.295947904480272
98816.261946024416829
98816.234818146025646
98816.213405426722602
98816.194942795773386
98816.175673488294706
98816.15219965808501
98816.122241896344349
98816.084700584091479
98816.039145741902757
98815.985402811478707
98815.924103010052931
98815.857337355933851
98815.78897935085115
98815.724261558178114
98815.668135993430042
98815.623239437030861
98815.589159092400223
98815.563069102427107
98815.541095139866229
98815.519561083609005
98815.495995070930803
98815.469568676722702
98815.440551843770663
98815.40951141815458
98815.377068197805784
98815.344052913613268
98815.311685400491115
98815.28175081621157
98815.256375990225933
98847.752204304444604
98848.372231625267887
98849.013357284144149
98849.67581672387314
98850.360082888320903
98851.06684145591862
98851.796942952263635
98852.551256597958854
98853.330583642673446
98854.135576624452369
98854.966667278669775
98855.824121476747678
98856.708055262934067
98857.618660819352954