/*--------------------------------*- C++ -*----------------------------------*\
  =========                 |
  \\      /  F ield         | OpenFOAM: The Open Source CFD Toolbox
   \\    /   O peration     | Website:  https://openfoam.org
    \\  /    A nd           | Version:  12
     \\/     M anipulation  |
\*---------------------------------------------------------------------------*/
FoamFile
{
    format      ascii;
    class       volScalarField;
    location    "0.0072";
    object      pPrime2Mean;
}
// * * * * * * * * * * * * * * * * * * * * * * * * * * * * * * * * * * * * * //

dimensions      [2 -2 -4 0 0 0 0];

internalField   nonuniform List<scalar> 
106891
(
221960.65396499633789
221672.98139190673828
221384.01962852478027
221095.00290870666504
220813.21357154846191
220544.64034271240234
220299.39195442199707
220078.55593872070312
219885.44206428527832
219719.68382453918457
219565.74893569946289
488808.75740432739258
487476.80225372314453
486139.37881088256836
484793.69692611694336
483440.10960578918457
482080.14926528930664
480713.84991836547852
479339.57325744628906
477955.67507934570312
476564.99052810668945
475173.48709297180176
473786.83092308044434
472409.47087097167969
471044.78352928161621
469692.64731407165527
468347.33390808105469
467001.48700332641602
465652.17167091369629
464303.20940780639648
462963.39524841308594
461642.14737701416016
460343.36027336120605
459064.26386070251465
457801.06496238708496
456554.80986022949219
455331.49120903015137
454138.40495109558105
452981.16565322875977
451861.93804359436035
450777.42361259460449
449718.09670639038086
448671.17548370361328
447629.01033020019531
446592.2686710357666
445564.03929901123047
444541.5872917175293
443515.63591766357422
442476.8491039276123
224797.17251968383789
224432.15658569335938
224076.25656700134277
223728.82098388671875
223391.06521797180176
223065.78677177429199
222755.7010669708252
222461.3196907043457
222179.33522796630859
221903.42163276672363
221626.35348129272461
221344.35819625854492
221057.60247802734375
220773.03423118591309
220497.481689453125
220242.15612983703613
220010.16528129577637
219806.11624336242676
219630.4080753326416
219467.88610458374023
487302.48626136779785
485973.48155212402344
484641.59930610656738
483303.47795677185059
481958.07579040527344
480605.50449752807617
479244.25585556030273
477874.24116516113281
476500.47013854980469
475130.41038131713867
473768.72541427612305
472417.35026741027832
471078.34842491149902
469752.0245361328125
468433.15030860900879
467113.7436637878418
465790.09257125854492
464465.93423271179199
463150.20502471923828
461851.17713928222656
460571.18639183044434
459307.40699195861816
458057.64749145507812
456823.85197067260742
455610.92444801330566
454423.6843204498291
453265.4623966217041
452138.02674674987793
451040.24154090881348
449964.82949829101562
448899.64772796630859
447834.23456954956055
446766.43231964111328
445700.36178970336914
444638.39024925231934
443576.42582893371582
224687.19873237609863
224323.45302581787109
223966.65327835083008
223615.88574409484863
223273.37993240356445
222943.58222961425781
222630.73900032043457
222336.24516105651855
222056.90688896179199
221785.92293930053711
221515.30647468566895
221240.16573143005371
220959.54265785217285
220679.03323936462402
220404.7320384979248
220147.32797813415527
219910.65707015991211
219700.01989364624023
219516.60224342346191
219346.35027122497559
487325.31231307983398
485982.59165954589844
484638.26242065429688
483286.58200836181641
481927.35232543945312
480563.42957878112793
479196.01773643493652
477826.86425971984863
476461.918212890625
475108.28500366210938
473768.48418045043945
472441.89359664916992
471129.53118705749512
469832.23442077636719
468545.16122627258301
467259.19412612915039
465969.45449256896973
464679.92536163330078
463399.5783863067627
462135.18877029418945
460887.54633712768555
459653.65689849853516
458431.36978721618652
457221.06176376342773
456024.72841835021973
454844.95463371276855
453684.0285472869873
452544.132080078125
451426.21350479125977
450326.70421600341797
449235.58387565612793
448141.00776100158691
447037.97107887268066
445931.09696769714355
444827.29481506347656
443727.21710777282715
224159.79217529296875
223804.25747108459473
223456.7704029083252
223117.85748672485352
222790.34786605834961
222477.4113655090332
222180.37634468078613
221897.10181617736816
221622.43413925170898
221350.01395797729492
221075.82221984863281
220798.97328948974609
220523.96621322631836
220255.57769584655762
220002.84925651550293
219769.1097412109375
219559.54394912719727
219375.88552665710449
219205.48889923095703
486215.77304649353027
484836.20450782775879
483446.94709205627441
482051.52276802062988
480657.14020919799805
479268.18399620056152
477887.5445613861084
476521.25827789306641
475175.69918251037598
473851.8134593963623
472547.34615707397461
471261.92050933837891
469995.81588935852051
468744.28517532348633
467498.27480888366699
466252.41135025024414
465009.89259910583496
463778.49006271362305
462562.72218894958496
461360.93624305725098
460168.47779846191406
458981.41934967041016
457798.05520057678223
456619.70534324645996
455449.70343971252441
454290.71487998962402
453143.33407974243164
452007.41238784790039
450881.38110160827637
449758.99871826171875
448630.69831275939941
447491.52882385253906
446346.24117088317871
445203.96408081054688
224390.80260276794434
224009.24087715148926
223645.58267021179199
223297.14446258544922
222962.44884490966797
222641.2108097076416
222333.57494926452637
222039.03631401062012
221755.30414199829102
221478.49547958374023
221204.17826080322266
220929.96918869018555
220655.83940315246582
220385.80081367492676
220123.58796310424805
219876.57349014282227
219647.36843299865723
219440.85984230041504
219259.52000999450684
219092.61430168151855
486742.71382713317871
485315.75459480285645
483878.1919116973877
482436.31640625
481001.00076103210449
479580.1286449432373
478178.43141937255859
476801.56964683532715
475455.64328002929688
474142.69232749938965
472859.94993782043457
471603.70972633361816
470370.26924705505371
469153.92849349975586
467947.64721298217773
466747.99209213256836
465558.59609794616699
464385.02836036682129
463227.24809837341309
462078.74324607849121
460930.88976669311523
459776.89430809020996
458615.1059684753418
457450.65649604797363
456291.9629955291748
455143.24373054504395
454001.30371856689453
452860.09657859802246
451715.73040771484375
450565.2938289642334
449404.42646980285645
448231.6125316619873
447053.08350563049316
223987.51124954223633
223604.70139122009277
223243.94022560119629
222903.69916915893555
222581.97286987304688
222276.63980674743652
221985.48637580871582
221705.63449287414551
221433.48992156982422
221165.33383560180664
220899.22103309631348
220635.1341724395752
220376.17851829528809
220124.80954742431641
219886.5266227722168
219663.01408004760742
219458.8442211151123
219277.53198623657227
219110.59550285339355
486059.08221435546875
484579.19549751281738
483096.91162109375
481624.11221694946289
480171.619873046875
478745.94113540649414
477352.13934326171875
475996.18976402282715
474682.53829002380371
473410.50198745727539
472174.61630821228027
470967.02395439147949
469779.61553764343262
468606.85624313354492
467448.96251487731934
466310.99210929870605
465195.49636459350586
464096.08936882019043
462999.14946746826172
461891.3637638092041
460765.94388771057129
459625.26831817626953
458480.3372688293457
457343.93765449523926
456220.05061340332031
455099.54844856262207
453968.27884292602539
452817.97559928894043
451648.37871742248535
450462.29326438903809
449264.18693351745605
448062.52617835998535
224188.80044937133789
223786.88251304626465
223409.83441734313965
223056.88419532775879
222726.08942222595215
222415.15799522399902
222121.88992118835449
221843.61952209472656
221576.90275001525879
221317.93699645996094
221064.34063148498535
220815.46916961669922
220573.13387298583984
220338.32503890991211
220114.39480018615723
219901.62040138244629
219703.44216156005859
219523.73679542541504
219355.47948455810547
485465.50682067871094
483948.6061840057373
482442.62550926208496
480960.15294647216797
479509.34288215637207
478094.35403060913086
476719.28550720214844
475389.59696578979492
474108.5900936126709
472873.34836196899414
471675.02072906494141
470503.81512641906738
469354.87882041931152
468229.67653465270996
467131.91653823852539
466060.14338111877441
465002.51765441894531
463940.93162536621094
462862.03896903991699
461764.0529956817627
460654.71881675720215
459546.3139533996582
458448.92941284179688
457362.15365409851074
456272.48933029174805
455161.79740524291992
454019.93259620666504
452848.72929573059082
451656.69817161560059
450453.5427074432373
224244.02008247375488
223852.0311279296875
223485.4473991394043
223142.86463165283203
222822.2577018737793
222521.49965667724609
222238.15862655639648
221969.46871948242188
221712.57144737243652
221465.6513500213623
221227.83445167541504
220999.71828079223633
220780.6943187713623
220571.98395347595215
220372.48650169372559
220184.07575225830078
220010.13204765319824
219843.7225341796875
484944.64127540588379
483402.17009544372559
481888.50060844421387
480413.58427619934082
478979.54700088500977
477584.91924285888672
476232.01934051513672
474927.36589813232422
473673.84294509887695
472467.11804008483887
471300.11063957214355
470167.27262115478516
469065.6085033416748
467993.09999847412109
466944.61476516723633
465907.27296829223633
464864.68294334411621
463808.10322761535645
462741.17561340332031
461673.59539413452148
460612.75902366638184
459560.4156665802002
458510.85608673095703
457450.50359153747559
456362.94118118286133
455238.43064880371094
454079.32362937927246
452896.22726440429688
225059.62673759460449
224652.28562164306641
224270.37130546569824
223913.1630802154541
223578.54281806945801
223263.93865585327148
222966.90316772460938
222685.58703804016113
222418.75466537475586
222166.07110214233398
221927.34987258911133
221702.64216613769531
221490.24757385253906
221289.5670166015625
221098.14657211303711
220916.03034591674805
220745.86425971984863
220580.59606742858887
484613.00728416442871
483070.3713436126709
481573.52496147155762
480121.78129959106445
478709.96933746337891
477338.35205078125
476013.76466751098633
474742.17119026184082
473524.20036315917969
472356.25401878356934
471231.58949279785156
470141.86934089660645
469080.89534187316895
468043.62105369567871
467020.77581405639648
465999.71560287475586
464973.44903564453125
463945.11071395874023
462921.1674919128418
461903.63790512084961
460888.83167457580566
459868.97474479675293
458833.13138198852539
457769.83668518066406
456671.50757789611816
455537.38517951965332
454372.78563690185547
225892.21688652038574
225494.38101387023926
225118.46732330322266
224763.4687328338623
224427.46431732177734
224108.67428207397461
223806.29891586303711
223520.451416015625
223251.89497756958008
223000.75444412231445
222766.67212677001953
222547.45441818237305
222341.68020057678223
222146.50350952148438
221960.59039688110352
221785.46292686462402
221612.81035041809082
487648.89048194885254
486053.27994728088379
484498.10887336730957
482989.26944923400879
481527.35499572753906
480109.76688575744629
478737.41255950927734
477415.97664260864258
476149.52842330932617
474936.32314682006836
473770.23876190185547
472643.49993324279785
471549.53736114501953
470485.81961059570312
469452.60182952880859
468446.16047286987305
467456.46205139160156
466473.05571937561035
465491.25360870361328
464510.93075370788574
463531.10779762268066
462547.94241523742676
461555.4527530670166
460545.70504760742188
459509.56709861755371
458438.51607513427734
457326.59905433654785
227141.7813720703125
226753.45885276794434
226380.85652923583984
226023.7555103302002
225682.47723388671875
225358.00715446472168
225051.39618873596191
224763.20200347900391
224492.58661270141602
224238.15130805969238
223997.4941463470459
223769.61077880859375
223552.9288330078125
223346.19233322143555
223150.4881534576416
222956.06798362731934
488805.5909423828125
487227.45926284790039
485690.64303207397461
484193.77607536315918
482737.99492454528809
481327.13114929199219
479967.20628356933594
478663.56206893920898
477415.6088981628418
476214.23026466369629
475047.25764656066895
473907.21573448181152
472794.39748573303223
471714.21743011474609
470671.59554862976074
469665.32361221313477
468686.24689865112305
467721.89377593994141
466762.73473358154297
465804.08786582946777
464844.28801727294922
463881.0813045501709
462909.2105712890625
461919.89846420288086
460901.99780082702637
459844.36438369750977
458739.2444019317627
457586.68776321411133
228259.87412261962891
227875.38267517089844
227505.60174751281738
227151.5681095123291
226814.22528266906738
226493.83093070983887
226189.70191383361816
225899.93478965759277
225622.76273918151855
225356.29312133789062
225100.27910232543945
224854.08920860290527
224616.60677909851074
224388.82330703735352
224161.27470397949219
488436.2244873046875
486920.73033714294434
485439.79563140869141
483993.84904670715332
482591.2907829284668
481242.05078506469727
479950.5403003692627
478711.46976089477539
477510.23381614685059
476330.99467086791992
475167.22517585754395
474024.97862243652344
472916.42815780639648
471850.48782348632812
470827.20005989074707
469837.67065048217773
468868.72158622741699
467909.22952461242676
466953.03318023681641
465997.49969482421875
465040.13293647766113
464075.39076805114746
463093.55937957763672
462081.21628761291504
461024.96394920349121
459917.16097831726074
458760.73214530944824
229516.45932960510254
229136.24466514587402
228772.8774242401123
228426.38353538513184
228095.78632164001465
227779.2965145111084
227474.40826034545898
227179.24188804626465
226892.12254524230957
226613.07107353210449
226341.97919845581055
226077.98122024536133
225822.32639122009277
225565.92874717712402
488332.7784309387207
486862.70065116882324
485422.43232345581055
484024.03028297424316
482679.62960624694824
481391.23140144348145
480149.03588676452637
478935.89115142822266
477735.21180534362793
476541.67853927612305
475365.07357788085938
474221.8800220489502
473123.72744178771973
472071.27924537658691
471055.88584327697754
470064.83341217041016
469087.07368278503418
468116.3747386932373
467149.91162490844727
466184.49851226806641
465213.68960571289062
464227.03205871582031
463211.06391334533691
462152.04241943359375
461042.08909797668457
459884.28033447265625
230901.03603363037109
230526.11435699462891
230167.96350479125977
229824.42400741577148
229492.93821907043457
229170.88589286804199
228856.46895790100098
228548.04180526733398
228245.62174797058105
227949.40286636352539
227659.21547317504883
227377.21052169799805
227095.27414703369141
488441.57661437988281
487001.65751266479492
485602.32578277587891
484256.74014282226562
482964.45691871643066
481712.25435256958008
480481.55247497558594
479257.12967491149902
478035.30659103393555
476827.05737686157227
475650.26308822631836
474517.90775299072266
473431.83431434631348
472384.26859283447266
471363.65339088439941
470359.89236831665039
469366.58551216125488
468380.34804153442383
467397.81250381469727
466412.58333015441895
465414.77902221679688
464392.16906929016113
463331.6178035736084
462223.90761566162109
461069.85187339782715
232409.13930320739746
232037.7716178894043
231679.34347915649414
231331.04071235656738
230990.55854797363281
230656.25627136230469
230326.27300262451172
230000.26745796203613
229678.63530921936035
229362.30269622802734
229054.70102500915527
228748.86491966247559
488702.59167671203613
487298.174560546875
485946.34395599365234
484645.0645751953125
483379.10235595703125
482129.76506042480469
480883.90177726745605
479639.95769309997559
478408.6150074005127
477205.91297149658203
476044.00702285766602
474925.93598175048828
473846.32900047302246
472796.25076866149902
471767.04780769348145
470751.63284873962402
469744.94729423522949
468742.9968147277832
467740.48307037353516
466729.94724273681641
465701.35676193237305
464641.74835968017578
463539.41315460205078
462391.77752304077148
489122.49254608154297
487758.70199394226074
486441.96109771728516
485157.21848106384277
483886.86577796936035
482620.6036491394043
481358.89409065246582
480110.50691413879395
478887.64070892333984
477700.11817169189453
476552.00616073608398
475441.37769889831543
474363.02273941040039
473309.77622413635254
472273.30312156677246
471246.10513687133789
470223.59405517578125
469202.73808097839355
468178.76486778259277
467142.68561744689941
466080.73519134521484
464979.74986267089844
463836.29251861572266
488371.07472801208496
487060.78492736816406
485764.59734535217285
484474.05670356750488
483190.37334632873535
481921.14347457885742
480675.46551513671875
479461.10952377319336
478282.68818092346191
477141.0487232208252
476033.84251594543457
474955.36281967163086
473896.5440845489502
472848.1346549987793
471805.17192649841309
470766.21523475646973
469727.71650695800781
468679.71295547485352
467607.0553092956543
466497.44624900817871
465349.766357421875
485093.10588645935059
483794.48874282836914
482519.88182067871094
481276.19063377380371
480067.17208862304688
478893.71577072143555
477754.70938873291016
476646.47837448120117
475561.15079689025879
474489.33618545532227
473425.51305770874023
472367.65381050109863
471310.87528419494629
470243.40109825134277
469150.08777809143066
468021.80890655517578
466861.52501106262207
481858.88700103759766
480654.02510261535645
479481.48544120788574
478339.39862060546875
477222.69766044616699
476123.87453842163086
475036.8282299041748
473957.25107383728027
472877.91474342346191
471785.77667617797852
470667.06952476501465
469516.35475921630859
468340.01276588439941
482397.57303810119629
481191.58582878112793
480014.2097225189209
478864.41482353210449
477737.49702072143555
476626.53801918029785
475524.17348861694336
474420.93584632873535
473303.89362144470215
472161.49535369873047
470991.30724906921387
469800.99745178222656
634584.81149101257324
633313.16756629943848
632050.2661304473877
630771.57198524475098
629466.15239334106445
628131.48354339599609
626766.27444648742676
625367.22406005859375
623927.42263031005859
622436.83438491821289
620886.85166931152344
619275.64287567138672
617612.38825035095215
615914.25860786437988
614201.34832382202148
612493.28997802734375
610807.28122711181641
609155.06441497802734
607539.18436622619629
605953.37363624572754
637511.38652801513672
636219.09309959411621
634969.36353492736816
633725.0998649597168
632459.8166561126709
631161.72957611083984
629827.52506828308105
628456.36192893981934
627045.11941146850586
625586.90758895874023
624071.90331840515137
622491.27412223815918
620843.97046279907227
619141.80125999450684
617406.66982460021973
615662.53153610229492
613929.97672462463379
612224.63050842285156
610556.2421817779541
608926.76316833496094
607330.84636688232422
605762.10847473144531
641773.42947578430176
640336.20134735107422
638986.76889419555664
637711.85427284240723
636479.44409942626953
635250.45839881896973
633995.88364219665527
632702.7474193572998
631367.24011993408203
629988.47485542297363
628563.73612403869629
627086.21479797363281
625546.32412910461426
623935.28363418579102
622252.65284538269043
620512.98618316650391
618742.73276138305664
616969.60872650146484
615215.02045059204102
613492.80213928222656
611810.67971801757812
610170.0214958190918
608566.32303810119629
606994.91955757141113
605455.89844512939453
603952.79979515075684
644576.11606407165527
643065.88356971740723
641642.1585636138916
640305.0544261932373
639042.30212593078613
637821.52560806274414
636602.10964012145996
635354.08622550964355
634062.77379035949707
632723.72673606872559
631335.9831600189209
629897.27335929870605
628401.35488891601562
626839.05523490905762
625201.47726631164551
623488.43797302246094
621716.56797027587891
619915.93642997741699
618117.75440788269043
616344.31514167785645
614607.79266548156738
612913.67459297180176
611262.90499305725098
609651.95888900756836
608077.73294830322266
606541.35774421691895
605044.97736930847168
603588.08431053161621
647263.79268264770508
645677.72406196594238
644179.37310981750488
642765.23932075500488
641437.1709156036377
640183.77741050720215
638972.13759231567383
637760.35138511657715
636516.74231338500977
635225.92944717407227
633882.58095932006836
632485.80845260620117
631033.49789428710938
629520.05183601379395
627936.74509811401367
626274.84341430664062
624534.26501655578613
622733.44739532470703
620905.7617301940918
619085.50228118896484
617296.07358932495117
615548.09996223449707
613845.21254730224609
612187.2968921661377
610571.36175727844238
608996.10818672180176
607463.4826545715332
605974.05696868896484
604524.02439880371094
603108.73635673522949
649838.75327491760254
648161.60086822509766
646588.31461524963379
645099.57249069213867
643692.63455009460449
642370.03387451171875
641121.62249565124512
639914.68510818481445
638706.54315185546875
637464.83553314208984
636172.96037292480469
634824.6379280090332
633418.68756103515625
631953.97868347167969
630425.92316627502441
628826.22460746765137
627145.94721603393555
625384.70925140380859
623561.53059196472168
621712.36041641235352
619874.48964881896973
618072.23029708862305
616315.10558891296387
614604.77094841003418
612940.53122711181641
611320.21753120422363
609743.82762336730957
608214.01591682434082
606729.89414596557617
605284.99995422363281
603872.50712394714355
602493.29358100891113
650516.31806564331055
648850.67048072814941
647286.0317268371582
645803.47904968261719
644401.16590690612793
643082.66235160827637
641838.19643974304199
640635.00715637207031
639429.8685474395752
638189.42658042907715
636896.3198184967041
635543.51377296447754
634129.65059471130371
632654.09980773925781
631113.16307640075684
629499.15498161315918
627803.24299430847168
626025.21152114868164
624184.71172904968262
622319.11545562744141
620467.39860916137695
618655.33830261230469
616891.85286712646484
615177.1108341217041
613509.7001781463623
611887.61367607116699
610311.6113452911377
608784.89956283569336
607305.81283569335938
605865.76159858703613
604456.24966049194336
603078.07887268066406
601746.55149269104004
743201.54997634887695
740410.80961227416992
737668.71590232849121
734998.5587100982666
732403.70128440856934
729893.95886039733887
650978.0606632232666
649320.25923347473145
647761.70962715148926
646283.41377639770508
644883.8702335357666
643567.00531196594238
642323.63503265380859
641121.3035774230957
639916.50526237487793
638675.43668746948242
637380.40252304077148
636023.52284622192383
634603.30517959594727
633119.91850090026855
631570.45802307128906
629947.56224822998047
628242.37459945678711
626454.3690013885498
624603.0681324005127
622726.60136604309082
620865.87732124328613
619047.5039005279541
617279.85647392272949
615562.08931922912598
613892.33311080932617
612268.71259689331055
610692.46173286437988
609167.39473152160645
607691.40738677978516
606254.41100120544434
604846.71195030212402
603469.1385383605957
602137.73055267333984
600880.5718994140625
746421.5603141784668
743618.95492362976074
740813.91028213500977
738058.5831413269043
735376.43966865539551
732770.75235748291016
730250.51116752624512
651221.59518241882324
649567.57136726379395
648011.78725242614746
646535.23491096496582
645137.00739860534668
643821.15102577209473
642578.48055458068848
641376.78479194641113
640172.27580642700195
638930.77163696289062
637634.53483963012695
636275.23378562927246
634851.22233963012695
633363.12028503417969
631808.58023834228516
630180.42419242858887
628469.79423713684082
626676.07553100585938
624818.99470710754395
622936.93958854675293
621071.44392395019531
619249.76140975952148
617480.34919738769531
615761.54503631591797
614091.1038703918457
612467.29507827758789
610891.58277130126953
609367.87033271789551
607893.86161422729492
606458.82391548156738
605052.24857330322266
603675.1141242980957
602343.69973182678223
601086.61186790466309
599923.99372673034668
222029.44539260864258
221730.04186630249023
221441.75722503662109
221163.45840454101562
220895.85066413879395
220636.86184883117676
220390.37414169311523
220155.16601371765137
219936.67591094970703
219739.73788261413574
219556.24404335021973
487398.87926864624023
485965.29342079162598
484551.5310173034668
483154.74444389343262
481767.45603179931641
480382.87559127807617
478995.8472957611084
477604.23172378540039
476211.74235153198242
474825.40322685241699
473451.2277889251709
472091.85389709472656
470744.73673439025879
469401.99514961242676
468055.49811172485352
466701.54338455200195
465341.31356811523438
463980.25782203674316
462627.45835113525391
461294.26823234558105
459989.94742202758789
458716.85909843444824
457470.48961639404297
456244.70299339294434
455038.7920093536377
453858.1429500579834
452706.98133850097656
451579.38614082336426
450459.61344718933105
449332.75613403320312
448194.93398857116699
447053.68463325500488
445922.61360168457031
444813.99548530578613
443732.62966728210449
442673.6269416809082
225427.72735023498535
225006.90717315673828
224606.49300575256348
224225.59476661682129
223862.55673408508301
223514.82839202880859
223179.3033390045166
222853.1672477722168
222534.89426803588867
222224.30877876281738
221922.22356224060059
221628.98421669006348
221344.83140563964844
221068.25602149963379
220799.56646728515625
220536.97801971435547
220284.58332633972168
220042.14471244812012
219815.77662467956543
219610.55226707458496
219419.51245498657227
487424.33012390136719
485989.44400024414062
484580.78008270263672
483189.45613861083984
481804.99461555480957
480422.3868293762207
479041.27368545532227
477663.71643257141113
476293.85032272338867
474936.12432289123535
473593.22385025024414
472265.58122062683105
470949.63538360595703
469636.14591217041016
468314.67501831054688
466979.73735046386719
465633.7093505859375
464283.31521606445312
462938.68677711486816
461611.60493659973145
460312.27278518676758
459044.55428123474121
457804.32467842102051
456583.91089820861816
455380.10065078735352
454196.49804878234863
453036.41153144836426
451893.06965637207031
450750.48628044128418
449594.55777168273926
448422.43444633483887
447242.87725830078125
446070.69858360290527
444918.78946113586426
443791.50381660461426
442683.36228942871094
225296.65650939941406
224869.54586029052734
224464.16916275024414
224079.54867172241211
223714.50535202026367
223367.22283172607422
223035.06786727905273
222714.93935585021973
222404.18220520019531
222101.0696849822998
221805.09476470947266
221516.0492057800293
221234.14789962768555
220958.26769638061523
220688.84935760498047
220424.52097320556641
220169.31936454772949
219923.34649085998535
219692.60626029968262
219481.66485023498535
219284.27019119262695
486243.07829666137695
484834.27829170227051
483441.61838912963867
482053.97060775756836
480671.26137542724609
479300.36687088012695
477946.72761535644531
476610.23730278015137
475286.79849243164062
473973.49382972717285
472671.88174629211426
471383.63476181030273
470102.10122299194336
468813.50006866455078
467507.46209144592285
466183.78519439697266
464850.76420211791992
463520.2496280670166
462205.53914642333984
460918.62454605102539
459664.7550220489502
458438.5570011138916
457228.11326789855957
456025.59336471557617
454832.47455024719238
453653.05216407775879
452483.4826717376709
451311.03874397277832
450123.73885917663574
448919.01688194274902
447704.59052467346191
446493.6274356842041
445297.53336334228516
444119.62933540344238
224749.38523864746094
224337.06070899963379
223945.61221504211426
223574.94055557250977
223224.36042594909668
222891.88446807861328
222574.16686058044434
222267.38328552246094
221968.23237800598145
221674.91960334777832
221386.8465461730957
221104.66546058654785
220828.42325401306152
220559.43465232849121
220297.05695152282715
220045.07570457458496
219803.28192138671875
219576.59584045410156
219368.06267547607422
219170.82265281677246
486602.04577255249023
485183.35301208496094
483781.1641788482666
482387.70273971557617
481009.60976982116699
479658.70061874389648
478338.94064521789551
477042.47915649414062
475756.1074390411377
474472.30291938781738
473195.9056339263916
471936.24722099304199
470691.24446678161621
469444.52698135375977
468179.58862686157227
466891.76780319213867
465588.40007209777832
464283.46919631958008
462993.84868240356445
461734.27031898498535
460509.3781566619873
459309.40441131591797
458116.50229644775391
456918.38369178771973
455715.2513313293457
454513.78897666931152
453315.82682800292969
452114.38686180114746
450899.95749664306641
449668.83155632019043
448426.0251579284668
447181.99628829956055
445946.24132919311523
444721.99045372009277
224673.86256408691406
224252.83895492553711
223853.2646598815918
223476.18923950195312
223121.6463565826416
222787.59036064147949
222469.89902114868164
222163.61919975280762
221864.46425628662109
221570.23338508605957
221280.68869590759277
220997.28564834594727
220721.07798957824707
220453.97262954711914
220195.90006256103516
219950.50233268737793
219717.57826805114746
219501.14673614501953
219302.75620269775391
219114.17098045349121
485623.25036811828613
484200.0593318939209
482795.75211715698242
481421.85305213928223
480089.5699634552002
478797.6038703918457
477530.85907554626465
476270.37557601928711
475007.38539505004883
473749.90830039978027
472513.19511604309082
471300.52425003051758
470095.93747520446777
468877.76583480834961
467635.4132022857666
466373.43791961669922
465107.27570343017578
463857.43414688110352
462640.28757858276367
461457.14699363708496
460291.50960922241211
459120.45986366271973
457929.87422370910645
456720.47717666625977
455501.9292049407959
454281.81006240844727
453058.77482986450195
451824.99418640136719
450574.978271484375
449311.59824371337891
448044.02673149108887
446780.64028930664062
224267.3607349395752
223857.29383277893066
223472.35404777526855
223112.88033866882324
222776.1059398651123
222456.71891593933105
222148.73852920532227
221847.54689979553223
221551.34589004516602
221260.91794776916504
220978.76643943786621
220706.69307136535645
220446.44291687011719
220197.47786712646484