/*--------------------------------*- C++ -*----------------------------------*\
  =========                 |
  \\      /  F ield         | OpenFOAM: The Open Source CFD Toolbox
   \\    /   O peration     | Website:  https://openfoam.org
    \\  /    A nd           | Version:  12
     \\/     M anipulation  |
\*---------------------------------------------------------------------------*/
FoamFile
{
    format      ascii;
    class       volScalarField;
    location    "0.0072";
    object      rho;
}
// * * * * * * * * * * * * * * * * * * * * * * * * * * * * * * * * * * * * * //

dimensions      [1 -3 0 0 0 0 0];

internalField   nonuniform List<scalar> 
106891
(
1.159189895103360568
1.1591885838331903447
1.1591663136305996318
1.1591243207222159395
1.1590687040165550403
1.1590072143573697527
1.1589512788564422241
1.1589066432393595463
1.1588851397734449833
1.1588847346822015449
1.1589094945086657606
1.1474410894528483951
1.1475877557335427692
1.1478810383811370865
1.1482669318945220027
1.1487084502344830916
1.1492065005901332952
1.1497768260645346849
1.1504356789421144036
1.1511700149995964804
1.1519307137280376807
1.1526612711755390706
1.153312019471366634
1.1538635893967386092
1.1543322035624559163
1.1547551707840459922
1.1551662869142715895
1.1555713229634616557
1.1559430074860199689
1.1562419167100035367
1.1564472770396396761
1.1565755173360554586
1.1566725761203107137
1.1567863290999851333
1.1569347878041458255
1.1570968007270774347
1.1572266296508884054
1.1572894269906845999
1.1572765449780511027
1.1572130722175224538
1.157139522071691129
1.1570895344341192157
1.1570696729460197005
1.1570704545363528215
1.1570806700037827852
1.1571008869462042767
1.157141902004659606
1.157205042592312827
1.1572695341764067667
1.158904273859487466
1.1589146507826673105
1.158926383104061264
1.1589420591750896339
1.1589638435073541523
1.1589918173706101889
1.1590240098372341926
1.1590557877594644953
1.1590824016785099548
1.1590985078945243991
1.1590997318396061289
1.1590833710712420412
1.1590481818210389697
1.1589981844402121869
1.1589399321056725878
1.1588849217428094374
1.1588404759123449583
1.1588197930005021963
1.1588220041272212502
1.1588526534911705035
1.1470671815693747053
1.1473326908090482057
1.1477212543235300046
1.1482020095952147898
1.1487686300786255078
1.1494305896677210477
1.1501845300946564876
1.150988784217586991
1.1517861253687438072
1.1525181108555913045
1.1531469902013185003
1.1536695694553966707
1.1541118914977683829
1.1545128495125722701
1.1549014504861740971
1.1552829377730886584
1.1556377301032456639
1.1559348732985221808
1.1561587225667488976
1.156323886430340897
1.1564682852086520803
1.1566314251100040522
1.1568308796143660366
1.1570481161696994921
1.1572390671434846787
1.157360715649379701
1.1573930121165525442
1.1573488496157646743
1.1572643485454490175
1.1571743172780997178
1.157103935301059483
1.1570621033809755929
1.1570516359651543681
1.157077132424771726
1.1571389133488503287
1.1572219753472430259
1.1587782071546131046
1.1588035828055227583
1.1588256810332420166
1.1588434823036175558
1.1588584278370614999
1.1588733395497141654
1.1588910163575081302
1.1589118593664315959
1.1589345367670487175
1.1589542831140924317
1.1589652655969631123
1.1589625478150908933
1.158941544149038716
1.1589034850908734864
1.1588522933780183166
1.1587984144027865252
1.158750522737208799
1.1587233873823421515
1.1587185236933348342
1.1587447940055970452
1.1468266436777134754
1.1470828834640454108
1.1474525998646891711
1.1479207409667768758
1.148497285163312176
1.1491984603622096284
1.1500112996887548178
1.1508806390851029633
1.1517284548053203785
1.1524885551517587423
1.1531317094314210703
1.1536670500611707624
1.1541249805188209532
1.154535144548478387
1.1549130858187095505
1.155257173131422288
1.1555572044507702589
1.155803978022218903
1.1559983248785390408
1.1561589798243745442
1.1563163530370730303
1.1564980170942502635
1.1567162379991609011
1.1569555370364497104
1.1571776725403066788
1.157341326800023662
1.1574211994987546603
1.1574176288054582873
1.1573555668338260105
1.1572681990336162183
1.1571844748840673933
1.157123961035128934
1.15709918462898953
1.1571145404583806915
1.1571655312186801545
1.1572329391410069999
1.1586914193365118741
1.1587149711250877004
1.15872471137123223
1.1587228262501014786
1.15871549808316332
1.1587110571914296386
1.1587155908581603381
1.158732213222854357
1.1587577755059410567
1.1587848671360363451
1.1588045813736740364
1.158807046720556011
1.1587894396056850344
1.1587519051248309498
1.158702990817102263
1.1586520432659499491
1.1586148905090321026
1.1585957970828297814
1.158607030570291796
1.1468813023973012388
1.1472080695345043821
1.1476376742402703002
1.1481823537588551343
1.1488531140787081597
1.14962266723432327
1.1504260346083159394
1.1511875345501754175
1.151863403098560612
1.1524554134545568207
1.1529947093453316587
1.153513465975170682
1.1540184393575825261
1.1544882467469437248
1.1548923174998599883
1.1552159601328071403
1.1554688792311107459
1.1556762634655834976
1.1558712546158405043
1.1560835046840955975
1.1563283877912962083
1.1566025408629740934
1.1568855627330434377
1.1571427612490345904
1.1573387279082265611
1.1574500513522452128
1.1574719998612987837
1.157419753364259396
1.157319816095019327
1.157202272937518206
1.157097155156572077
1.1570310814316671078
1.1570201805382687166
1.1570631880827813021
1.1585276432592959139
1.1585657059809497671
1.1585838622656767782
1.1585787494154951016
1.1585545995897994498
1.1585215842857230495
1.1584933106035755213
1.158481148406978134
1.1584921758932658076
1.1585249199829004141
1.1585709776831865092
1.1586180738600913021
1.1586511709629483402
1.1586625507635777144
1.1586473044071656791
1.158610795890230305
1.1585615311447612363
1.1585149127094618304
1.1584777742437804005
1.1584660284623486959
1.1465915042246723754
1.1469157020261662172
1.1473937735318970876
1.1480377310530471835
1.1488334937462454377
1.1497177332756975954
1.1505924383563188584
1.1513692403835560363
1.1520126892396387319
1.1525516110881817156
1.1530471443335679194
1.153546607928389145
1.1540505709532327128
1.154515549910773542
1.1548934410272200246
1.1551654062041476489
1.1553542258239928309
1.1555123593192297982
1.1556921275227407531
1.1559224282251010507
1.1562014815940286905
1.1565030172490078364
1.1567932186029901143
1.1570416084368029264
1.1572259617169617929
1.1573372034681330689
1.1573755348968812751
1.157345789009591952
1.1572591202214677075
1.1571358336144441648
1.1570092056073497666
1.1569190922369405605
1.1568952546221780153
1.1584129179694442335
1.1584187828888257155
1.1583947469731241675
1.1583475678986236979
1.1582910359709193138
1.1582426544435124871
1.1582174370057110036
1.1582251062512740614
1.1582654681598163471
1.1583301482340353505
1.1584052272042377751
1.1584717891648934618
1.1585173869667870772
1.1585314080904622891
1.158514759454687848
1.158473789313804625
1.1584223493310146225
1.1583693734306701462
1.1583333726949096576
1.1465698156791199747
1.1469842717447400471
1.1476102188615064925
1.1484208145784757793
1.149340586618468274
1.1502599493539253928
1.1510810075269979347
1.151762488289010733
1.1523318284737820161
1.1528519280294171612
1.1533703409055815481
1.1538892105749041228
1.1543645161861062487
1.1547407075920705921
1.1549952595495995844
1.155162627890151672
1.1553162763397968327
1.1555222227903503285
1.1558056315600868658
1.1561450486662252501
1.1564873999494975632
1.1567775796119883491
1.1569859940452145164
1.1571136087541689097
1.1571796027513494565
1.1572004097588530769
1.1571759710655513675
1.1570990612108069673
1.1569731863660610571
1.1568274722057698689
1.1567117406099958199
1.1566723835237617823
1.1582447870490562014
1.1582322206811173082
1.1581881234709112682
1.158121713845408296
1.1580486061371519924
1.1579874655730946209
1.1579541683329692692
1.1579594889318245432
1.1580043668274462298
1.1580810684610105543
1.1581753462911792418
1.1582664458332077029
1.1583391453064761922
1.1583787694136371549
1.1583824368970061514
1.1583537139027395568
1.1583039487322512873
1.1582433923388155694
1.158190371711448563
1.1470331094424401908
1.1476741335971953895
1.1484818358403741101
1.1493779745346948129
1.1502642001306702113
1.1510534294130172484
1.1517055904495894225
1.1522391614990803443
1.1527112596665065603
1.1531737455250798963
1.1536413584081548489
1.1540840062335164795
1.1544515846171525819
1.1547190362052994761
1.1549108942178714088
1.155092579249166862
1.1553302707189558873
1.1556460182085583899
1.1560067239964311181
1.1563459639029565196
1.1566034909353111182
1.1567561555777006177
1.1568251315345858821
1.156851247426903706
1.1568630091180045483
1.1568578480894546878
1.1568143120177247773
1.1567206562704515083
1.1565981527909965365
1.156499673444170595
1.1580595872565153659
1.1580017051370792291
1.1579265390423398863
1.1578496639748785402
1.1577880325538305595
1.1577552747365953412
1.157760174938516462
1.157803029101797776
1.1578769491785676493
1.1579694344138002915
1.1580618724113682649
1.1581404056883557452
1.1581895645853046428
1.1582046559439556077
1.1581872054127584359
1.1581453526285838684
1.158088969208875163
1.1580331547226552225
1.147723324919555532
1.1485056101795303451
1.1493482102083545371
1.1501820818535128943
1.1509449891033136648
1.1515965166497412753
1.1521319791459259108
1.1525827907391330562
1.1529984110294568822
1.1534119155936475298
1.1538226494229515406
1.1542012882721148781
1.1545208740761170318
1.1547841131841527496
1.1550230106923875528
1.1552771548784561695
1.1555629198201948782
1.1558591253411687472
1.1561222340400554298
1.1563120856073036968
1.1564166225354182149
1.1564570760284489381
1.1564717908006334479
1.1564861126446499551
1.1564975951052927083
1.1564853938561854285
1.1564350399017793158
1.1563626793677930227
1.157935743475599466
1.1578774113518928157
1.1578098610390428203
1.1577456313328500226
1.1576972574701462904
1.1576736068817279346
1.1576793421024342834
1.1577123530919757322
1.1577657788476742873
1.1578300193640429505
1.1578921877471175517
1.1579451263152307217
1.1579792057302735753
1.1579928728137889316
1.157986503885527485
1.1579632880447789933
1.1579295122210557789
1.1578925269907587303
1.1481944655715792258
1.1489657437427698294
1.1497844608155625146
1.1505935056504059677
1.1513338546999516421
1.1519684041737257019
1.1524921724778569576
1.1529308259512454082
1.153325695928175687
1.1537075066536253143
1.1540853982010867984
1.1544435370664183349
1.1547593162584026683
1.1550203212001783903
1.1552308702897653436
1.1554049180162893062
1.1555554371643506073
1.1556886784001934032
1.1558033366706046419
1.1558981832598440587
1.1559826167437219357
1.1560688823936453584
1.1561596502875872705
1.1562455942515397211
1.1563091695951450699
1.1563380619270986482
1.1563378164960542716
1.1578466090579346837
1.1577996692922494226
1.1577590732336342505
1.1577309986712087664
1.1577173529035051924
1.1577171123836518252
1.1577260124471071556
1.1577390877036122241
1.1577525555178151961
1.1577619959341849398
1.1577689379304880735
1.1577716923730445586
1.1577739350538480689
1.1577776725208730468
1.1577827100402755534
1.1577901106260699571
1.1577956394985828847
1.1480847892107868269
1.1487474563890760493
1.1494663173272166024
1.1502197673101270947
1.1509703953437444568
1.1516697944543656806
1.1522751524184846605
1.1527734365128183835
1.1531876055271061965
1.1535566827379721833
1.1539186174350035685
1.1542904541354572778
1.1546573498132770563
1.1549803709123156459
1.155219162266752253
1.1553539696175092466
1.1554010567303667489
1.1554006492360142655
1.1553951867451230928
1.1554185381023969192
1.1554866194988071548
1.1555929112529310654
1.1557206198558940269
1.1558592759267760641
1.1560035650256996753
1.1561446089354727729
1.1562689759147033453
1.1579080849561731448
1.1578873770448241398
1.1578670769951084907
1.1578453500435943457
1.1578193216731080817
1.1577862578982305308
1.157746029485254402
1.1577015587126637808
1.1576568211992996904
1.1576206701283597855
1.1575975279863601752
1.1575945354053711611
1.1576133172475382427
1.157649969221106856
1.1577011817130289373
1.1577533047594847915
1.1475310429842346949
1.1481124353975382668
1.148836121980104874
1.1496535637996294632
1.1504905209955207379
1.1512736539683756654
1.1519612558948015835
1.1525503741220468612
1.1530628826650703989
1.153526976684141836
1.1539621452906925203
1.1543730156446756485
1.1547466695598815889
1.1550570399416000278
1.1552701105754543676
1.1553696675289213402
1.155374264139543472
1.1553255950652261408
1.1552711020437802514
1.155249263946444005
1.1552778545036719304
1.1553568217571121846
1.1554809321373022968
1.1556475916221669031
1.1558545327514162526
1.1560856660950513675
1.1563077822100154002
1.1564830022591661152
1.1580502576013138594
1.1580164283155758298
1.1579676503402107635
1.157905126542155827
1.1578313153392836288
1.157751004682376017
1.1576713810325127696
1.157600374569710544
1.1575489442040460819
1.1575226457686120796
1.1575273855279524238
1.1575619710184945621
1.1576191307131826758
1.1576931095168343511
1.157766557063709012
1.1476674395242096871
1.1483788959937777374
1.1492172071088784246
1.1500802160158647425
1.1508822373184035559
1.1515898771258292754
1.1522174357353700547
1.1527958154348962871
1.153345490529795514
1.1538608897309512447
1.1543240938714571797
1.1547170136719229205
1.1550218889985703896
1.155230753760159601
1.1553502329568656748
1.1553968534244325461
1.1553963684735033546
1.1553748444245250937
1.1553503162171763208
1.1553378437769790121
1.1553510287519359601
1.1554075404240404801
1.1555309988284769851
1.1557345314371727518
1.155997322148228923
1.1562661010248116433
1.15647893905061383
1.1581287884148383505
1.1580532401319048041
1.157961034714946047
1.1578595135914644398
1.1577573381510006811
1.1576641992623288857
1.1575888863016610131
1.157540713691053158
1.1575229582306325593
1.1575385338713983785
1.1575834428513060992
1.1576486264124417058
1.157728130499607877
1.1578051697943492204
1.1485208028389439772
1.149318522513301577
1.1501159619428826808
1.1508376784808473925
1.1514756471969511686
1.1520696137023860306
1.1526606540859636318
1.1532533393273114442
1.1538192138392926456
1.1543117787501215865
1.1547022721432920189
1.1549839888779469543
1.1551762993151322156
1.1553077234476427648
1.155399380331935788
1.1554630468329569748
1.1554945729996322079
1.1554829953407144139
1.1554345838252222389
1.1553821588774484397
1.1553759565718879632
1.1554629862602900925
1.1556606166420149151
1.1559393840335991932
1.1562333011931633653
1.156464787696102281
1.1581110565030934278
1.1579976044963018467
1.1578809144142792054
1.1577724502603206069
1.1576824294214589361
1.1576180610785917757
1.1575846260437492319
1.1575815904057491501
1.1576081575679801894
1.1576579968630746897
1.1577220750166754559
1.1577965052845080596
1.1578678270407369855
1.1494164791912999668
1.15023988325827764
1.1509718263147057371
1.1516154199764694344
1.1522211304408658261
1.1528341288801953191
1.1534514103848589883
1.1540316790887044096
1.1545204733921352602
1.1548795654530799037
1.1551128352137189914
1.1552614291807838942
1.1553774208846570026
1.1554911266516172397
1.1555970881824206842
1.1556674099635946273
1.1556736690051760963
1.1556095394163627965
1.1555131029224434691
1.1554552776777609058
1.1554993784046836414
1.1556627079206236441
1.155908542318141885
1.1561642670305227742
1.1563573142354237611
1.1580172137770323726
1.1578999561080394187
1.1577999538212730979
1.1577260624026333158
1.157682417845768752
1.1576695283328939379
1.1576828307306308297
1.1577181209081564006
1.1577679466182879686
1.1578253359520471744
1.157889919122393918
1.1579528710393258706
1.150543420437776243
1.1512094576924696288
1.1517903607632156149
1.1523472199775246505
1.1529243948231298056
1.1535217320495620985
1.1540912196236363663
1.1545706962265360751
1.1549164616021190266
1.1551318484323593871
1.155261830844532378
1.1553674887838971674
1.1554902804866555854
1.1556238776562246517
1.1557283604371832997
1.1557644066691525886
1.1557241221050396085
1.1556431716067645521
1.1555888590943692584
1.1556216932105174422
1.1557584350970615539
1.1559614604202159693
1.1561574433065950895
1.1562835189192512964
1.1514608143545628227
1.1520492157540060951
1.1525932359777737446
1.153135664546435013
1.1536843276492885213
1.1542038611211589139
1.154642512882854577
1.1549634323317143902
1.1551666898884196399
1.1552918025796548029
1.1553976013458826522
1.1555227690747633673
1.1556639278211942035
1.1557860711857839142
1.1558512474563875649
1.1558479113004178629
1.1558025485068079696
1.1557682113018274972
1.1557937755291856075
1.1558917211398460623
1.156028901649953422
1.1561442862810886734
1.1561930019175905571
1.1522028716241403679
1.1528312633494413042
1.1534230316392348747
1.15395888826687254
1.1544065653656523374
1.1547482202532144413
1.1549866253910145986
1.1551533657044863457
1.1552926498040261283
1.1554356473448892384
1.1555890365452023971
1.1557318434671239871
1.1558357858032477505
1.155888605250517509
1.1559050613490600146
1.155919684309773654
1.1559640258888317366
1.1560430752107360153
1.1561280072321136192
1.1561744659690322834
1.1561575208119307945
1.1545448248054526186
1.1548405667786330042
1.1550705564201144693
1.1552520046119456598
1.1554050243518487751
1.1555477479734150847
1.1556888862129772733
1.1558217494773777023
1.155930374092343671
1.1560048317173901022
1.1560499013704546023
1.156083330830994127
1.1561214877101664289
1.1561629198775338345
1.1561882309245958833
1.1561731654204991937
1.1561113526345236924
1.1554335538455355881
1.1556051497026824659
1.155763969297586069
1.1559069563959205595
1.1560261985936091111
1.1561167788811943513
1.1561799590731036691
1.1562211670714819256
1.1562464556064657728
1.1562556921133213539
1.1562401979860728041
1.1561917142834072791
1.1561146136941988782
1.1556216617554033732
1.1558197219477568396
1.155989783766750989
1.1561276592707279143
1.1562303150031751908
1.15629965169671034
1.1563376596035377375
1.1563467029440301914
1.156331275950132742
1.156293109119526985
1.1562347688138883139
1.1561646721543750171
1.148958764727206372
1.1495216045758616108
1.1497295337141764104
1.1496093841338006492
1.1492622737223370244
1.1488195256276030332
1.148395774161806715
1.1480521367059159932
1.1477934288954207975
1.1475803292710546888
1.1473628611016259971
1.1471093325632657489
1.1468218264183995814
1.1465299882934023579
1.1462751773536998812
1.1461113077086995116
1.1461061806024925858
1.1463308641370415497
1.1468295372087460304
1.1475760540335480098
1.1474995855714502646
1.1484779584213153925
1.1492679972891557405
1.1497334941383523521
1.1498404478573327481
1.1496594769618220244
1.1493044232135869454
1.1488927385541349846
1.1485026261879347498
1.1481672560703262143
1.1478856089268525409
1.1476373951724674338
1.1473971574489287839
1.1471393381682637447
1.1468453003258107792
1.1465188097611056506
1.1461986222360380783
1.1459712050854886645
1.1459497514904630755
1.1462248021466383552
1.146818720439967132
1.1476560672777895711
1.1454831396748470507
1.146049509003117528
1.1469309354794434697
1.1479433487497643362
1.1488710012297871366
1.1495388659630145778
1.1498684516247819065
1.1498754562204904772
1.1496470399898162107
1.1492803546245704549
1.1488624322528488975
1.1484534185245087734
1.148092753894046858
1.1477975303257019757
1.1475519645063141372
1.1473143549651028117
1.1470268683640989504
1.1466557517754971673
1.1462294678201547793
1.1458479139367341304
1.1456462749354858754
1.1457448978582362997
1.1461850988907980042
1.1469202790060168962
1.1478374523636698523
1.1487939016333990061
1.1452829020665540316
1.1455343193130882451
1.1461088533898373676
1.1468963347259784058
1.1477308453949217615
1.148441782296072855
1.1489165848914875134
1.1491289936766591051
1.1491189282727110044
1.1489513216808195928
1.1486857320637258173
1.1483577877610620099
1.1480056246082086524
1.147671850141769978
1.147396441498202746
1.1471831452523997275
1.1469947172539580738
1.1467715886050073859
1.1464771422483548413
1.1461470202220120918
1.1458869050969830994
1.1458198519090825318
1.1460207004034204115
1.1464818683779633979
1.1471183314403976539
1.1478270961711509734
1.1485169839010644921
1.1491075286250056475
1.1458395217858330373
1.1460545748462778182
1.1463232085976893249
1.14658324517306065
1.1467812011936631134
1.1468909891776746246
1.1469229411392751761
1.1469142077645173572
1.1469183816264230114
1.146962544274987339
1.1470309737035679909
1.1470663537505905172
1.1470110989897832621
1.1468539210744426171
1.1466551356460772393
1.1465080802450846598
1.1464802383048526835
1.1465671233084120395
1.1467070270623986872
1.146823026465168871
1.1468862230993701612
1.1469210991103087061
1.1469699289244248419
1.1470435719869660485
1.1471015563856390429
1.1471102957924355081
1.1470764496249239439
1.1470499890792162923
1.147072205045315707
1.1471331301950133952
1.1454239898158729005
1.1451878783690683239
1.1450863411843141826
1.1451359836046366425
1.1453183416254262283
1.1455859766293694513
1.1458839254532062757
1.1461758332569451646
1.1464555572653858384
1.1467352744237166995
1.1470187424731879133
1.1472688208568180279
1.1474225319169970572
1.1474268676604728601
1.1472997363650945246
1.1471317196997623533
1.1470409025381762547
1.1470895392774218546
1.1472358588027267157
1.1473664454984806582
1.1473741363757987699
1.1472320214235756097
1.1470043954300501721
1.1467954091085790225
1.1466563406856615792
1.1465860336067825731
1.1465640318598950831
1.1466136453778699167
1.1467933174147684205
1.1471372077592603134
1.14760111349941063
1.1480803240373151919
1.1464978468817692558
1.1463271467965758799
1.1462710692176680816
1.1463373475590723505
1.1465073169145691967
1.1467406897619432105
1.1469943163825060406
1.1472469660741742015
1.1475116296758327561
1.1478165986354631478
1.148174378015135888
1.1485469043556033597
1.1488508131379153721
1.1490097318743737187
1.1490157987400861916
1.1489451063089237692
1.1489082399514001231
1.1489648540904264795
1.1490754334692454552
1.1491292613190553507
1.149040568353044689
1.1488119658630444597
1.1485485743040615425
1.1483648644551964768
1.1483133920308210563
1.1483574940488445737
1.1484452946157517328
1.1485860464887038823
1.1488376727305138481
1.1492386658840516578
1.1497425722645875368
1.1502344847482137702
1.1506130678891319796
1.1462759179859436376
1.1462065835734447372
1.1461901427915337504
1.1462800800233814424
1.1465364407215861142
1.1469078808492012556
1.1483021862195599283
1.1481054695901884433
1.1480263084530146767
1.1480764507068803582
1.1482382908885739869
1.1484717420358265816
1.1487307916649327488
1.1489918058579740023
1.1492695504153991326
1.1495929723031959035
1.1499722280257240747
1.1503630889175551211
1.1506668986714303493
1.1507990801275231885
1.1507497290605785967
1.1506091137318874562
1.1505035098277767158
1.1505043270736281524
1.1505705547697377966
1.1505816599152884905
1.1504405568657947168
1.1501566497862640848
1.1498412869518155333
1.1496194434651199057
1.149537332979744475
1.1495489911579768183
1.1495952566034055575
1.1496882823600600432
1.1498990439237444239
1.1502728733282752138
1.1507603939723733966
1.1512333705847517251
1.1515801501688813779
1.1517774537871263707
1.1488875879951017112
1.1487555852433319892
1.148700780087678508
1.1486925376163312773
1.1487917694010287839
1.1490706111874993134
1.1494757399769259809
1.1500702468792451949
1.1498358954833560741
1.1497234461436880437
1.1497425301551773558
1.1498750634171672758
1.1500776973906954304
1.1503026986727697967
1.1505278628642967576
1.1507709059945485652
1.1510636012370336623
1.1514163704637865315
1.1517821127636640455
1.1520561149269448187
1.1521495328536965896
1.1520541040182497028
1.1518658230811031906
1.1517196346336413537
1.1516873955503643678
1.1517278552572476347
1.1517120028573710755
1.1515378628496795166
1.1512167748415722546
1.1508653659701209016
1.1506156566806835517
1.1505094695463760068
1.1504964724346149474
1.1505174153592203634
1.1505840589242237737
1.1507728453985643924
1.1511332462060033244
1.151613560021146121
1.1520781295006450318
1.1524095133464207219
1.152585306739012605
1.1526660564881223703
1.1587401639807444198
1.1587371546962270674
1.1587695647507545438
1.1588263230391431247
1.1588918417697577912
1.1589464357222889479
1.1589768292028679308
1.158968759714304575
1.1589221426787938984
1.1588371338267808852
1.1587243683744161693
1.1476982010120126976
1.1476837066426555101
1.147735129526854525
1.1479225701727173714
1.1483160223676660561
1.148937920442990146
1.1497413099973126105
1.1506259445898898708
1.1514795164836633123
1.1522230952720362573
1.1528372994245192906
1.1533592098370197832
1.1538482775218072973
1.1543580599649083673
1.1548970767195003706
1.1554346838880007464
1.1559081278818290617
1.1562651345368006872
1.1564948091347118098
1.1566268153818373143
1.1567136631851231421
1.1567978258691138382
1.1568885171429370562
1.1569621534967309273
1.1569918525810767296
1.1569784510256342358
1.1569637427961436682
1.1570118019861665992
1.1571617806955505348
1.1573936089599776711
1.1576223678122101735
1.1577477134259162028
1.1577097415239439027
1.1575249741446593799
1.1572745339430288158
1.1570533485429419507
1.1592215591052017487
1.159173758848203839
1.1591432735219489025
1.1591180626822341626
1.1590851379524413911
1.1590351652140635785
1.1589656037628763841
1.1588823763496838293
1.1587976473697336743
1.1587272657337770454
1.1586853813955635406
1.158681190446780418
1.1587148722408984192
1.1587772492327812479
1.1588536438348850943
1.1589235673840800889
1.1589727189575700361
1.1589848191215013085
1.1589578569295544419
1.1588905057373430907
1.1587899882027474785
1.1474587585636464304
1.1473882707070444109
1.1474079051858343536
1.1475888705643619847
1.1479912146144533036
1.148621776967889474
1.1494167987723344915
1.1502727556939571496
1.1510895168924502041
1.1518070686797756697
1.1524213841921198132
1.1529774135137507152
1.1535412507514792857
1.154149779396244524
1.1547980078484003652
1.1554247467030620555
1.1559474828949911629
1.1563061273128236728
1.1564928811520807095
1.1565582391551816333
1.1565759496572958209
1.156602606370934927
1.1566566138094100946
1.1567192699256760857
1.1567631745779900498
1.1567837982744944014
1.1568145986137656767
1.1569111171773298619
1.1571073451260258658
1.1573774787893436056
1.1576347681213903229
1.1577769421770953695
1.157746579398407194
1.1575636125992747605
1.1573130749039413079
1.1570938467112215076
1.1591356889058692659
1.1590666047557518503
1.1590217059185752291
1.1589915454309493992
1.1589637953096221246
1.158927581624503711
1.158876894186938733
1.1588133274302276909
1.158745276848013761
1.1586861565442239108
1.1586487986542419737
1.1586431584622460811
1.1586722947790817351
1.1587303275480469456
1.1588064847735419782
1.1588823040707170176
1.1589439540209469648
1.158973862669829602
1.1589677743822175415
1.1589222678657711274
1.1588411817633375023
1.1471554195413349309
1.1471942947965574344
1.147405973500344345
1.1478225805800224002
1.1484286103901253373
1.1491639534407884771
1.149949837371257777
1.1507141966620537676
1.1514146872403665522
1.152053957897352765
1.1526719005810401875
1.1533183876184152084
1.1540180220875857486
1.1547431014507143487
1.1554207801388733934
1.155960458377852218
1.1563025828946011941
1.1564491531095197896
1.1564612115764372202
1.1564209140788763719
1.1563955505996632578
1.1564162225099809955
1.1564756600354744176
1.1565461070375593344
1.1566127932178875692
1.1566917332093991089
1.1568223391354692797
1.1570303225175970763
1.1572938120323517097
1.1575416401970153313
1.1576887010131571287
1.1576853145319916383
1.1575513858713326609
1.1573588355566128971
1.1589399817740262399
1.1588822982822131191
1.1588473925402913434
1.1588243263136379646
1.1588016910823339956
1.1587711400506117698
1.158730395169867311
1.1586829207892221927
1.1586380741606852052
1.1586062887304064972
1.1585970058872205879
1.1586154633201379838
1.1586596554059349629
1.1587241780023083138
1.1587951793644648557
1.158862147784277985
1.1589083264687756181
1.1589270957202790768
1.158911131688290963
1.1588591604938467405
1.1468887242245491276
1.1470188429360881344
1.1473390084361028141
1.147834016083066011
1.1484660198823437582
1.149184062134689599
1.1499402624462791156
1.1506946783957050506
1.1514226010859112126
1.152120348397909888
1.1528019256867696463
1.153491552762621275
1.1542001810822570818
1.1549005746459133359
1.1555307486544661444
1.1560199875299987937
1.156319771507560823
1.1564307410946152999
1.1564044697814388485
1.1563207232438694749
1.156254929580341706
1.156250028940467578
1.1563077685901916869
1.1564038107733176641
1.1565138794616611762
1.1566328387433131297
1.1567764595824983065
1.1569590729668997042
1.1571696697942090992
1.1573674352863703163
1.1574995729647397091
1.1575317131745856969
1.157473013832054809
1.1573664501514142611
1.1588230269083192869
1.1587611490250790958
1.158724358093226936
1.1587048464425300232
1.1586920987952284978
1.158676976305812456
1.1586545240604610996
1.1586239637931614599
1.1585898365155875567
1.158559035121171199
1.1585403655243411425
1.1585410987978199682
1.1585632095020539367
1.1586069688940650035
1.1586632530807592367
1.1587254064020839905
1.1587790289601620497
1.1588175081709015668
1.1588317988190430796
1.1588155002513085279
1.1467539254745928723
1.1470105415993903097
1.14740427068901929
1.1479028623635598727
1.1484994719225463111
1.1491957788929123563
1.1499872113644626914
1.1508482165526827679
1.1517340715658652694
1.152596830139770212
1.1534040660526774236
1.1541450525331626853
1.1548135826069041432
1.1553846705523156402
1.1558252080761302061
1.15610581643913779
1.1562237841022411367
1.1562178197294026294
1.156154338413810212
1.1561007703061316754
1.1561046005891479904
1.1561803630202329707
1.156312148457423028
1.156467507502065617
1.1566196248999855989
1.1567584028730306667
1.1568883930016986561
1.157014375414787466
1.1571324187927520821
1.1572300932174874877
1.1572914032879819679
1.1573096476262165755
1.1586588957083567841
1.1586282940120691265
1.1586148935179210184
1.1586109926038545836
1.1586079489531879716
1.1585994281709899312
1.1585818183333573828
1.1585563819862061408
1.1585266772688056491
1.1584991343504480454
1.1584812803747315257
1.1584777945152002765
1.1584941549591440957
1.158526798175349759