# Forces                    
# CofR                      : (0.00000000000000000000e+00 0.00000000000000000000e+00 0.00000000000000000000e+00)
# Time                      forces(pressure viscous)	moments(pressure viscous)
0.01                        	((-1.99688361517504306601e-15 1.53631054653084556776e+04 -2.41863951791052088832e-14) (4.93719490384579073883e-01 -5.54143000409114492438e-03 -5.54634966106354885054e-07)) ((2.48987409430387884868e-02 6.40492737691860458878e-15 -1.75776767121262764704e+01) (5.03608933686686221327e-06 -3.86438334487929340683e-06 -4.74139518273681420668e-02))
