/*--------------------------------*- C++ -*----------------------------------*\
  =========                 |
  \\      /  F ield         | OpenFOAM: The Open Source CFD Toolbox
   \\    /   O peration     | Website:  https://openfoam.org
    \\  /    A nd           | Version:  12
     \\/     M anipulation  |
\*---------------------------------------------------------------------------*/
FoamFile
{
    format      ascii;
    class       volScalarField;
    location    "0.0055";
    object      k;
}
// * * * * * * * * * * * * * * * * * * * * * * * * * * * * * * * * * * * * * //

dimensions      [0 2 -2 0 0 0 0];

internalField   nonuniform List<scalar> 
75962
(
2.9563310278956138143e-05
4.7444626765585973303e-05
7.1276213864706800569e-05
8.6109366671159714838e-05
9.8838526281688914607e-05
0.00012041243735128796897
0.00015161608780738178781
0.00018827047186615662017
0.00022480906591746367554
0.00025936539180615903084
0.00030128051177085292487
0.00035728834943910160868
0.00041077835111954082116
0.00044082207211730252893
0.0004530406631699931898
0.00046863588334092169153
0.00050429214528766247785
0.00055238631875773676512
0.00060160462008878646568
0.00065168263823307706444
0.00070286031953163913364
0.00075302871276442559338
0.00080940987373262431211
0.00088605900076791483354
0.00098542330848229724334
0.0010893629099903278518
0.0011759984373358996299
0.0012390057482188679937
0.001284686077719893833
0.0013218165802749664954
0.0013609255222023892117
0.0014143037098602417694
0.0014890202785466306098
0.0015806298405505962018
0.0016727525479374540963
0.0017473459310486615364
0.0017951127181021894405
0.001823643489732084972
0.0018590571883479523659
0.001935955828252031467
0.0021139331511699009473
0.0023318196300056645565
0.0025210599208415123904
0.0026492293535418233279
0.0027251013743876161335
0.0027761095631201027599
0.0028175153969744134476
0.0028473378930674174588
0.002865556638739526988
0.002885325554839929859
0.0029260335419498662533
0.0030344879332114080978
0.0032603981033470451865
0.0034596455559506200834
0.0035780652787729093356
0.0036305674472299912306
0.0036894692344562238749
0.0038431212589225089912
0.004300484120659186886
0.0048044816530825778036
0.0051006553476243780137
0.0052134684244514615734
0.0052307419093074822986
0.0052224639060589163678
0.0051936913607593488892
0.0051799875697894444057
0.0051803869728702552078
0.0051962865469295802315
0.0052851820110028273694
0.0055644419576507484632
0.0057964184276808709828
0.0058825725178774379565
0.0058878491440075694449
0.0058632835151195680443
0.0058455749316275694427
0.0058595803854311657999
0.005948761180734558722
0.006220304807247488757
0.0065383224721171084859
0.0068208881125392676129
0.0070427941220216234985
0.0071768498814294137342
0.0072352952554058484747
0.007277340256794822583
0.0073695226292656906483
0.0076672549575317267348
0.008431967560109063578
0.009077998606737257975
0.0094058758451831762232
0.0094886786986849974007
0.009477153844029051824
0.0094073092558138605296
0.0093826513499939180607
0.009422653231178811789
0.0096872546119433043665
0.010373678572554353647
0.010860383054895185115
0.011066406651201491154
0.011105293763046872671
0.011100739033041946008
0.011105612048016173452
0.011172085220522001703
0.011286525524384860564
0.011307308958772740309
0.01126861909629323609
0.01107241922690637044
0.010886646686000565204
0.010842919826782759785
0.010862301512313239996
0.011004201433146081415
0.011264269945339765167
0.011416810066805217067
0.011485905878486248402
0.011508465371451991402
0.011512223522118775546
0.011510291323802468097
0.011502568963762175441
0.011471055604868978656
0.011407590626282999857
0.0113585723929742477
0.011331267822951598262
0.011321952168782961276
0.011322346207244600447
0.011338170276403311543
0.01140627863068791048
0.011516443335640681386
0.011616725514674191774
0.011726729611122494595
0.011859952844286893864
0.01201161092083609383
0.012163961529379265294
0.012294058053837441519
0.012387004292248551818
0.012441222728267748235
0.012467990259283487017
0.012488136559418874447
0.012522496825501990697
0.012601905497270710771
0.012783865114104659907
0.012988458519610487918
0.013173125182311548609
0.013324513879293327021
0.013445798677193917386
0.01355214249125921526
0.013661609806364759592
0.013786682624469101185
0.013927620067198026588
0.014074453021482136172
0.014209890018943066928
0.014318947032928363433
0.014396556363184232277
0.014447197397996196927
0.014487875974732314713
0.01453976907240999393
0.014621061749929119972
0.014742351414479468869
0.014902784957787280559
0.015091913345360634391
0.01529352910632273202
0.015488015321899745516
0.01565836700423276287
0.015794729399521471869
0.015895112133081257255
0.015966142856399134775
0.016020270673928055372
0.016072334160234773986
0.016136131679778349668
0.016219455606601734798
0.016325932967402190937
0.016453679249886967589
0.016594344698813320166
0.016738450437768979256
0.016877301765484839513
0.017004007576721741346
0.017113242000969579315
0.017204443471784448133
0.017279660322969118968
0.017345794878633000874
0.017408982770563543457
0.017480054107653787004
0.017563183355721302681
0.017665131128174860198
0.017784491676034283603
0.017922243461943692527
0.018072804068786529896
0.018231415261277406775
0.018392255412979272022
0.018548190886709971931
0.018643865114291981178
0.018628222110019750091
0.018612517505704057053
0.018596985114736820643
0.018581410990869091232
0.018565543814805671174
0.018549118433242063608
0.018532192519711762624
0.018514404441580426669
0.018495734449088530038
0.018476284842526231877
0.018456970493127704963
0.018437926506304040675
0.018419158691442200082
0.018399780707598123453
0.018379965487037314836
0.018359534649195551753
0.018339145973090484332
0.018318318957143548548
0.018297616717838253303
0.018276719033860709673
0.018256430982961795867
0.01823622970026110221
0.018216756582238664147
0.018197523384106864541
0.01817923965731315164
0.018161004953696390646
0.018143092341250968008
0.018124364961895848142
0.018105506275621942314
0.01808562954661758343
0.018065791927051613741
0.018045245058096643503
0.018025415436712821649
0.01800552441339960813
0.017986609238275014927
0.017967272891601698132
0.017948318713149148673
0.017928628475271751047
0.017909576589645211098
0.017890241842364661834
0.017871812079670968548
0.017852918225566085514
0.017834587405164102625
0.017815483940995344159
0.017796746692303033049
0.017777116782429956687
0.017757873566883436434
0.017737661649387462259
0.017717718000036727921
0.017696536737652316523
0.017675727028858938261
0.017654129759825228085
0.017633648795710492319
0.017612928841031227217
0.01759355640675341198
0.017573818958235631199
0.017554994529443819495
0.017534938568079451449
0.017515213011135660065
0.017494286354524948846
0.017474464031779171624
0.017454238584549645191
0.017435328571202293735
0.017415578144171228042
0.017396422720089999708
0.017375829527344569675
0.01735556379985211603
0.017334013719761558192
0.01731339028322755394
0.017292306756819704472
0.017272713222577531361
0.017252803058203168562
0.017233950546414886912
0.017214466399356937593
0.017195980903917273963
0.017177266575743650734
0.017159727347136253389
0.017141727846579263989
0.01712418213213197371
0.01710549308686848749
0.017087000934784834366
0.017067458855454104016
0.017048512754813578002
0.017028867189808900851
0.017010180918159232416
0.016991020162099645247
0.016972977358632752171
0.016954204288405178708
0.016936157071203491314
0.016916865953674080358
0.016898261872952978491
0.01687866666605632171
0.016860075253750789886
0.016840468966336799572
0.01682153176012697593
0.016801454917870103228
0.01678221714950605542
0.016762224648844761821
0.016743187999063924992
0.016723337181162412773
0.016704283137104529444
0.016684516787495454193
0.016665731713139047415
0.016646495763957432773
0.016628331280743671033
0.016609843856412401936
0.016592364361007957974
0.016574411384553566773
0.016556901288233158431
0.016538388399522496036
0.01651983738768242338
0.016500403993710006934
0.016481449700124151808
0.016462504029311476189
0.016444670764268930901
0.016427124062175862962
0.016410024177651420102
0.016392380025632469903
0.016374352209139183406
0.016355492263250691332
0.016336519065343505647
0.01631695333575547413
0.016297815432713864958
0.016278396402885902255
0.016260002652603293416
0.016241514386332801118
0.01622414644982182047
0.016206459498081228487
0.01618964658749364946
0.016172211543627777047
0.016155298731623014136
0.016137514963807605278
0.016120111573149853434
0.016102143812454124128
0.016084571016739775129
0.016066623949659106924
0.016048623620198345513
0.016030374065043269394
0.016012153585305125003
0.015994085719692571063
0.01597661798936959171
0.015959159320671739701
0.01594265827403076527
0.015925560618630908716
0.015909143797273761489
0.015891449288667886669
0.015873874966602075781
0.015855538177503215869
0.015837452493261013758
0.015819754437919643364
0.015802424874533090721
0.015785570550090555209
0.015768858704137845433
0.015751905496735631867
0.015734910641440748996
0.01571767361188393039
0.015700574500521799481
0.015684188846179822341
0.015667822115821163076
0.015652540023122787916
0.01563686571945406556
0.015621910082594725466
0.015606184291994158395
0.01559073223825283884
0.01557396083515908726
0.015557753308747271359
0.015540198838040994098
0.015524016450483407378
0.015507055271599075319
0.015491516190734796327
0.015475506420413707304
0.015460624109551091357
0.015444450759501883452
0.015429779866450684875
0.015412862471082410323
0.015397768872776785784
0.015380238433203498316
0.015364378085155947981
0.015345970890408070636
0.015329482047036218847
0.015310679313511871627
0.01529444849899789724
0.015276301285449787881
0.015260978488599438382
0.015243878439621594972
0.015229404367199448136
0.015212874982894154449
0.015198806288202819717
0.015182462408757103553
0.015168534303818244011
0.015152114049114180985
0.015138108925006289393
0.01512133889391705302
0.015106973305576748903
0.015089904465489628951
0.015075965359102633245
0.015059147395660468088
0.015046115545008814651
0.015029882541927132994
0.01501715156566182062
0.015000902691992421684
0.014988188611124634783
0.014971699959473148273
0.014958932171248544296
0.014942653617834568414
0.014929898024839400109
0.014914051289137151071
0.014901624168546760349
0.014886119250094358157
0.014874183724398793577
0.014858910753194362261
0.014847308605590131894
0.014832057766276409566
0.014820123787928449199
0.01480409128531836975
0.014791218810469651535
0.014774508254976646132
0.01476198362578818625
0.014746105150796258096
0.014735254501730580406
0.014720763713447561002
0.014710895377447035307
0.014696894153685618328
0.014687176933795642944
0.014673104166583707947
0.014663296768100702108
0.014648988485222702235
0.014638794759496143172
0.01462430656537405671
0.014613819012395425079
0.014598962681194246893
0.014588243993136268406
0.014573107850257654289
0.014562060094684236081
0.014547141884103453185
0.01453656905028950265
0.014522110410833071956
0.014511992721276465237
0.014497956041972546309
0.014488188666681100017
0.014474508909792044298
0.014465096517469645462
0.014451894297470898459
0.014442508752410095768
0.014429097348959866315
0.014420078000633239357
0.014406703766426292093
0.014398319805797974921
0.014385182354295230137
0.014377466592463259212
0.014364540756304942579
0.01435701656925307719
0.014344658384620095903
3.1980489609664004955e-05
4.4058886028756783101e-05
7.4607598458027030164e-05
0.0001001727791072244846
0.00011980081901514889821
0.00014234766195650471778
0.00016673515044925049221
0.00019491101904740024478
0.0002284385494707756527
0.00026023905139938848874
0.00029438011236262399007
0.00034417791048359268943
0.00040410347985861714637
0.00045507942674497615975
0.00048872520774555304034
0.00050773945232173139236
0.00052818427667660275415
0.00057046847629526372791
0.00063530192833327159101
0.00069809226098658074596
0.0007414457233590212009
0.00077508091623002602511
0.00082994381373962318894
0.00092948175796553919679
0.0010637289565840479799
0.0011943255126605784727
0.0012891943453878203577
0.0013439235932487312956
0.0013716874549525952514
0.0013889441070697088141
0.0014126828631548767404
0.0014611099343515624154
0.0015433035512138100487
0.001649890875174944661
0.0017583356539937029187
0.0018457572012152919944
0.0019004650878926573985
0.0019274253229031356252
0.0019482223854222424034
0.001989547444417148845
0.002100324345750693468
0.0023470857390102176608
0.002587530059279931436
0.0027632475928880523806
0.0028626223014561742557
0.0029057083115183028089
0.0029218248369219513953
0.0029308317118471034594
0.0029441978426775722126
0.0029718538096003845571
0.0030383702656577868742
0.0032156381774547330293
0.003461418340543102358
0.003673801162150844811
0.0038064902914980744235
0.0038631763024708975704
0.0039074193731765361967
0.0040124496242031947382
0.0043558972954997159099
0.004863397087992589983
0.0051957120549823406289
0.0053440223926335232718
0.0053782980805204532587
0.0053770381429701311765
0.0053684673130833188495
0.0053667100229281821527
0.005370779777150355358
0.0053943257395495476311
0.0054913437745614003538
0.0057623968530797851223
0.0059888489948115141565
0.0060874393263116565594
0.0061021761559492690777
0.0060896332873266109664
0.0060719234649432374598
0.0060761827658275856592
0.0061281911136065684437
0.0063469557704208725418
0.0067704424529275988517
0.0071524251738121552222
0.0074456543270111910302
0.0076204356498242942566
0.0076952923951342649955
0.0077413037527563144727
0.0078352263028403923428
0.0081249703506871846087
0.0087980943570790115515
0.0093429299260838552521
0.0096193119738730344798
0.009686344480246094138
0.0096742462762957302791
0.009621265244417002635
0.0096156976298062031561
0.0096954886005471800636
0.010131972429962953636
0.010964101611526803556
0.011483917331596836531
0.011695632613683273546
0.011734767685220165445
0.011733935724988488539
0.011752989915825420852
0.011889197185427293965
0.012076049715274140423
0.012117186042660611431
0.012080700508304372323
0.011870745527048042617
0.011644824117660204296
0.011587684599882889028
0.011607328522569496446
0.011761725007365235809
0.012045674855472770018
0.012203816059348636391
0.012267405408435325814
0.012283147995407531911
0.01228348053096783854
0.012277703226801823036
0.012248503964560961479
0.012162008570476360789
0.012081739534836610089
0.012038749714913523844
0.012024891938424760868
0.012024892814137915636
0.012040167130073775592
0.012076485621782019619
0.012107939666995509026
0.012157843554972449715
0.012248618264928992985
0.012384609218165124403
0.012549447888038189891
0.012713332888714129129
0.012848006150744765985
0.012938455118480303441
0.012987359929724773266
0.013013539815838762181
0.013042716662644225287
0.013103591983923459571
0.013224379205706585094
0.013381313275215503747
0.013553771387973036558
0.013719719202725872559
0.013866308283704503398
0.013992143292418010234
0.014106474241230392355
0.014224230903072622792
0.014358774790450386932
0.014514102555185022167
0.014683163862058444538
0.014850618354323334019
0.01499835276228138857
0.015111699725448230272
0.01518675625352300905
0.015230173814534501975
0.015258703872499715035
0.015293239781944158867
0.015358060935006547648
0.015467255980881753491
0.015626505724004664116
0.015828426958900267824
0.016057962757806968496
0.016290548554089949451
0.016501779002882771552
0.016670940237214368351
0.016788058839654920046
0.016854978701385563838
0.016885678799916457177
0.016904000995793762308
0.016933343387127309382
0.016998664340861543987
0.017104240145495362008
0.017239528353237779795
0.017392257957207817726
0.017550956004904576246
0.017704976501691640361
0.0178460774054715679
0.017968051063922286376
0.018069779244020651998
0.018154823576579957878
0.018229214249484058941
0.018302379450590985227
0.018382268841758843403
0.018477955991914450651
0.018590611452081025334
0.018724357256344126982
0.018874745058251235497
0.019038907146994788616
0.01920994417729128198
0.019381737571526672786
0.019547407554341152125
0.019701706951768791637
0.019639134291328994714
0.019622371757601148046
0.019605748675900949024
0.019589337659099148592
0.019573376794992252553
0.01955775326617139806
0.019542242984304313003
0.019526104002146167649
0.019509028746143127625
0.019490625432087932412
0.019471335896741447796
0.019451363481268059419
0.019431513563054579607
0.019411744830079232654
0.019392193011143078057
0.019372107258276816122
0.019351484247113755199
0.019329950582077981558
0.019308038331827492157
0.019285696753125761149
0.019263680283735803989
0.019241868483432851555
0.019220771606774999379
0.019199879469906769303
0.019179645749730137722
0.019159644900505690829
0.019140206076460150597
0.01912050611906577352
0.019100708485354826738
0.019080306180141785172
0.019059859920705093939
0.01903875334599857902
0.019017466105269657806
0.018995513416777749793
0.018973996891871493242
0.018952663373405169434
0.018932276035407331199
0.018911893444258282004
0.01889193707120497695
0.018871607729674982207
0.018851648492834126303
0.018831382193296823668
0.018811562102453695255
0.018791442499417141537
0.018771772419038077612
0.018751811117477045626
0.018732216141973116741
0.018712287985684909752
0.018692627751792725149
0.018672345631208543681
0.018651756993398951878
0.018629868952444277042
0.018607526524447019767
0.018584562814909572764
0.018562197044227440185
0.018540181071832684961
0.018519166185108591749
0.018498397169004379692
0.018478090224780537032
0.018457393080571635191
0.01843678515377036517
0.018415902567155709169
0.018395435721531128159
0.018374881946021919682
0.018354595976971910948
0.018334007980508826297
0.018313398749871128562
0.018292173718757277767
0.018270572231199662394
0.018248445502916946226
0.01822655760964391608
0.018204905887407456938
0.018183942827395566805
0.018163119701694561969
0.018142712859168182854
0.018122464187586839746
0.018102904477845706971
0.018083789605237876597
0.018065112532564125969
0.018046242724234565213
0.018027057839004559381
0.018007279160227457337
0.01798719080374263507
0.01796678768641450652
0.017946547514696077619
0.01792640731997887163
0.01790671895097618177
0.017887198368459842485
0.017868021073285684369
0.017848732017061445104
0.017829321476943139901
0.017809324813066039483
0.017789107509526058681
0.017768556027517749818
0.017748276084918700873
0.017727778226982519177
0.017707298687948826166
0.017686486716936601626
0.017665871838484878409
0.01764546792692133978
0.017625430848497748715
0.017605446620989988887
0.017585498053947743596
0.017565581171833762747
0.017545924556560489604
0.017526560644522157922
0.017507372671047304741
0.017488268741721182259
0.01746922903937814589
0.017450283191741359362
0.017431270866004398845
0.017412043298537408648
0.017392271525915957431
0.017372232370286375819
0.017352041176199841516
0.017332403745855450017
0.017313296467800855932
0.017295037025772324463
0.017276714639738607882
0.01725837003834041275
0.017239125184253731304
0.017219584179571263693
0.017199513953160740914
0.01717950748180585574
0.01715942877460477356
0.017139615221001276713
0.017120096352961834685
0.017101045322972924928
0.017082498980416509909
0.017064310877431924929
0.017046346120881860492
0.017028354290390637638
0.017009988474095648348
0.016991403661965370081
0.016972366290996999949
0.016953562220854118126
0.016934479613714401025
0.016915845698260729285
0.016896582522556161804
0.016877750186035232749
0.016858392728564378787
0.016839724776839395254
0.016821154035736609472
0.016803220527596689216
0.016785564737266122498
0.016767844295887686379
0.016749875260874787924
0.016731202306877183961
0.016711899544375442839
0.01669264161079631395
0.016673083073188234987
0.016654729665348651235
0.016636154482091387863
0.016618865167581205883
0.016601115919591805103
0.016583984283094349577
0.016566054540828642483
0.016548436405840440816
0.016530065157854344216
0.016512965098117466517
0.01649526305709788504
0.016479490705088306601
0.016462650593193371706
0.016447317714044406428
0.016430309180244285355
0.016414323740733410134
0.016396197632195824712
0.016379188830089638773
0.016360114951551534002
0.016342871955421587465
0.016324173577708205041
0.016307572200102937038
0.01628979475660315146
0.016273962077149876221
0.016256170043826803639
0.016240660288954971574
0.01622226347287963541
0.016206386626694616049
0.016187425560848248129
0.016170893781930262278
0.016151322698396326089
0.016134520240553687498
0.016114637979536161616
0.016097992394004247835
0.016078443850545479088
0.016062174069358513967
0.016043314061996032799
0.016027734289631910547
0.016009415395676122873
0.015994344669084156751
0.015976421372703365764
0.015961698822654305646
0.015943914512011179985
0.015929153795419832146
0.015911063680608718285
0.015896143734640242468
0.015877906738577408224
0.015863643157982023485
0.015845825378534378336
0.01583240637635409398
0.015815030751610614779
0.015801766560415517887
0.015784271791076286834
0.015770747379027214019
0.015752674509461418728
0.015738877438699359901
0.015720662289416584279
0.015706847782469987584
0.015689145702829528778
0.015675834363679353595
0.015658739166283484889
0.015646047380966220108
0.015629314827063374438
0.015617007753709596929
0.015600395229059539973
0.015587919380714463854
0.015570575623655741326
0.015557384865477563371
0.01553945317670354237
0.01552642903125247241
0.015509287925400660688
0.015497847325798818838
0.015481897203202024324
0.015471336036079613718
0.015455837018778765049
0.015445491386099206854
0.015430047079573983373
0.015419659358551574338
0.015404246231238602829
0.015393631912988791841
0.015378016644950516165
0.015367264371804472897
0.015351334877232222093
0.015340273801704247883
0.015323912337428491695
0.01531236632225853149
0.015295880737818368447
0.015284440147004554195
0.015268235272692999918
0.015257255721130149467
0.015241491488573996604
0.015230961103889485014
0.015215841151514588117
0.015205746230176725789
0.015190943155436002765
0.015180858493528690337
0.015165861537308037571
0.015156027364168949204
0.015141094625188573561
0.015132000837389669376
0.015117413045942842964
0.015108971618562552428
0.015094700418433693034
0.015086620431171052226
0.015073007533305754838
3.6506590822615487559e-05
4.9786598528275445032e-05
7.6954361991148748675e-05
0.00010505883709478100712
0.00012345800593666696621
0.00013470794672060164916
0.00015123463314970032119
0.00019170153730623050014
0.00026278883245389619925
0.0003173370031471469321
0.00035065609099184158253
0.00038874349271567255762
0.00043940996830829843253
0.0004824674928513392083
0.00050674235134802567311
0.00052080359486338838673
0.00054249891836213404248
0.00059271895902932459493
0.00067168079379603207266
0.00074211481434716304335
0.00078799539936613748406
0.00082307413951603319423
0.00087772664555172937376
0.00096957041348136243242
0.0010910879355799404759
0.0012134258001567593908
0.0013118275560272049662
0.001383365225740342333
0.0014332878884028331726
0.0014684970261433540062
0.0015012388846244639675
0.0015495594437047361964
0.0016275791869074119483
0.0017319124162034035038
0.0018390143076452312651
0.0019208301733206350776
0.0019665367801236406653
0.0019890669049356492562
0.0020179442616432034449
0.0020873448004429368506
0.0023000354290842106239
0.0026420112556501708367
0.0028989236221608036433
0.0030321242002641413983
0.0030700045806934081645
0.0030708054240619411801
0.0030653844513980513069
0.0030651852882487887718
0.0030746306237121518758
0.0031160910406989794294
0.0032560583018262441619
0.0034886814284541788067
0.0036900326320642162781
0.0038327546871998593656
0.0039104752755545167664
0.0039446723459322244679
0.0039859308929949171033
0.0040954240047683570028
0.0044560896375074252052
0.0049356314875722284707
0.0052412753646441942804
0.0053760928173573361774
0.0054098077629729365498
0.005412048149872054903
0.0054153424743873055519
0.0054299982103083238236
0.0054838248016485582892
0.0056612190129161814658
0.0059248980972930057401
0.0061265045835694198484
0.0062380742550856918549
0.0062707285763205890608
0.0062681145333126509628
0.0062477749463356428705
0.0062438551232262516633
0.0062727945914214143855
0.0064310586461123571064
0.0068801215595909294767
0.0073392092528604723281
0.0076943151183427142825
0.007930801744228308664
0.0080504008986880919163
0.0080971941613959663026
0.0081441136459917684576
0.0082649051457282067534
0.008704501632135003969
0.009525195503282854817
0.010043017204785984614
0.01023191941502302714
0.010245285119896481441
0.01017616065647661272
0.010055850300828585858
0.010040605527290183061
0.010124757825948663484
0.010608358591402735835
0.011544536437500547282
0.012120612641870035647
0.012347232489817921985
0.012385111812230897854
0.012384242114342648364
0.012413769849260401432
0.012612050943272475403
0.012883930820378643525
0.012952144481159446124
0.012917125527330958201
0.012684876597459950748
0.012369314768816039654
0.012257484106731721465
0.012254247047742247018
0.012311546774860602366
0.01250701262209269124
0.012689449987556030222
0.012822010761330871614
0.012926492992224640488
0.013002170810799917183
0.013042095969708846284
0.013050651367021453078
0.013043447618370057964
0.012993531815700950366
0.012867732599684140668
0.012783500227204619426
0.012751986013290767669
0.012748873297364658047
0.012762032453360775547
0.012831782712448787376
0.012932187624200397469
0.012985180437953049506
0.013012914745513770934
0.013050691925969120505
0.013138103589248117248
0.0133005955727936373
0.013471191444551446417
0.013625564420869103188
0.013756735330225575153
0.013875500243594350233
0.013997968260709318239
0.014131974804950656749
0.014275443702198176849
0.014416297366448737466
0.014543145192003052724
0.014652505488086962904
0.014751346359794980517
0.014850821352534567671
0.01496121452426127027
0.015090764441005278737
0.015240455446284863206
0.015405414275771528096
0.015575358869548822788
0.0157382624173551533
0.015884807742088138255
0.016012357304378412731
0.016125119347272429821
0.016231378319283673584
0.016342762628702045546
0.016466088055418971747
0.016603278608712739028
0.016752418944608386125
0.016908132711734653181
0.017061135902412694759
0.017203905542645885063
0.017329508673232921212
0.017434440778061381649
0.01752053920980017887
0.017595937731776055413
0.017672888265054410156
0.017765198223961470303
0.017882716872875036029
0.018027148630827088266
0.018193958815317254341
0.018371784572941585179
0.018549277479158098048
0.018713891078256585099
0.018856810938684003681
0.018976044931533309762
0.019072465638419227457
0.0191495954268343406
0.01921254631664293111
0.019270089102709900275
0.01933238091676464307
0.019404565531737673345
0.01949546985380709585
0.019605360512698861292
0.019736609813384001222
0.01988307081366083931
0.020042843632472863435
0.020209166691997806908
0.0203746494006007417
0.020535448699380870474
0.020686308904029226952
0.020688778073078090136
0.020670400125153795545
0.020651966951587403393
0.02063384642738966615
0.020616161964835118953
0.020599591225610437012
0.020583315135921369243
0.020566688402883497033
0.020548324676548677947
0.020528647836449760711
0.020507629835547092761
0.02048642884536433853
0.020464917477754331759
0.020443999091243555272
0.02042305557324058593
0.020402359003647174696
0.020380657040986835393
0.020358265744023985172
0.020334549518630659626
0.020310924538913966569
0.020287283329140114174
0.020264903626693253624
0.020242764154335460974
0.020221569353955300835
0.02020022941245211423
0.020179685392337564503
0.020158650940337908414
0.020137714928264615483
0.020115712700643544053
0.020093998835101118533
0.020071626623802341777
0.020049620814475685449
0.020026427133315361645
0.020003504591364074106
0.019979942980201847308
0.019957619388526047499
0.019935074088538430603
0.019913725031593221271
0.019891890621152926583
0.019871109622412713031
0.019849493522618381902
0.019828472472567085921
0.019806254724927811056
0.019784837338152633929
0.019762794340230947776
0.019742144494199819621
0.019721019946419646868
0.01970108418039155998
0.01968015984107290145
0.019659740485542816224
0.019637431626080798647
0.019614967577931945869
0.019590505781313837658
0.019566650310814205638
0.019541960522149081497
0.019519026182567213168
0.019495799156006000941
0.019474321069751682894
0.019452038827497207529
0.019431176188360002599
0.019409346330168678052
0.019389014360510301721
0.019367433102204258816
0.019346775361722391706
0.019324478560367931712
0.019303254234533939737
0.019280646447471960769
0.019259131295519253679
0.019235783128972672174
0.019213509668967607147
0.019189969490404624325
0.019168208775241373648
0.019145363899152906956
0.019124042063178445933
0.019101478262199125119
0.019080930823950945086
0.019059724041581651427
0.019040557787841246723
0.019020056767850471169
0.01900069448926463081
0.018979371257005269585
0.018959091881894912096
0.018936869164139464444
0.018916146878556149707
0.018893946106098308962
0.018873881152172099912
0.018852498770566532976
0.018833105808948816945
0.018811927176329578532
0.018792425578632549615
0.018770724156024914259
0.018750413708001137381
0.018727800398331665571
0.018706889277133952054
0.018684190723613231661
0.018663541850710601427
0.018640931372335991373
0.018620135938510806728
0.018597318660686913
0.018576719665040996449
0.018554501644322037718
0.018534564209796450945
0.01851292366908665124
0.018493542894313159952
0.018472654025512510317
0.018453959146739636749
0.018433368230283447148
0.018414265140125719161
0.018393004362198223794
0.018373460906707449886
0.01835226435866753672
0.018332729234908966276
0.018311286805741469608
0.018291178211037460027
0.018269293557203455936
0.018249443693407352979
0.018228417810971921792
0.018209722493198448462
0.018189500486786545908
0.018170838697453357141
0.018149822837610872506
0.018130135331531696541
0.018108313289868019358
0.018088363463296733974
0.018066650962756496124
0.018047026283381235878
0.018025806637888219797
0.018006868401274248731
0.017986627608472294942
0.017968558469421001128
0.017948909362890296676
0.017930807903168102801
0.017910506680665849721
0.01789149371847150935
0.017870429882001118149
0.017851068491654513426
0.017830188262334626531
0.017811042638022536733