/*--------------------------------*- C++ -*----------------------------------*\
  =========                 |
  \\      /  F ield         | OpenFOAM: The Open Source CFD Toolbox
   \\    /   O peration     | Website:  https://openfoam.org
    \\  /    A nd           | Version:  12
     \\/     M anipulation  |
\*---------------------------------------------------------------------------*/
FoamFile
{
    format      ascii;
    class       volScalarField;
    location    "0.0055";
    object      nut;
}
// * * * * * * * * * * * * * * * * * * * * * * * * * * * * * * * * * * * * * //

dimensions      [0 2 -1 0 0 0 0];

internalField   nonuniform List<scalar> 
75962
(
4.5035959236113669885e-07
5.7013115078361545798e-07
6.9831590094639501956e-07
7.6701381158762788074e-07
8.2118211907944301739e-07
9.0575427805647425551e-07
1.0156538758000208651e-06
1.1309998812361470099e-06
1.235027793090320344e-06
1.3256357271110080767e-06
1.4277496888294421273e-06
1.5537256954663494254e-06
1.664819143489557319e-06
1.7234286965332155013e-06
1.7459371786890861405e-06
1.7745006279136526834e-06
1.8394918004443704588e-06
1.923873789701289085e-06
2.0063609628446960063e-06
2.0867476355774485837e-06
2.1656323695257754405e-06
2.2400326892376499578e-06
2.3207652011956376686e-06
2.4264795884217712097e-06
2.5571435202909210334e-06
2.6867567420051624996e-06
2.7896119457602861504e-06
2.8613794194393083708e-06
2.9116265044573895369e-06
2.9513527464419768449e-06
2.9926165136936251388e-06
3.0486221153617743234e-06
3.1259420914402571397e-06
3.2184300705744780639e-06
3.3085919270414182282e-06
3.3792099005815915589e-06
3.4227087971862234805e-06
3.4474059448247794675e-06
3.4783012875803131989e-06
3.5470467409065287744e-06
3.7039335006269693321e-06
3.8874373220087937977e-06
4.0392978062465148583e-06
4.1378280138673713534e-06
4.1937482323450191984e-06
4.2298765337555909152e-06
4.2583456043202955562e-06
4.2778507383998698262e-06
4.2885352925367522988e-06
4.3003149888509757665e-06
4.327537835974649253e-06
4.4039491691857367972e-06
4.5617688246547646015e-06
4.6958274185642375905e-06
4.7722020205044529524e-06
4.8037490529330185578e-06
4.8391977608018832345e-06
4.9355077077622158476e-06
5.2173122750792396785e-06
5.5107383827455280379e-06
5.6741116926115460102e-06
5.7325338965876764273e-06
5.7380360224129865483e-06
5.7295130725811788827e-06
5.7097412377979830963e-06
5.698244544264972806e-06
5.6945078057873295193e-06
5.6992801326476593248e-06
5.7438329258556691551e-06
5.8895349027772008824e-06
6.0068726195994036316e-06
6.0471476105043884275e-06
6.0456587393426755678e-06
6.028844825278622235e-06
6.015554158838962833e-06
6.0185746314431145368e-06
6.0599916494771964348e-06
6.192456417069150271e-06
6.3443723003354297895e-06
6.4755151187780760788e-06
6.5754385305025408136e-06
6.6331149483792586628e-06
6.6554448386852158441e-06
6.6701202944141593226e-06
6.707572429725563968e-06
6.8369753141697572175e-06
7.1648464850188824349e-06
7.4290939176461501982e-06
7.5568148293270247197e-06
7.5847347385701336463e-06
7.5748643221359632498e-06
7.5416603669113461996e-06
7.5265407241479967551e-06
7.5373311725589949717e-06
7.6371218046554205524e-06
7.8975815727137430554e-06
8.0751140556764801532e-06
8.1456880214027652841e-06
8.1543219162529573821e-06
8.1469891914157207597e-06
8.1431195262575572125e-06
8.1617830599005391693e-06
8.197783184881608494e-06
8.199630648266515977e-06
8.1799072034481695807e-06
8.1027540107386012818e-06
8.0289143519047001958e-06
8.0072105942185330867e-06
8.0087994974026740201e-06
8.055344655180449859e-06
8.1443185623437118795e-06
8.1935853606771147899e-06
8.2126362520983283973e-06
8.2149899340379727274e-06
8.2106265903021365474e-06
8.2042374107892679651e-06
8.1957905490909949196e-06
8.1788734297735043657e-06
8.150553932445685562e-06
8.1273769621987558239e-06
8.1119664800921452874e-06
8.1030015091726935396e-06
8.0975165402358066072e-06
8.0975471005816661481e-06
8.1161927081733644784e-06
8.1496304601479273495e-06
8.1793531473579438057e-06
8.2122832096058323695e-06
8.253065847825585339e-06
8.2998993114205100123e-06
8.3465707971555632127e-06
8.3852604985971892094e-06
8.4110543648058153462e-06
8.4235895138421714931e-06
8.4267916574823870199e-06
8.4277416853795327232e-06
8.4334685186353282413e-06
8.4542919070897008598e-06
8.5091971556213077114e-06
8.5710626391350573709e-06
8.6257852047338538564e-06
8.6691852503241573999e-06
8.7025046805663814335e-06
8.7307853245726967979e-06
8.759889652433651991e-06
8.7937872133781109282e-06
8.8324845390196194637e-06
8.8727564358258923102e-06
8.9091551503260436417e-06
8.9370681945469122149e-06
8.9550333632998731963e-06
8.9645411975121429499e-06
8.970920138826139127e-06
8.9807323192346860137e-06
8.9995505327696013309e-06
9.0305273156143541218e-06
9.0732278067909848563e-06
9.1242802467583873036e-06
9.1786474321261068938e-06
9.2304119257327746823e-06
9.2745916804902351363e-06
9.3084211938432659877e-06
9.3314706869718467522e-06
9.3458040322436377684e-06
9.3551327893544560242e-06
9.3638160820660869163e-06
9.3758678990407626219e-06
9.3935179264397675978e-06
9.4177574904925297737e-06
9.4479672400633857689e-06
9.4816798136170911719e-06
9.5161487963004915184e-06
9.5489028160274229157e-06
9.5780252399616849969e-06
9.6020694960740436284e-06
9.6209372050130043271e-06
9.6352510087604213343e-06
9.6469694319068951936e-06
9.6578145919061009813e-06
9.6707892483631016119e-06
9.6870271526798548884e-06
9.7083561261236748211e-06
9.7343366375147037423e-06
9.7651784928302341916e-06
9.7993018725233828705e-06
9.8353750339877448708e-06
9.8718056014679666084e-06
9.9066825108171850206e-06
9.6667780097804575202e-06
9.6560129570730928605e-06
9.6452405307224994694e-06
9.6345213020024837334e-06
9.6237998221397177338e-06
9.6130110276005493151e-06
9.6020863424682793543e-06
9.5910407920418365533e-06
9.5797809026300245093e-06
9.5683017007257329214e-06
9.5566297644275924848e-06
9.5450017517476075699e-06
9.5334525642370656246e-06
9.5219836571440845001e-06
9.5103659214517277264e-06
9.4986441128746783297e-06
9.4867721884552394155e-06
9.4749201269456386637e-06
9.4629638051501761484e-06
9.4510486872214482113e-06
9.4390920614482090437e-06
9.4273018029713146073e-06
9.4155428573790326635e-06
9.4039807602474290859e-06
9.3924894112731699121e-06
9.3812518514987577851e-06
9.3700356443588634953e-06
9.358911203752839881e-06
9.3475853101754751052e-06
9.3362342843308221966e-06
9.324629545228314736e-06
9.3130436866660727186e-06
9.3012838290170447294e-06
9.2897176240085911934e-06
9.2781443673943157042e-06
9.2668312598570490508e-06
9.2554183511181963641e-06
9.2441125617389857113e-06
9.2326259137309815982e-06
9.2213123171872203457e-06
9.2099345644691674498e-06
9.1987983834546920313e-06
9.1875513669277110391e-06
9.1764578133455491064e-06
9.1651740723672581401e-06
9.153993128051644021e-06
9.1425912160205268262e-06
9.1312973607682223413e-06
9.1197630779475369166e-06
9.1083064072696128644e-06
9.0965402867170590083e-06
9.08487834327714573e-06
9.0730226887611915853e-06
9.0614625494809630628e-06
9.0498496363109722705e-06
9.0385914989336399759e-06
9.0272481452334314738e-06
9.0161478050215295034e-06
9.0047397273706312901e-06
8.9934250274101871304e-06
8.9818105232221194365e-06
8.9704880592927810796e-06
8.9590706451348091485e-06
8.947999309366939393e-06
8.9367207743418841995e-06
8.9256033565764572021e-06
8.9141255713771808366e-06
8.9027402824893585895e-06
8.8910340919037419928e-06
8.8795740602685755127e-06
8.8680045353331097738e-06
8.8568255173702073723e-06
8.8455737321525587479e-06
8.8346014538233492253e-06
8.8234756318370977817e-06
8.8126140751680272385e-06
8.8017021760075252521e-06
8.7910995836626756585e-06
8.7803872965347754247e-06
8.7697994274767753831e-06
8.7589270096003567749e-06
8.7481132518118184419e-06
8.7370389968487845655e-06
8.7261255653715303216e-06
8.715041399948506148e-06
8.7042109632420435676e-06
8.6932673588346474398e-06
8.6826179449235864837e-06
8.6717899193573912467e-06
8.6611556905611129163e-06
8.6502115711592671154e-06
8.6394512933002759979e-06
8.6284458409150044812e-06
8.617705139683982276e-06
8.606713241932236174e-06
8.5959004927229670014e-06
8.5848047405048309944e-06
8.5739315312175827614e-06
8.5628736945355631287e-06
8.552068154183575891e-06
8.5410628222988072607e-06
8.530269087439811351e-06
8.5193015969997370785e-06
8.5085927325866529507e-06
8.4977768495143941765e-06
8.4872424960244595828e-06
8.4766337397679047901e-06
8.4662901528461397568e-06
8.4558337174823020607e-06
8.4454981971328122169e-06
8.4349148742522539045e-06
8.424329815199805134e-06
8.4135277749012228908e-06
8.4028558902024801797e-06
8.3921941900654207824e-06
8.3818239678849954416e-06
8.3715346566356132617e-06
8.361367040185141051e-06
8.3510686018137152197e-06
8.3406803021616498286e-06
8.3300879711573378193e-06
8.3194747236630603855e-06
8.3087185351807608171e-06
8.2980792029359230782e-06
8.287376219729832255e-06
8.2769421088553569212e-06
8.2664917926752888084e-06
8.256334389968829682e-06
8.2461035835676455843e-06
8.2361028769256643546e-06
8.225951641412936093e-06
8.215940937319623786e-06
8.2057164872826288902e-06
8.1955964787596852905e-06
8.1853407365380147567e-06
8.1751931121366472631e-06
8.1649580944796294345e-06
8.1547172710221131788e-06
8.1444208583015644448e-06
8.1341395602238649939e-06
8.1239047402499764579e-06
8.1138300139778957892e-06
8.1037652388619370493e-06
8.0939511974141252346e-06
8.0839932898206289463e-06
8.0742157506599888912e-06
8.0641215687858956973e-06
8.0540655038231377325e-06
8.0438236441750501286e-06
8.033653123670664748e-06
8.0235885320298028992e-06
8.013624968826472668e-06
8.0037894471164253905e-06
7.9939975552015893475e-06
7.9841519898281838679e-06
7.9743033785738785943e-06
7.9644009136866131233e-06
7.9545408998249948995e-06
7.9448690850863274077e-06
7.9352094919053525176e-06
7.9258319326450179127e-06
7.9163624020938791102e-06
7.9070820929270833969e-06
7.8976141754397971421e-06
7.888222839735633369e-06
7.8785050949213440892e-06
7.8689373615722932125e-06
7.8590363995824317751e-06
7.8494897818864878139e-06
7.8397536406743104971e-06
7.8303843090750871046e-06
7.8209033042795573685e-06
7.8117144371815223995e-06
7.8022066554202059758e-06
7.793085603537299629e-06
7.7834044813904452802e-06
7.7741911258455700468e-06
7.7643698776132235174e-06
7.7549774898810000794e-06
7.7449496803755167726e-06
7.7354132982953233762e-06
7.7253004520059393047e-06
7.715843785298505213e-06
7.7059110203607343332e-06
7.6966978757398362229e-06
7.6870437761780791778e-06
7.6780589403792902814e-06
7.6685631355310061624e-06
7.6596946316490883532e-06
7.6502599086636317708e-06
7.6414409001537516621e-06
7.6320012279281992967e-06
7.6231768650712172165e-06
7.6136634067498647937e-06
7.6047623598422276817e-06
7.59518800257044538e-06
7.58640834734156075e-06
7.5769113975793671298e-06
7.5683739069449696845e-06
7.5590382592829529908e-06
7.5505901807786660867e-06
7.5412646255544872625e-06
7.5328344882486844954e-06
7.5234627432841229104e-06
7.515032798319019514e-06
7.5057278839468231831e-06
7.4973146532019554081e-06
7.4881321505865824743e-06
7.4798149534256716178e-06
7.4707321259597906751e-06
7.4625517371744329605e-06
7.4535408866253315583e-06
7.4454574419305565391e-06
7.4364658626232382817e-06
7.4283125197404032336e-06
7.4191387843144354815e-06
7.4107637008276480516e-06
7.401433968777690129e-06
7.3931595351871536929e-06
7.3840520294371965888e-06
7.3762099956190003896e-06
7.3674634384240102024e-06
7.3598800877074147225e-06
7.3512693421895119664e-06
7.3437364395367167428e-06
7.3351210566036571071e-06
7.3275782389865290969e-06
7.3189172624771688851e-06
7.3112906080965884504e-06
7.3025979948325074967e-06
7.2949107233438558454e-06
7.2861395508187319913e-06
7.2784074117938582792e-06
7.2695798080550879012e-06
7.2617784604240008493e-06
7.2530185817281004294e-06
7.245348457812669481e-06
7.2367164003496008677e-06
7.2291723509649154049e-06
7.2206585569327621799e-06
7.2132142638507154177e-06
7.204802364334462534e-06
7.1974588042474837302e-06
7.1891786328904240286e-06
7.1818540162654117003e-06
7.1735346741496345191e-06
7.1663133118836078357e-06
7.1580160311325065895e-06
7.150964600131904346e-06
7.1427388659060246423e-06
7.1358651995477188345e-06
7.127704615556261649e-06
7.1208901808545794132e-06
7.1128829020606383824e-06
4.8058996682295680321e-07
5.6369900552650391649e-07
7.3302773927493413355e-07
8.4879362142974330252e-07
9.2758882141478210271e-07
1.0104135195810649324e-06
1.0927880293587263185e-06
1.1806982211417001251e-06
1.2773319534704844579e-06
1.362397004156113686e-06
1.4480049498519190587e-06
1.5646084688476674085e-06
1.694177234895322738e-06
1.7966129033328974885e-06
1.8605513038178389866e-06
1.8950824158599935293e-06
1.9315179472524700725e-06
2.0059504706148926064e-06
2.1154016256613095072e-06
2.2159375939273542552e-06
2.2821236030753345779e-06
2.3316930015289635756e-06
2.4111296297045978944e-06
2.5498522492187587901e-06
2.7258907019035288414e-06
2.8863744329198011383e-06
2.9967387034030533613e-06
3.0575624542238959264e-06
3.0868391359020430893e-06
3.104038976033836622e-06
3.1282790504781223578e-06
3.1792374192351158982e-06
3.2651682067422725065e-06
3.3736953176562030356e-06
3.480386745245695297e-06
3.563381059733376008e-06
3.6132939693990332269e-06
3.636306608955119922e-06
3.6533337278504082457e-06
3.6893138187847365582e-06
3.788000245427893861e-06
4.0015630049843640842e-06
4.1986169097220635618e-06
4.3358257036052277167e-06
4.4100377530556883569e-06
4.4400172432097768425e-06
4.4492222856442913264e-06
4.4529808082651037572e-06
4.4600244978679791168e-06
4.4778118038547547858e-06
4.5245024867406426056e-06
4.6513866001971551148e-06
4.8225224861292170255e-06
4.9648188417740300778e-06
5.0501736640600738206e-06
5.0841058098426262116e-06
5.1095857945058668087e-06
5.1742075607213695195e-06
5.3873629119108087108e-06
5.6886032941120619644e-06
5.87566040911255986e-06
5.954792755580271159e-06
5.9697111465718456864e-06
5.9648676078686663511e-06
5.9559737296363793633e-06
5.9508643222761590245e-06
5.9489870412307775424e-06
5.9578738196939005694e-06
6.0070382899755843013e-06
6.1492341858301568223e-06
6.26454450218114962e-06
6.3115133753005929035e-06
6.3147610439889087546e-06
6.30388799032032389e-06
6.2903444682671564076e-06
6.2881814533587181886e-06
6.3106510761667617004e-06
6.4178434690910067206e-06
6.6238925178478538032e-06
6.8034591191713003397e-06
6.9367001144420345195e-06
7.0127725200805937668e-06
7.0422393439811421779e-06
7.0583573052040659798e-06
7.0961162893287375389e-06
7.221114159199276782e-06
7.5090672330826592593e-06
7.7327077663962971737e-06
7.8408008568476141118e-06
7.8626101084861983297e-06
7.852242829037770264e-06
7.8252750720578680805e-06
7.8175791090479622257e-06
7.844497020091326049e-06
8.0135623207707893187e-06
8.330355044719644147e-06
8.5196230780155834944e-06
8.5918280754625612382e-06
8.6002155082002226837e-06
8.5939397619316004241e-06
8.5949430074874703364e-06
8.6386017154953645051e-06
8.7001752157177161384e-06
8.7089301573561339224e-06
8.6897712737161982092e-06
8.607948316221584377e-06
8.5197232302717007703e-06
8.4928943106963198864e-06
8.4941884443977733779e-06
8.5445585639860217739e-06
8.6410805788676300438e-06
8.6915789650452736619e-06
8.708143544246473128e-06
8.7076793715114633732e-06
8.7017514589340428689e-06
8.6936647030274674268e-06
8.6772919736880790793e-06
8.6405961367400140136e-06
8.6060557503884199405e-06
8.5847663649695324557e-06
8.5738670601681814894e-06
8.567914578099954017e-06
8.567402001436356937e-06
8.5743565466514337056e-06
8.5795546572066982066e-06
8.5912481473940815102e-06
8.6172740463078267441e-06
8.6589628257573640857e-06
8.710345821847738891e-06
8.7609492441082192194e-06
8.801114874348375187e-06
8.8259080829828334528e-06
8.836433092791618339e-06
8.8391935655582280204e-06
8.8429530355273024356e-06
8.8574117945277713046e-06
8.891963453739365784e-06
8.9383582643133031447e-06
8.9895268431991409784e-06
9.0381123104928138206e-06
9.0799595694338711046e-06
9.1147335559313923635e-06
9.1455422953829848304e-06
9.1772589476040806528e-06
9.2141578481565479926e-06
9.2574295650135678495e-06
9.3047243580377891978e-06
9.3511349565207299052e-06
9.3910078789851454282e-06
9.4198816703977472013e-06
9.436689547888908657e-06
9.4436080345616538011e-06
9.4458862680664719782e-06
9.4500042870105905945e-06
9.4634352836788105935e-06
9.4904242393883012454e-06
9.5325324971777687498e-06
9.5872621300553715425e-06
9.6498222446483098412e-06
9.7127075281501031089e-06
9.7686872819385109004e-06
9.811812441284845684e-06
9.8393814746859837201e-06
9.8521276007056227423e-06
9.8542494692466392774e-06
9.8527488420734179114e-06
9.8544498093823741674e-06
9.8665833738575016833e-06
9.8903042186593141829e-06
9.9224476072946815673e-06
9.9593839447153329641e-06
9.9977724202406561692e-06
1.0034573120744539774e-05
1.0067484683054186588e-05
1.009481686648169862e-05
1.0116324419977538475e-05
1.0133062188944873798e-05
1.0146751700055371931e-05
1.0160034965391578904e-05
1.0175115518247726605e-05
1.0194481045682155583e-05
1.0218410897188831917e-05
1.024798193993654971e-05
1.0281910185176880565e-05
1.031935690887137138e-05
1.0358408727147801111e-05
1.0397399073624397214e-05
1.0434491980902921797e-05
1.0468320724091863692e-05
1.0186519751930713846e-05
1.0175102156451371982e-05
1.0163729796343383633e-05
1.015242145036518563e-05
1.0141238743440952677e-05
1.0130152349757014368e-05
1.0119104167039479994e-05
1.0107902124560263067e-05
1.0096466763118647767e-05
1.008469690476199759e-05
1.007270705405158314e-05
1.0060549924789288073e-05
1.00484338444133442e-05
1.003634810642811307e-05
1.0024327770766419592e-05
1.0012178765842005368e-05
9.9999002962944972406e-06
9.9873959573688683716e-06
9.9748032742444820857e-06
9.9621091681850124235e-06
9.9495084990172538573e-06
9.9369701262079662311e-06
9.9246257547756346951e-06
9.9123435982222884652e-06
9.9002407140829912083e-06
9.888207197027905709e-06
9.8763279284991271645e-06
9.86439048393468587e-06
9.8524370472941848393e-06
9.8403368865149314613e-06
9.8282346352228464742e-06
9.8159713992672548058e-06
9.8036708730020154646e-06
9.7912081261257102741e-06
9.7788670882872370517e-06
9.7665824787128857767e-06
9.7545508772762430254e-06
9.7425296716146444353e-06
9.7306273953409460226e-06
9.7186382009440835272e-06
9.7067534307702924143e-06
9.6947987196140557174e-06
9.6829679646477308821e-06
9.6710692069241653899e-06
9.6592951893580800176e-06
9.6474552959172016835e-06
9.635718674104460022e-06
9.6239053864042432325e-06
9.6121700168671590092e-06
9.6002837788888827628e-06
9.5883277972575811247e-06
9.5760469200109329062e-06
9.5636584022331933545e-06
9.5511193807542467529e-06
9.5387431532777607225e-06
9.526465916048937964e-06
9.5144549364526376044e-06
9.5025161335483878115e-06
9.4907049950738028778e-06
9.478802620027778833e-06
9.4669321256414744705e-06
9.4550000834038463413e-06
9.443183718766763108e-06
9.4313539746899118697e-06
9.419601876663150582e-06
9.4077811867995483794e-06
9.3959639593643865175e-06
9.3839976800495348197e-06
9.3719437795820061788e-06
9.3597641216614847916e-06
9.3476546652917482869e-06
9.3356146997627769795e-06
9.3237602041398168142e-06
9.3119504447801361609e-06
9.3002562296404975805e-06
9.2886113597369539328e-06
9.2771518166261830854e-06
9.2658149669315521715e-06
9.2545989423381593291e-06
9.2433421945486702914e-06
9.2320134136087932114e-06
9.2205412724859282564e-06
9.208998558846103228e-06
9.1973839947283911436e-06
9.1858198575668502568e-06
9.1742900086761776667e-06
9.1628844495590533871e-06
9.1515304602961289901e-06
9.1402729008864902027e-06
9.1289953509053177477e-06
9.1176953285601504694e-06
9.1062540499343358144e-06
9.0947649939240097193e-06
9.0831991523438462632e-06
9.0717113476833993941e-06
9.0601764722590297463e-06
9.0486548955639992575e-06
9.0370569973248828926e-06
9.0255180633741948144e-06
9.0140416110580427961e-06
9.0026674185452465205e-06
8.9913152640654596523e-06
8.9799807440444345266e-06
8.968662830802244648e-06
8.9574198591651021066e-06
8.9462600715771588327e-06
8.935153630870157953e-06
8.9240770620222564709e-06
8.9130252911281353229e-06
8.9020058590686086469e-06
8.8909778566390789621e-06
8.8799033490041179219e-06
8.8686984783335201591e-06
8.8574338588521412936e-06
8.846138906994931877e-06
8.8349935156167496651e-06
8.8239916042779946903e-06
8.8132140492420203877e-06
8.8024287172095073322e-06
8.7916459814763870653e-06
8.7806422277182875604e-06
8.7695713706053227555e-06
8.7583740876145414533e-06
8.7472013772213518326e-06
8.7360186076187898945e-06
8.7249116498995815005e-06
8.7138879868793107827e-06
8.7029916415533369809e-06
8.6922319310695433876e-06
8.6815715352615483152e-06
8.6709760934347371861e-06
8.6603818887591580068e-06
8.6497007132279703435e-06
8.6389720035753953892e-06
8.6281364086461730204e-06
8.6173682763018278859e-06
8.6065375093173376137e-06
8.5958289002906535832e-06
8.5849685479192021744e-06
8.5742257829615150963e-06
8.5633577613258260691e-06
8.5526729743211862996e-06
8.5420209528679287206e-06
8.5315387723251717212e-06
8.5211350933440687695e-06
8.5107229857647008622e-06
8.5002557759796536793e-06
8.4896179676262636086e-06
8.4788284254891159127e-06
8.4680583179948890749e-06
8.4572200243103171942e-06
8.4466953964955445355e-06
8.4361225131990961887e-06
8.4258835907533274467e-06
8.4155359658063584881e-06
8.4053527597080579997e-06
8.3949751757062936945e-06
8.3846844355931974261e-06
8.3742108008977960679e-06
8.3640670281301571253e-06
8.3537786325579261546e-06
8.3439866276514106357e-06
8.3339320203319255871e-06
8.3242666007262926768e-06
8.3141848250621174388e-06
8.3043696173559451224e-06
8.29402065217267071e-06
8.2839620720817533605e-06
8.2733890863386554885e-06
8.2632868579708185669e-06
8.2528244891964542542e-06
8.2428999566304903961e-06
8.2326859126467491517e-06
8.2229709724316336217e-06
8.2127686823295094326e-06
8.2031505465855577343e-06
8.1928109374551555996e-06
8.1831153300581589466e-06
8.1726487367753308441e-06
8.1628030865021410182e-06
8.1521980456028164712e-06
8.1422994301636499444e-06
8.1316314091408066337e-06
8.121787711865904733e-06
8.1112193882155114114e-06
8.1014857470830993621e-06
8.091106498824993134e-06
8.0815619926238813021e-06
8.0713344812394733155e-06
8.0619332951343851878e-06
8.0518206953775589395e-06
8.0425221304981494918e-06
8.0324596744286382748e-06
8.0231663126236401696e-06
8.0130419396365028728e-06
8.0037233012740056839e-06
7.9935770539035195479e-06
7.9844384088809504119e-06
7.9744127125290540194e-06
7.9655011894873770231e-06
7.9556016587755276837e-06
7.9467435273887022576e-06
7.9368288997860371345e-06
7.9279197807075241959e-06
7.9178747215854464354e-06
7.9089115700971682671e-06
7.8988456759412207484e-06
7.889892644262419747e-06
7.8799704940598782981e-06
7.8711582298532511309e-06
7.861403208246635257e-06
7.8527607126253824347e-06
7.8431113325893362482e-06
7.8345794637806239342e-06
7.824974738594424949e-06
7.8164145744358305983e-06
7.8066410542765240582e-06
7.7979158028623352924e-06
7.7880095725624699093e-06
7.7793402796776935874e-06
7.7696467402560163903e-06
7.7613880903926562292e-06
7.7520071973257597851e-06
7.743982337910078963e-06
7.7347285316887022478e-06
7.7267710243253167663e-06
7.7175449923916349565e-06
7.7095903261490190446e-06
7.7003861455526915721e-06
7.6923882090103720612e-06
7.6831475697571791062e-06
7.6751285740668496408e-06
7.6658235346716111251e-06
7.6577408884784902403e-06
7.6483421474985320419e-06
7.6401520238683572718e-06
7.6307364858924201e-06
7.6225862368183635527e-06
7.613254836575150283e-06
7.6052330129441930744e-06
7.5960254779257263075e-06
7.5881289067777548264e-06
7.5790957744194872582e-06
7.5713208054867710075e-06
7.5623803260976059387e-06
7.5546209472121270346e-06
7.545645928364734894e-06
7.5379618705757736526e-06
7.5290165103017260548e-06
7.5215294061351585614e-06
7.5126833765284476834e-06
7.5053710133458638294e-06
7.4966170907522968541e-06
7.4894069323167852155e-06
7.4808297520045273377e-06
5.2682581038835106139e-07
6.1480303036143849356e-07
7.6382656619790481619e-07
8.918520186459287936e-07
9.6612762610376788926e-07
1.0084859375482228893e-06
1.0678179912272829813e-06
1.201386561738015683e-06
1.4056325044108157424e-06
1.5435726095294514815e-06
1.6214582313007069175e-06
1.7060627670960060995e-06
1.8125782239652803429e-06
1.8979912285597666184e-06
1.9438025175587042557e-06
1.9692184337508989236e-06
2.0084208021952101561e-06
2.0978674706130386251e-06
2.231687963905826156e-06
2.3441528342473053974e-06
2.413851676240821549e-06
2.4652818856583899936e-06
2.5440469058869785077e-06
2.6719819315161181305e-06
2.8325141192331183528e-06
2.9850195899714129812e-06
3.1015394867166467895e-06
3.18277350372029772e-06
3.2374449248490933865e-06
3.2746928826334256131e-06
3.3086993747142700953e-06
3.3591925175711918212e-06
3.4403308052917644738e-06
3.5464224703472852307e-06
3.6518962261539874122e-06
3.7296555549039484517e-06
3.771148584466788252e-06
3.7900563743490477397e-06
3.8148188855763136884e-06
3.8771696528576330787e-06
4.0670858259561495587e-06
4.3559388343174960392e-06
4.5596467138294611204e-06
4.6599866000992866096e-06
4.6857493435449511796e-06
4.6831067502896914364e-06
4.6757227323808063792e-06
4.6723246091474133216e-06
4.6762689644052689338e-06
4.7044238581239786778e-06
4.80558018281128021e-06
4.9708283332108164264e-06
5.1087138613174578775e-06
5.2029584011703410463e-06
5.2517976053683288338e-06
5.2710488746405500968e-06
5.2948641814677751026e-06
5.3633698293375509984e-06
5.5906671274343817628e-06
5.8797167582110024944e-06
6.0548292134155442184e-06
6.1279491787631018356e-06
6.1428662430003249742e-06
6.1398722520216035794e-06
6.1374764634425628149e-06
6.1415089063204616771e-06
6.1675885741708290645e-06
6.2622002980457278884e-06
6.401928001921671685e-06
6.5054162637826650327e-06
6.5598264028956493779e-06
6.5724069274738914202e-06
6.5664746448716287399e-06
6.5512604475189047194e-06
6.5446579297998273307e-06
6.5552527795276706768e-06
6.632824585182175585e-06
6.855729905255091403e-06
7.0758504518870139909e-06
7.2399799162571224853e-06
7.3452958125448288012e-06
7.3953352187270742456e-06
7.4116474655077869613e-06
7.4279292196635061807e-06
7.4776158047087195986e-06
7.6685725922579590572e-06
8.0163725714159411913e-06
8.2256724997764710293e-06
8.2969072129820665523e-06
8.2965602040963139566e-06
8.2627837856388507268e-06
8.2080912842243133431e-06
8.196172632205416729e-06
8.224733476564413727e-06
8.4130210196322413542e-06
8.7703009099894161478e-06
8.9802183741060671185e-06
9.0574884983900558015e-06
9.0650731087651495319e-06
9.0584612078230214254e-06
9.0629570793673092045e-06
9.1287077469115797016e-06
9.2201716050765604037e-06
9.2381289273481340525e-06
9.2192265128624991348e-06
9.1296270258092788899e-06
9.0090936138789485968e-06
8.962049022066687827e-06
8.9546440722560500001e-06
8.9693235161908382218e-06
9.0339678369411408824e-06
9.0932998458712352245e-06
9.1343268548487771454e-06
9.1650999120097445094e-06
9.1855072962545450204e-06
9.1932120040481295247e-06
9.1898419111629807573e-06
9.1809265377720786515e-06
9.1569804495473063922e-06
9.106218363416768971e-06
9.0700630302079191951e-06
9.0525867214474179995e-06
9.0451974017447855019e-06
9.0435810655609403022e-06
9.0619649635884167159e-06
9.0910332351417825559e-06
9.1033157839342670906e-06
9.1067050916476679974e-06
9.1135822236013797033e-06
9.1377033509834182362e-06
9.1876538559463443183e-06
9.2399676670911358429e-06
9.2863075944761864095e-06
9.3244209583864596689e-06
9.3580825602723656406e-06
9.3927641325542348343e-06
9.4310643555351678915e-06
9.4722348176382800965e-06
9.5122417813217361522e-06
9.5473655535501514351e-06
9.5765414876391591608e-06
9.6021159284271859359e-06
9.6277480907811006596e-06
9.6567563405109396312e-06
9.6917417911000815754e-06
9.7329289852356047814e-06
9.7786666020975653268e-06
9.8256286471451668828e-06
9.8700209205237467521e-06
9.9089817866878120487e-06
9.9417777854375421033e-06
9.9697955202547634558e-06
9.9956455887293955802e-06
1.0022919726376836467e-05
1.0053680956450607062e-05
1.008846698203364831e-05
1.01266401723196086e-05
1.0166531406580286799e-05
1.0205336296296701128e-05
1.0240831981010027312e-05
1.0271011316907857082e-05
1.0294907774733143366e-05
1.0313131378657545422e-05
1.0328122759500190243e-05
1.0343495162026243803e-05
1.0363273154267124731e-05
1.0390274794496221663e-05
1.0424906529368887286e-05
1.0465756363447185985e-05
1.0509475827641103575e-05
1.0552788867581287748e-05
1.0592151056106497778e-05
1.0625138677741611796e-05
1.0651277521007505636e-05
1.067088987011973623e-05
1.0685021133151406802e-05
1.0695138535267594668e-05
1.0703706173226483009e-05
1.071354889460350305e-05
1.0726079524261237182e-05
1.0743709844773503573e-05
1.0766466680755820633e-05
1.0794944870836695021e-05
1.0827401648109966824e-05
1.0863269497305704805e-05
1.0900676578071219418e-05
1.093761645792140073e-05
1.0973068317484139652e-05
1.1005653978598019724e-05
1.0727075598783939118e-05
1.0714865634490129855e-05
1.0702651027836878239e-05
1.0690527080196321428e-05
1.0678525682543719031e-05
1.0666822190036144073e-05
1.06552043416755914e-05
1.064350508874508286e-05
1.0631365870740353005e-05
1.0618896644085702995e-05
1.0606090366368045951e-05
1.0593246658825382063e-05
1.0580332606962268455e-05
1.0567581718735324773e-05
1.055483417796194306e-05
1.0542160272148763057e-05
1.0529236462715361935e-05
1.0516144497035001036e-05
1.0502720302258953641e-05
1.0489329671182136909e-05
1.0475944835539185651e-05
1.0462895642667545276e-05
1.044991833910505689e-05
1.0437194684425795397e-05
1.0424443345451129419e-05
1.0411907108949445321e-05
1.0399254060229314172e-05
1.0386636120455870966e-05
1.0373752962094411924e-05
1.0360953929304548627e-05
1.0347994941110486166e-05
1.0335140177921504825e-05
1.0321989045155765535e-05
1.0308917599831338789e-05
1.0295691292493387925e-05
1.0282793742985686734e-05
1.0269848817786074387e-05
1.0257221716327736766e-05
1.0244479273300224485e-05
1.0232017710844799015e-05
1.0219350748159108786e-05
1.020684656884286109e-05
1.0194044002254740386e-05
1.0181457026937722668e-05
1.0168718685851436311e-05
1.0156348324609799374e-05
1.0143865377929006744e-05
1.0131697644007489726e-05
1.0119285171800430394e-05
1.0107011999809813445e-05
1.009426264758428141e-05
1.0081482991337480565e-05
1.006819957053482882e-05
1.0055081606805676631e-05
1.0041758913761016404e-05
1.0028896854945058847e-05
1.0015969172988165459e-05
1.0003500261012811389e-05