/*--------------------------------*- C++ -*----------------------------------*\
  =========                 |
  \\      /  F ield         | OpenFOAM: The Open Source CFD Toolbox
   \\    /   O peration     | Website:  https://openfoam.org
    \\  /    A nd           | Version:  12
     \\/     M anipulation  |
\*---------------------------------------------------------------------------*/
FoamFile
{
    format      ascii;
    class       volScalarField;
    location    "0.0055";
    object      p;
}
// * * * * * * * * * * * * * * * * * * * * * * * * * * * * * * * * * * * * * //

dimensions      [1 -1 -2 0 0 0 0];

internalField   nonuniform List<scalar> 
75962
(
98676.351615410778322
98953.437868092441931
98995.12403050379362
99030.569930713943904
99072.795479141030228
99070.248727182755829
99092.525689187124954
99200.460926442639902
99287.40569607319776
99214.063534582877764
99049.687118512243615
98917.097312865895219
98911.781844605240622
99009.914513358700788
99092.895709247692139
99120.33412373221654
99132.342776893943665
99122.290177745817346
99096.450403997165267
99099.758888315365766
99110.69882908333966
99066.554417003324488
98972.595924269407988
98893.940037761858548
98902.57115420763148
98961.676291007970576
98988.394642963685328
98969.281283782882383
98956.001879492396256
98960.38709582881711
98984.754840012261411
99046.201701137542841
99123.805067630150006
99162.408920624278835
99140.688521488555125
99090.849395601035212
99048.294362294254825
99021.312157724780263
99002.572053505675285
98991.292991322596208
98976.232913629530231
98949.838555522481329
98934.632100171977072
98953.345972844166681
98981.871727683654171
98992.983432236651424
98998.339496509419405
99010.563847997720586
99013.307180098170647
99002.582599267261685
99005.888988050559419
99037.390398086092318
99069.33904308223282
99078.562443996706861
99070.138132824329659
99051.88605577913404
99022.626268741194508
98994.956748715485446
98996.248849766256171
99029.981501934031257
99064.81319903266558
99065.498471457860433
99034.651767108065542
99003.053240766690578
98995.476726367603987
99005.362625913941883
99006.401378251874121
98980.601607236458221
98933.492247217218392
98891.877622482847073
98874.323673107937793
98872.306141542532714
98865.485523380513769
98849.950065691635245
98834.218181531803566
98830.207124824577477
98835.417451609377167
98839.894647958848509
98842.139868084617774
98847.932855945022311
98857.98369326244574
98862.699942629595171
98849.512337141335593
98823.032289199691149
98802.417370290902909
98809.254764564495417
98844.605687920251512
98886.624230317916954
98910.546430065311142
98908.647901377189555
98890.376988920965232
98870.772486913207103
98858.021866351831704
98852.19439106383652
98850.751945210897247
98850.345424425817328
98851.535044010801357
98855.515042240018374
98862.765975538495695
98869.577518331236206
98868.922175205443637
98857.543623885809211
98840.773868262869655
98831.574239793844754
98839.76234094913525
98858.832092244454543
98871.181083927294821
98866.727847864851356
98854.048072427263833
98852.690987074107397
98872.749227125925245
98902.076898668325157
98914.744014187876019
98895.664455521473428
98856.77851931672194
98825.431524276951677
98820.940672919648932
98838.404240603456856
98854.318111134503852
98849.503220589875127
98823.961477485412615
98794.192291252926225
98776.848264293090324
98777.301103396734106
98790.018974390244693
98805.34171147365123
98814.805385946412571
98813.496544221896329
98801.204397731853533
98783.286109850057983
98769.035114168975269
98766.395548865519231
98777.576794112115749
98799.404138535639504
98827.22830462269485
98856.78075424634153
98884.694694464065833
98908.927605573218898
98928.041702645889018
98938.966656189790228
98937.117405243669054
98920.092511789654964
98891.73362363508204
98861.964312332755071
98841.552845093843644
98835.770953260027454
98842.332939806205104
98854.319609182595741
98864.731714172099601
98870.905365944490768
98875.465392110723769
98883.218294385835179
98895.736700129607925
98907.602802851848537
98908.210579591235728
98888.996493514816393
98850.569694455538411
98803.378152926292387
98761.639890732403728
98735.531608894772944
98726.344930220337119
98727.313093786535319
98728.584749231304158
98723.378197870857548
98712.278257971309358
98701.967805214138934
98700.103588044526987
98709.549410055959015
98725.544216715934454
98737.758351963435416
98737.119619022589177
98721.970156845738529
98698.893749827635475
98678.115926276339451
98666.69972168719687
98664.34199618754792
98664.687763607144007
98660.865293819399085
98650.690374153942685
98637.754424188125995
98628.272754711913876
98626.683295997412642
98632.967762666521594
98643.345951796902227
98653.29292879474815
98660.019507948527462
98662.820476036678883
98662.045023718848825
98630.934216618028586
98638.408386145325494
98644.043737409592723
98650.745029156110832
98661.367553642034181
98675.715626876146416
98689.9193391133158
98698.633058009378146
98698.444189849222312
98690.23187265029992
98678.902974045267911
98670.106660862569697
98666.883190554333851
98668.293970629267278
98670.445506270159967
98669.264754554082174
98663.06660474864475
98652.946817307747551
98641.38987541043025
98630.464267931936774
98621.161928002518835
98613.668662879048497
98608.185798506980063
98605.548056870800792
98606.92963160740328
98612.911384890918271
98622.768625819895533
98634.115674789456534
98644.093378952878993
98650.386135993161588
98651.937698569643544
98649.46149269687885
98644.971561531769112
98640.774628747967654
98638.57971993398678
98638.745949839474633
98640.312292541973875
98641.555967098960537
98641.063614415528718
98638.625538176260306
98635.329875621246174
98632.854692495486233
98632.581906570019783
98634.95692533881811
98639.485831014579162
98644.965097170468653
98650.075272189933457
98653.454947301201173
98653.764919317414751
98650.174370062421076
98642.817343908405746
98632.787231503563817
98622.526546892826445
98615.428862022963585
98613.996896001553978
98618.731964819104178
98627.893276682385476
98638.260338887936086
98647.110645501714316
98653.598568608038477
98658.234511757720611
98662.351236726361094
98666.977437437948538
98671.624236511182971
98674.141218182223383
98672.26802377444983
98665.289182602849905
98654.664516705815913
98643.397919090028154
98634.342580322729191
98628.854877120858873
98626.631808617690695
98626.482536652707495
98627.870509666725411
98631.607471731418627
98639.283976518374402
98652.156823042285396
98669.875374483352061
98689.820908507230342
98707.950125331553863
98720.726101003107033
98726.689866643195273
98727.071263556543272
98725.206547516572755
98725.005826937340316
98729.397510158640216
98739.287699214575696
98753.461670876931748
98768.9000783146912
98782.199016529062646
98790.915546986318077
98794.191536906961119
98793.191197184409248
98790.189090685511474
98787.172819623534451
98785.216049625611049
98784.217666354350513
98783.064464328199392
98780.480416267280816
98775.966528151810053
98770.189401205716422
98764.817718869948294
98761.556980257300893
98761.334152433744748
98763.949246352305636
98768.353034009880503
98773.188422562583582
98777.230471393559128
98779.702736202685628
98780.3225185162446
98779.17369704869634
98776.76338506556931
98773.77918542950647
98771.136338536118274
98769.68322524605901
98770.035429242212558
98772.339867189730285
98776.140588549111271
98780.260177892516367
98783.11405922906124
98783.173153188225115
98779.32753519929247
98771.41357811378839
98760.40335034171585
98748.280670383741381
98737.574468865786912
98730.70191501766385
98729.335305099884863
98733.889554356297594
98743.359196551129571
98755.580485885700909
98767.91687247507798
98777.917653732685721
98783.926830172349582
98785.296466680010781
98782.371329792935285
98776.235905648121843
98768.358760038594482
98760.277990525311907
98753.407543880777666
98748.834098651190288
98747.183945996221155
98748.497724476095755
98752.171146721346304
98757.113226921777823
98761.997672752477229
98765.602050451110699
98767.090144159737974
98766.260507773229619
98763.556761313870084
98759.866712140094023
98756.171814073837595
98753.274860626566806
98751.611360710681765
98751.225805917667458
98751.932253364153439
98753.57243465881038
98756.142064186948119
98759.74047043734754
98764.364458971846034
98769.694295323104598
98774.950102541188244
98778.986630489322124
98780.634860418795142
98779.158275523077464
98774.598510766081745
98767.839795298234094
98760.425194061463117
98754.161023979788297
98750.655083293197094
98750.865902684337925
98754.764235960974474
98761.261568245681701
98768.401758339197841
98773.854889734880999
98775.465065370459342
98771.81491343214293
98762.539471380747273
98748.41684681501647
98731.241682313906495
98713.230324984440813
98696.356796726031462
98681.804469951588544
98669.725095685833367
98659.464503112874809
98650.054028326325351
98640.664157351056929
98631.102937339892378
98621.918816749108373
98614.126576762355398
98608.759112666986766
98606.149247626744909
98605.766816922157886
98606.370075359140174
98606.248720949006383
98603.868411632793141
98598.473646188023849
98590.464638614212163
98581.062181719316868
98571.888548856702982
98564.250170217215782
98558.708596369906445
98554.993896013635094
98552.463345168405795
98550.191045608342392
98547.717154406695045
98544.855507781365304
98541.942095617909217
98539.897406591437175
98539.337536679435289
98540.148084581262083
98541.438484778613201
98541.761627813262749
98539.669340798587655
98534.046375109217479
98524.590344243188156
98512.072136069094995
98498.166423350194236
98485.085285496621509
98475.099999643251067
98469.865786984140868
98470.108565332309809
98475.748065239356947
98485.932546604890376
98499.076379733291105
98513.283870982471853
98526.759745393821504
98537.938199989293935
98545.627684774866793
98549.10102082650701
98548.024453327860101
98542.370824673693278
98532.425614418461919
98518.938807854705374
98503.218152551038656
98486.919913109086337
98471.710108051265706
98458.993420272163348
98449.678945065286825
98444.107278672818211
98442.060109849146102
98442.84573765375535
98445.538487635625643
98449.29845247582125
98453.629109639965463
98458.41578950244002
98463.844328494233196
98470.26894333200471
98478.063571133025107
98487.412033978136606
98498.139724464563187
98509.797982379546738
98521.773174241461675
98533.415117638578522
98206.571010391417076
98693.152297744614771
99098.107223146231263
99123.464056363183772
99122.710632564936532
99145.768567114108009
99114.258408474459429
99109.880645324214129
99167.929109968506964
99152.217520239937585
99010.276502889755648
98859.859219828998903
98866.999151245487155
99020.047408988844836
99115.415994537237566
99094.884725185154821
99064.545550209266366
99057.432537991771824
99074.506862055408419
99125.641174571821466
99140.903205073263962
99069.741757033145404
98958.34136400357238
98897.466611874187947
98939.44090382833383
99021.823402352703852
99045.226128613940091
99012.532469600468175
98977.544757623618352
98968.058630364117562
99005.197579365281854
99082.20689965056954
99143.825111942962394
99143.441006330845994
99094.557660619655508
99042.315557117181015
99004.521433778470964
98972.426609008092782
98949.326705407176632
98949.206413921012427
98955.130749339528847
98941.511374254259863
98925.189099770897883
98942.756717454831232
98979.591641576378606
99000.099920845852466
99004.307853301885189
99013.036341755083413
99021.830707574976259
99024.650415216034162
99038.616674378630705
99069.180250585370231
99092.17686529608909
99091.641730724062654
99076.568140450210194
99061.556907913080067
99038.79846487971372
99014.896783099480672
99015.249007611229899
99050.120124389257398
99091.028413152773282
99099.054148157680174
99066.497906851989683
99022.803398876902065
98999.167489669460338
99001.451273797210888
99005.563960746963858
98987.604933546230313
98948.14724226052931
98905.401479650070542
98876.992274668315076
98861.536460922157858
98846.949527836870402
98831.509558328689309
98825.018404756308882
98830.136642009674688
98841.632797479294823
98853.35543752234662
98863.074639614293119
98871.145785192551557
98875.117821612453554
98872.741712338567595
98859.271654925571056
98836.377759905604762
98819.028548463247716
98821.9967288110347
98847.234338917507557
98878.800879794449429
98898.65874897793401
98898.816593402880244
98883.969307487903279
98863.915172014487325
98848.647235887416173
98842.679379549954319
98845.265602734114509
98849.614717826159904
98849.608565054280916
98848.293007193336962
98853.537408550604596
98865.87138643709477
98875.345196310678148
98872.572751442159642
98858.239684245825629
98844.034787821612554
98841.766528365318663
98850.813413919502636
98859.454175456994562
98859.056080300390022
98855.667742785517476
98865.262094383797375
98893.06399165847688
98924.73365959712828
98937.199751236126758
98924.309089851929457
98897.347175111906836
98876.85994237822888
98872.923070948148961
98878.329205783593352
98878.035164669592632
98863.178633887917385
98836.34294436192431
98807.837153473505168
98787.522624940625974
98780.166497810481815
98785.318188535951776
98798.448610414066934
98811.524483853456331
98816.455374552737339
98810.493362682813313
98798.387196709198179
98788.444612627659808
98786.171327486124937
98792.247425147157628
98805.772820402358775
98826.28304486835259
98852.77522745168244
98881.406868200429017
98906.157820546271978
98922.22511103368015
98926.616551484417869
98917.684709535256843
98896.344867916282965
98867.748105309568928
98840.950227631183225
98824.68855155610072
98822.341784932272276
98829.492666122765513
98837.781570109247696
98841.383480858276016
98840.589159819835913
98840.669542745017679
98847.185505077635753
98860.263202071757405
98872.661447547376156
98874.007417596425512
98857.760361918612034
98826.221984964999137
98788.705905193244689
98755.496421113828546
98732.628522000144585
98720.125849471267429
98713.122055725631071
98704.779529348001233
98691.258465500432067
98674.696057475710404
98662.18764104458387
98661.268144953312003
98674.177423972505494
98695.235303856010432
98713.586720898907515
98720.068727711070096
98713.099854002372012
98698.585015589706018
98685.037807392887771
98677.647844073406304
98675.037168324823142
98671.312322768688318
98661.413528165401658
98645.195198613058892
98627.555160901640193
98614.733887553360546
98610.497530368360458
98614.701231736762566
98623.948836343653966
98633.795033596019493
98640.776652315165848
98643.275889355660183
98641.178070274036145
98635.092464858957101
98641.309615221733111
98651.28022739001608
98661.06136023500585
98671.397427447736845
98684.663616863370407
98701.948231523958384
98721.103773604583694
98737.096109454112593
98744.615684535194305
98741.314704657415859
98729.676990064064739
98715.976947149421903
98706.621595508142491
98704.545967688056407
98707.879149894492002
98711.665617884500534
98710.714946616193629
98702.440824240096845
98687.497132615681039
98669.114044799352996
98651.111290467350045
98636.441663490477367
98626.745970672534895
98622.728862863048562
98624.462338470344548
98631.437487515373505
98642.499503558297874
98655.640897238408797
98668.40820058400277
98678.351550244333339
98683.506258566238103
98683.013781286004814
98677.515590588489431
98668.681163450688473
98658.913866587012308
98650.695366867323173
98645.716752456966788
98644.22695829308941
98645.106045888649533
98646.619933422334725
98647.32023892844154
98646.781928932687151
98645.69888680135773
98645.425471568392823
98647.326709577086149
98652.210280743631301
98659.842964287803625
98668.778489748001448
98676.562691860541236
98680.451872264995473
98678.165667698092875
98668.849208660700242
98654.132968918594997
98637.771517660672544
98624.159896344615845
98617.079408758756472
98618.147401509762858
98626.228929272387177
98638.366847693687305
98651.156143344385782
98662.059167600556975
98670.274702852097107
98676.228310334670823
98680.427397136387299
98682.619480090084835
98681.922607225453248
98677.881703035061946
98670.776957222435158
98662.061366165973595
98653.719811414921423
98647.18271040955733
98642.580171602006885
98639.187578414159361
98636.583699187729508
98635.551594159565866
98638.121460400594515
98646.41921240753436
98661.159507574746385
98680.564331499786931
98700.602844510693103
98716.668795484889415
98725.737418630291359
98727.617142539806082
98724.87598983765929
98721.769373202492716
98722.424233102050493
98729.156332901664427
98741.5863205830683
98757.096799280203413
98771.836080100096297
98782.269656948119518
98786.630374382933951
98785.113803556727362
98780.037785640233778
98774.713675519175013
98771.455769000938744
98770.883261798066087
98772.197466763405828
98773.722834124549991
98773.791079942428041
98771.707658505110885
98768.287908686848823
98765.209150991533534
98764.584787532294285
98767.480054373067105
98773.557369371861569
98781.248194742976921
98788.55412020329095
98793.849410560025717
98796.282296279066941
98795.890538862513495
98793.291887338709785
98789.332283077776083
98784.931025850906735
98780.914121353896917
98778.114296216255752
98777.318918498625862
98779.012973333461559
98783.096137467538938
98788.715542029749486
98794.367716706110514
98798.205798847571714
98798.645956907013897
98794.919438663768233
98787.491092886935803
98778.145161583335721
98769.432882845823769
98763.913253680642811
98763.336057559077744
98768.148100686172256
98777.307017274069949
98788.608716273767641
98799.526718917608378
98807.927454960663454
98812.566376126371324
98813.245069963930291
98810.588470903720008
98805.671885456657037
98799.800215330062201
98794.172964993078494
98789.780208529889933
98787.378739794701687
98787.40625809969788
98789.830149941233685
98794.094232330971863
98799.128357305700774
98803.621237925137393
98806.560881161509315
98807.179683951457264
98805.351537104492309
98801.492909920270904
98796.515646714848117
98791.483445984937134
98787.365739420027239
98784.858444664962008
98784.30617728253128
98785.773433148642653
98789.098933176355786
98794.088828833890148
98800.443822137473035
98807.723747590935091
98815.256812279767473
98822.155451314654783
98827.306789020833094
98829.626002662524115
98828.410036472472711
98823.685898979019839
98816.286391496003489
98807.717324001248926
98799.769763417425565
98794.044647412651102
98791.604011020128382
98792.605313663196284
98796.178877409009147
98800.555696012786939
98803.52242618172022
98803.020926987723215
98797.701871207522345
98787.305738815994118
98772.679664578347001
98755.542011826109956
98737.92699003101734
98721.581840884682606
98707.509219121435308
98695.574254924489651
98684.752462442731485
98673.843825821750215
98661.940352482823073
98648.83498344392865
98635.295670605089981
98622.79025897977408
98612.734663307186565
98606.05028132534062
98602.694863438111497
98601.716378516895929
98601.610278646810912
98600.780095812326181
98598.107155658697593
98593.2185906272789
98586.572045942186378
98579.144378488359507
98571.650255164771806
98564.616056313549052
98557.945998087903718
98551.561487820261391
98545.134663379358244
98538.691172584469314
98532.709833470726153
98527.458467226635548
98523.486382882998441
98521.195714350935305
98520.185884552876814
98519.337529980635736
98517.20448204119748
98512.498839075109572
98504.732298426126363
98494.123328876739834
98481.848191179538844
98469.622618962690467
98459.401720448673586
98452.917575059807859
98451.226030127785634
98454.467923924967181
98462.084898767992854
98473.088737419137033
98486.139731264003785
98499.702358141323202
98512.359137912120786
98522.923728585534263
98530.421288317025756
98534.172076057817321
98533.826379460981116
98529.258379607170355
98520.57499143142195
98508.271883714172873
98493.377907190588303
98477.441797419436625
98462.213462720363168
98449.204120083944872
98439.381814968088293
98433.068592911076848
98430.058798754573218
98429.777186774706934
98431.436409604604705
98434.244714758344344
98437.656087892260985
98441.58782886811241
98446.40600983054901
98452.69074772746535
98460.960942725461791
98471.486065913079074
98484.119081826604088
98498.238926137026283
98512.911981545592425
98527.108113336886163
99043.2626471384865
99022.918892438974581
99181.15931283091777
99264.442148115456803
99106.612339198225527
98984.396283397625666
99051.833452564664185
99116.451878658714122
99110.285491890390404
99116.269205416218028
99014.656767752647283
98869.934436558061861
98886.146682454098482
99021.868608170319931
99074.87712632912735
99031.147361447379808
99001.843939538463019
99005.895912041130941
99028.787355515160016
99074.580159279081272
99080.472360790052335
99032.124813719376107
98979.717171241383767
98970.947178136295406
99009.076647752008284
99050.394495475906297
99062.843295795086306
99036.001723730310914
98985.389595778164221
98950.473101598545327
98973.959814140049275
99038.755370120838052
99077.933470510077314
99064.744971327294479
99031.274981517097331
99007.132751944969641
98983.580206302736769
98944.76571151567623
98913.559690526264603
98920.158758447068976
98946.914729704993078
98954.946067329394282
98947.168411143487901
98959.047615692863474
98991.888348049338674
99007.145641708964831
99000.846504773726338
99003.898661446539336
99023.793729849305237
99044.485256110274349
99057.309351468225941
99066.164961856309674
99072.747463962019538
99078.264054007522645
99088.340405796057894
99094.623664184837253
99083.237078051359276
99059.341693682930782
99049.628892661581631
99073.971968013502192
99109.896322190383216
99114.577602203513379
99075.427530141008901
99022.829005437059095
98996.18311938860279
99001.991454072500346
99013.763396544745774
99000.208114330293029
98958.390444866774487
98907.466333047574153
98864.476155637676129
98836.544866059775813
98821.94331805325055
98824.422364304860821
98842.825199719169177
98863.592820155405207
98872.48044168872002
98865.886612986403634
98856.307566124058212
98858.974397371115629
98874.629000235305284
98889.082171050395118
98887.64346624785685
98866.831755986378994
98841.127344501350308
98829.466498350244365
98837.671695508892299
98854.605118769715773
98866.061499208415626
98865.396490100334631
98853.409817184059648
98839.86841461766744
98836.35986034029338
98844.874681107117794
98857.297469915065449
98861.609395629100618
98853.769315355180879
98846.178804604031029
98852.486926437442889
98872.059474985609995
98889.655344168422744
98889.177278104441939
98869.579130783153232
98843.148635448000277
98826.603862846735865
98827.333176922227722
98838.319282313226722
98848.68444176678895
98858.333348700034549
98875.35721120017115
98901.019647624736535
98926.677908990561264
98940.968172644541482
98940.754773808905156
98931.874228556218441
98922.951697473152308
98915.988518777579884
98907.063232929198421
98892.647757120270398
98871.925698314240435
98846.948637009292725
98820.951387271430576
98797.719976457767189
98782.479768629971659
98779.411005004134495
98787.997515339477104
98801.727265723369783
98812.001847082254244
98815.451800970098702
98814.58017494060914
98813.466881998436293
98813.259480445703957
98813.82721726129239
98817.782977453025524
98829.494486650655745
98849.740314761293121
98873.050748994210153
98891.155873708063154
98898.184841954731382
98893.592158462633961
98879.583768615950248
98859.306637065659743
98837.760546183009865
98820.860223170529935
98812.602626877371222
98812.240871725734905
98815.104612961644307
98815.756898128063767
98811.987901513042743
98805.967501418854226
98802.451694308154401
98805.19096316897776
98813.249222650978481
98820.777029705554014
98821.329851832444547
98812.29353810113389
98795.958610442205099
98776.871153374027926
98758.287716191262007
98741.106840455438942
98724.43897649088467
98707.031010353850434
98687.756197440627147
98666.548243784549413
98646.300182316801511
98632.914764083194314
98632.386168588724104
98646.376167398324469
98669.877560303604696
98693.140414958194015
98707.102604650601279
98708.817994260287378
98702.214357178207138
98693.934985119718476
98688.144534908176865
98683.743422618965269
98675.982891508334433
98661.118198168289382
98639.837924540421227
98617.099237392641953
98599.155459740766673
98590.339892000614782
98591.313004486539285
98599.374510705049033
98609.924660813019727
98618.448738763559959
98622.291745448703296
98621.003563864796888
98615.892272483601118
98668.371389576350339
98681.190522701654118
98694.114713987204595
98708.200934758307994
98725.190751685193391
98745.322572001095978
98765.737222955925972
98781.18266095162835
98786.911090048030019
98781.59827669270453
98768.61261033359915
98754.219834619216272
98744.581368892322644
98742.442279623748618
98746.02026593060873
98750.256774282504921
98749.531174657560769
98740.208892302718596
98722.285552926041419
98699.139494215196464
98675.865676552901277
98657.169653619275778
98646.307110837151413
98644.759997442335589
98651.759135945976595
98665.058710316152428
98681.475105518577038
98697.714362000508117
98710.97063897762564
98719.181939821559354
98721.258765659382334
98717.168358387745684
98707.715041666611796
98694.557594577097916
98680.195508705757675
98667.430753551394446
98658.530477790758596
98654.485261559791979
98654.814211695687845
98657.682976323209004
98660.896683452141588
98662.812346978098503
98663.157245749272988
98663.101560224487912
98664.701437639567303
98669.820079828001326
98679.006007806194248
98690.784793333688867
98701.838974902915652
98707.935256309690885
98705.568152357052895
98693.739162365425727
98674.430699520453345
98652.144230374848121
98632.555725158788846
98620.533579652459593
98618.528936811475432
98625.910983737558126
98639.518091857957188
98655.106879899452906
98669.034760888942401
98679.183647191995988
98684.94399473950034
98686.70724018648616
98685.247350113815628
98681.192749121051747
98675.486586242477642
98669.253105040377704
98663.650473938527284
98659.338304452932789
98656.0789068689337
98652.836757296550786
98648.677619686510297
98644.013612556300359
98640.825925358367385
98642.133439515993814
98650.339857867584215
98665.485208106110804
98684.921147019398632
98704.067456780860084
98718.264973798955907
98725.07915781835618
98725.152060583583079
98721.728617141852737
98719.248901714367094
98721.530178547414835
98730.26487377351441
98744.264361139212269
98759.74783970892895
98772.777413121089921
98779.846395998654771
98779.99192601077084
98774.763991114406963
98766.892666565428954
98759.778913717891555
98755.898431076129782
98755.541948342477554
98757.237301570217824
98758.897602436496527
98758.982835517541389
98757.344272975460626
98755.269427211562288
98755.018310928717256
98758.257597698029713
98765.823895677749533
98776.78096960716357
98788.90595500159543
98799.614794027293101
98806.958746592717944
98810.129780822753673
98809.397180187006597
98805.804664750263328
98800.584185514511773
98794.894212333354517
98789.735462362019462
98786.035591552470578
98784.63429213949712
98786.194880286158877
98790.849867995915702
98797.848687291756505
98805.605286883059307
98812.079131894919556
98815.486602921344456
98814.863782941232785
98810.558150852812105
98804.194392234217958
98798.23562974295055
98795.086648992655682
98796.308429171607713
98802.012953541838215
98810.942028978475719
98821.069796397758182
98830.206843990672496
98836.765187814307865
98840.168094199922052
98840.709312782870256
98839.166417983098654
98836.598020422228728
98833.874945393778034
98831.663804874668131
98830.417270804144209
98830.405474226776278
98831.793116191329318
98834.558417381005711
98838.355447804759024
98842.44200889718195
98845.930443192104576
98847.8857108176162
98847.755707275326131
98845.263113158027409
98840.663750863022869
98834.703601612069178
98828.506240839778911
98823.291201633343007
98820.169414019677788
98819.845378738842555
98822.48533599426446
98827.7821290876891
98835.098687989753671
98843.633818895454169
98852.521424130216474
98861.001458286176785
98868.337254889425822
98873.768411346667563
98876.607511375230388
98876.321138977407827
98872.715466943132924
98866.186029792559566
98857.740697399771307
98848.739680714294082
98840.650467471525189
98834.612964932341129
98831.190388000060921
98830.084919171888032
98830.179594592540525
98829.802870066312607
98827.212398757765186
98821.098159397239215
98811.022730110824341
98797.543536873490666
98781.953380002785707
98765.822697800133028
98750.497391351105762
98736.636753079743357
98723.991695002638153
98711.56398195993097
98698.091478410584386
98682.825777026533615
98665.892025816414389
98648.217190164083149
98631.407896712218644
98617.208287657209439
98606.830941421940224
98600.560360156974639
98597.740812903983169
98597.175892394938273
98597.318426826808718
98596.999121620014193
98595.344498891674448
98592.084556739282561
98587.216304526344175
98581.044480184122222
98573.697879380109953
98565.417113844596315
98556.174127475896967
98546.557397371449042
98536.931786110100802
98527.83502568192489
98520.182845927309245
98514.056005182996159
98508.944987655559089
98504.299374187961803
98499.57143752972479
98493.845159038493875
98486.37747915093496
98477.215689905802719
98467.146722153906012
98457.172669590290752
98448.620572500673006
98442.823851497887517
98440.748554937643348
98442.791475901365629
98448.467995258513838
98456.756612001161557
98466.637953375582583
98477.135777179079014
98487.328948376714834
98496.530152603387251
98504.44694061393966
98510.677346968775964
98514.610518987421528
98515.582431766597438
98513.068309374415549
98506.793986085875076
98496.908944820825127
98484.100529202900361
98469.569683241439634
98454.892940877485671
98441.676693498448003
98431.128721826331457
98423.797577643577824
98419.577971605118364
98417.882771579839755
98417.959439314203337
98419.210676898277598
98421.387224069912918
98424.656870725491899
98429.535238044627476
98436.67973825414083
98446.607006228587124
98459.46106032669195
98474.882500439649448
98491.960292977848439
98509.352795637576492
98525.594539290381363
98539.428849202158744
99033.428217355598463
98685.20878565053863
98774.33514705003472
98962.332452148984885
99016.123902432111208
99009.353831068350701
99122.235473571665352
99181.303985541424481