/*--------------------------------*- C++ -*----------------------------------*\
  =========                 |
  \\      /  F ield         | OpenFOAM: The Open Source CFD Toolbox
   \\    /   O peration     | Website:  https://openfoam.org
    \\  /    A nd           | Version:  12
     \\/     M anipulation  |
\*---------------------------------------------------------------------------*/
FoamFile
{
    format      ascii;
    class       volScalarField;
    location    "0.0055";
    object      p_0;
}
// * * * * * * * * * * * * * * * * * * * * * * * * * * * * * * * * * * * * * //

dimensions      [1 -1 -2 0 0 0 0];

internalField   nonuniform List<scalar> 
75962
(
98694.181008254832705
98958.911318575323094
98996.321014884568285
99033.055677019554423
99074.132536124539911
99071.162601731368341
99094.746850457217079
99204.214097307762131
99287.20806218663347
99209.307587700270233
99044.305345243934426
98914.895127560928813
98914.021360318802181
99013.794453303999035
99095.358022475527832
99121.587746366101783
99132.952118541536038
99122.025234304310288
99096.399995363331982
99100.656170050962828
99110.611781945597613
99064.494695103174308
98969.965095082385233
98893.257225703608128
98904.644964634790085
98964.147989791526925
98989.230595555680338
98969.486918953480199
98956.699485081582679
98961.645825375511777
98986.972190319502261
99049.326850067911437
99126.356623763975222
99162.911542263449519
99139.374226677042316
99089.132741191540845
99046.991500188349164
99020.344555729141575
99001.837504542942042
98990.54887260356918
98975.044554449850693
98948.635186082567088
98934.311006505202386
98953.908823389021563
98982.33429368097859
98993.101619630135247
98998.642726289588609
99010.912661446200218
99013.196905718257767
99002.553772852217662
99006.782995874906192
99038.881126175212557
99070.430633644209593
99078.897775621051551
99069.954224613044062
99051.420779695879901
99022.112894300516928
98995.147302284705802
98997.775450362023548
99032.320623777326546
99066.632445883777109
99066.199851390847471
99034.865578274868312
99003.644730097003048
98996.709139362996211
99006.64683817209152
99006.966050604300108
98980.252349371119635
98932.864387715730118
98891.684848023214727
98874.666452035846305
98872.57298965236987
98865.273643974156585
98849.35492836945923
98833.761700187402312
98830.241216480339062
98835.789993906495511
98840.37986842940154
98842.739768750965595
98848.705351944168797
98858.72401716078457
98863.0113360920368
98849.347360372121329
98822.88647239250713
98803.007425060801324
98810.919189385327627
98846.883075859761448
98888.630629481718643
98911.653616981275263
98908.911875708814478
98890.215774952099309
98870.63402082612447
98858.072927555185743
98852.416509918315569
98851.093098896250012
98850.805495845794212
98852.090713217199664
98856.172497042411123
98863.448663557865075
98870.123612812429201
98869.141206719359616
98857.436583069284097
98840.678798091830686
98831.905804256428382
98840.552289756000391
98859.6074105543521
98871.436223652970511
98866.446743290653103
98853.80925730013405
98853.079065574944252
98873.686412674607709
98902.801123909041053
98914.461536227710894
98894.330409174348461
98855.181599291958264
98824.484198822421604
98820.928642584680347
98838.750826394883916
98854.194571891101077
98848.551627843888127
98822.505440923006972
98792.85742100434436
98776.02707901247777
98776.976170293200994
98789.906883616233245
98805.115607094441657
98814.221342201606603
98812.454982942144852
98799.802043863528525
98781.814917883893941
98767.843250070640352
98765.693569958486478
98777.35550090947072
98799.525066381553188
98827.526479322579689
98857.10301514074672
98884.921869226280251
98908.970743168931222
98927.794567716133315
98938.270111311096116
98935.839974173126393
98918.286915797230904
98889.704798346268944
98860.153197725579957
98840.292711692542071
98835.113106059594429
98842.081118087909999
98854.180230162251974
98864.502546435018303
98870.59125274408143
98875.221768925737706
98883.181352389714448
98895.826904042085516
98907.488781317762914
98907.501064987052814
98887.539383803727105
98848.606549281437765
98801.414865361744887
98760.153571770264534
98734.736837271600962
98726.110308193892706
98727.28811733215116
98728.413533810133231
98722.922308722816524
98711.670816612488125
98701.48709828183928
98699.954978110108641
98709.699870464581181
98725.701504269163706
98737.545432846862241
98736.337731861160137
98720.725863838335499
98697.516348663222743
98676.934159505573916
98665.834053121696343
98663.654834956047125
98663.924799451226136
98659.867073931876803
98649.510553690357483
98636.600833283751854
98627.355321603739867
98626.077661044415436
98632.585142712108791
98643.021057182209915
98652.891697968589142
98659.497322283539688
98662.185317395633319
98661.319834139590967
98631.431200551814982
98638.890647117368644
98644.586145113615203
98651.467250051893643
98662.306296999013284
98676.750488129910082
98690.8196612726897
98699.180142180339317
98698.568433935826761
98690.054969179036561
98678.661681761106593
98670.009015019357321
98666.993162297017989
98668.516889261329197
98670.625099143158877
98669.274960081325844
98662.892124562582467
98652.651671816536691
98641.056566421044408
98630.148710194014711
98620.88401690631872
98613.444122615226661
98608.049780887697125
98605.562152627855539
98607.146615970865241
98613.335293478827225
98623.332401301871869
98634.703088703055982
98644.584964640744147
98650.707024582952727
98652.081810358184157
98649.488243784668157
98644.974128319692682
98640.840862836441374
98638.756029174954165
98639.024428860691842
98640.634777087034308
98641.850491186065483
98641.287131344943191
98638.790902972468757
98635.491287398559507
98633.07566693238914
98632.901134935935261
98635.376199156875373
98639.972519477872993
98645.471125352662057
98650.551679224066902
98653.850390930034337
98654.037475912613445
98650.319380635570269
98642.870027821554686
98632.822426536906278
98622.676362072059419
98615.819717416001367
98614.688822645213804
98619.695396052731667
98629.015301787891076
98639.402695840719389
98648.1936930687516
98654.603843238786794
98659.182321322674397
98663.270304439094616
98667.866610356446472
98672.401457099535037
98674.69485744908161
98672.532472530685482
98665.295504489316954
98654.538628920781775
98643.297685583820567
98634.382723429691396
98629.064896913056145
98626.970078869126155
98626.891311212428263
98628.33916725742165
98632.17792174789065
98640.01486088889942
98653.073301883981912
98670.920871925656684
98690.857221664744429
98708.822478259142372
98721.341840239998419
98727.065221687502344
98727.326990715053398
98725.523040808402584
98725.544660651998129
98730.245605593459914
98740.424290374576231
98754.768958904489409
98770.201087641355116
98783.337016081699403
98791.796231870903284
98794.81359508013702
98793.635732417664258
98790.555865883303341
98787.532409819657914
98785.588928685014253
98784.569549664767692
98783.33158717220067
98780.610274445774849
98775.960071337511181
98770.100887272914406
98764.724159618737758
98761.517875008998089
98761.361511564799002
98764.006094591051806
98768.376997937244596
98773.118195506947814
98777.024121682712575
98779.348753435551771
98779.832624211747316
98778.578285190757015
98776.098743103066226
98773.083733896244667
98770.4517370552785
98769.048809644416906
98769.474873473081971
98771.853084521164419
98775.69263488863362
98779.799299026009976
98782.575028832856333
98782.497233694986789
98778.480010407860391
98770.40311541070696
98759.281949658659869
98747.131315680337138
98736.496644625731278
98729.778275251897867
98728.613856610943913
98733.36370021069888
98742.969610701678903
98755.234622330812272
98767.511900126730325
98777.376705985239823
98783.210347131287563
98784.411024119370268
98781.360399044002406
98775.163977986681857
98767.295081882315571
98759.280317612690851
98752.517781876740628
98748.074086668086238
98746.557493734318996
98747.988153271260671
98751.740515400189906
98756.708577549186884
98761.562354561159736
98765.088676833591308
98766.475330969813513
98765.547647501691245
98762.770922485404299
98759.040820526104653
98755.338441101062926
98752.461063972834381
98750.835702270400361
98750.500230405159527
98751.266520658507943
98752.981556607672246
98755.64337527276075
98759.343520089110825
98764.05910066528304
98769.446062073111534
98774.705537490779534
98778.686442322592484
98780.232147240778431
98778.635452524860739
98773.976685922418255
98767.176726724486798
98759.800353626487777
98753.656656779916375
98750.336785894469358
98750.76403373471112
98754.861496950790752
98761.491414631091175
98768.660950006480562
98774.026593442598823
98775.446304242082988
98771.549381416174583
98762.0352402406279
98747.743988856702344
98730.504303332549171
98712.533376952269464
98695.781851322841248
98681.391991915559629
98669.470421070393058
98659.325866051862249
98649.979358025986585
98640.621707187732682
98631.090866765967803
98621.967950592297711
98614.282626065891236
98609.056883600176661
98606.595916762191337
98606.319462730854866
98606.952839225210482
98606.77448214359174
98604.270585059959558
98598.722950593437417
98590.589232140249806
98581.126869362327852
98571.968377555254847
98564.412604461467708
98558.975775196464383
98555.369449567617266
98552.912616342946421
98550.681996475410415
98548.233797145279823
98545.391465707143652
98542.517208791658049
98540.539377795808832
98540.048510884138523
98540.892521309709991
98542.143839122756617
98542.348031847111997
98540.066216293314938
98534.220665967615787
98524.563914942205884
98511.920471527526388
98498.0041456300969
98485.042092080722796
98475.281607913246262
98470.326580923094298
98470.850716393484618
98476.724608542601345
98487.054465352848638
98500.236831126327161
98514.382246317371028
98527.708170224083005
98538.661572197903297
98546.072669455432333
98549.243347056952189
98547.865847992536146
98541.934196918082307
98531.754064207038027
98518.094915343419416
98502.281066274212208
98485.976800181364524
98470.83817863544391
98458.245375304177287
98449.079574824863812
98443.655964357632911
98441.738444533228176
98442.625135787326144
98445.39087542789639
98449.205120085709495
98453.583312354996451
98458.42071268975269
98463.911582767264917
98470.413928594905883
98478.297711657156469
98487.738007542167907
98498.547185215269565
98510.264392912926269
98522.273985128267668
98533.928747524681967
98207.047128909616731
98709.808601466313121
99105.294752631889423
99123.573608413746115
99124.131270359561313
99145.987434062713874
99113.67632076870359
99110.79209423433349
99168.783583849304705
99149.792173657973763
99005.609087504097261
98857.676261386353872
98870.606190769656678
99025.266050145946792
99117.173585708384053
99094.510726819265983
99064.561627936782315
99058.205741428973852
99076.244372174129239
99127.584670970230945
99140.430246554955374
99066.901240936975228
98955.7713085332216
98897.934157097246498
98942.670088123282767
99024.693057852447964
99045.857715576188639
99012.154442223298247
98977.563814336783253
98969.14874528881046
99007.713482112521888
99084.984513162155054
99144.889183096456691
99142.368777171184774
99092.527265141878161
99040.578211166211986
99003.247378608677536
98971.359750708026695
98948.818886306253262
98949.272546403066372
98954.902370935946237
98940.803027673537144
98925.162144382135011
98943.794427799177356
98980.682476601708913
99000.579219014500268
99004.620800553122535
99013.491045152681181
99022.146222152310656
99025.085141302508418
99039.732327147212345
99070.511611961221206
99092.833635575167136
99091.561514675806393
99076.334171426700777
99061.345123249164317
99038.609583198747714
99015.33277514227666
99016.913968294524238
99052.72452821584011
99093.204164855371346
99099.89885351472185
99066.379558025408187
99022.78559919410327
98999.906889514109935
99002.691715259163175
99006.472513550703297
98987.698569672342273
98947.727520054817433
98905.082287451965385
98876.903887284512166
98861.447561777415103
98846.632757897095871
98831.2077079097362
98825.088399710977683
98830.593018335173838
98842.360042367203278
98854.183761597290868
98863.780483753565932
98871.679409631207818
98875.448188055786886
98872.822606122514117
98859.157254623802146
98836.359678681532387
98819.615482452863944
98823.349943021792569
98849.033473056799266
98880.430103688879171
98899.650440492478083
98899.126826298510423
98883.787156859485549
98863.58485333880526
98848.538489527796628
98842.950447190261912
98845.783330493868561
98850.118353104116977
98850.033848519917228
98848.797241429332644
98854.326324228240992
98866.775024711052538
98875.975399422415649
98872.718093631046941
98858.121276426827535
98844.055367078821291
98842.134350050619105
98851.27207150743925
98859.674367125349818
98859.011761233370635
98855.800310820923187
98865.990033975700499
98894.147620457209996
98925.4384422297735
98936.971779428131413
98923.25898568489356
98896.118480900942814
98876.041698176093632
98872.535198985773604
98877.930420480275643
98877.176265061367303
98861.776025703991763
98834.652431408845587
98806.230927095763036
98786.253468839131529
98779.307680085956235
98784.791620231291745
98798.037061070426716
98810.921927698684158
98815.449428080188227
98809.126882961252704
98796.927192390532582
98787.179482434075908
98785.226892303093337
98791.623352569600684
98805.450955779291689
98826.244110156563693
98852.927776109761908
98881.532740269685746
98906.012898557193694
98921.635461657628184
98925.484068096833653
98916.012898632150609
98894.284740322415018
98865.618887534714304
98839.136229089388507
98823.450873630441492
98821.66000836683088
98829.08706532701035
98837.346271463989979
98840.79911240428919
98839.967790649970993
98840.237228896075976
98847.065110893076053
98860.31003131599573
98872.533026497389073
98873.356650659014122
98856.499539889759035
98824.594458231949829
98787.101392922879313
98754.231115481845336
98731.802035295826499
98719.626406182404025
98712.697318911421462
98704.195801402151119
98690.468205517448951
98673.874061227106722
98661.62374540627934
98661.161724859601236
98674.464797088119667
98695.592943680603639
98713.625497832341352
98719.592846180923516
98712.209631730627734
98697.563981068014982
98684.144882985710865
98676.943856599944411
98674.370090871598222
98670.476210582142812
98660.329042736746487
98643.979252342192922
98626.436235240078531
98613.901086717902217
98610.001980417349841
98614.457282472067163
98623.800598304034793
98633.597198807387031
98640.443207111340598
98642.784832366553019
98640.545660331277759
98634.366744849568931
98641.808115707812249
98651.892988779392908
98661.769177928435965
98672.272348707658239
98685.768213801013189
98703.226992699914263
98722.365640887728659
98738.080958287435351
98745.13140744654811
98741.349778231859091
98729.42210635462834
98715.714567353817984
98706.568057461234275
98704.749422883120133
98708.206420973641798
98711.905234702280723
98710.707752206115401
98702.136683307486237
98686.967982403584756
98668.49916525464505
98650.545714400926954
98636.024309431901202
98626.53044449762092
98622.748591592404409
98624.726457685508649
98631.926444127835566
98643.158041300703189
98656.37721224912093
98669.108161777592613
98678.911697659525089
98683.858115229930263
98683.146192645974224
98677.470953218085924
98668.542770055544679
98658.789785227432731
98650.683342020085547
98645.870540209230967
98644.531686626301962
98645.497370800861972
98647.018869770181482
98647.676290502029588
98647.093851103214547
98646.00862501138181
98645.790819653484505
98647.797058764641406
98652.801142319789506
98660.520756063153385
98669.461814263602719
98677.137881060232758
98680.815528138162335
98678.257961767187226
98668.695856000296772
98653.868350522199762
98637.575810582537088
98624.214099627512041
98617.496885249594925
98618.937249703201815
98627.295289503774256
98639.57323968775745
98652.362812216524617
98663.180363579565892
98671.284571816533571
98677.125340005601174
98681.192295291068149
98683.204931099156966
98682.29262031786493
98678.03830788686173
98670.77600980362331
98662.00524039278389
98653.709505774750141
98647.268850372507586
98642.7516817390715
98639.409919484387501
98636.846860658057267
98635.899512151678209
98638.632299666947802
98647.146601807166007
98662.078171775137889
98681.548205082624918
98701.469988379423739
98717.271299074476701
98726.033024873657268
98727.689958857125021
98724.904977756028529
98721.961462684979779
98722.9305109683919
98730.012035534979077
98742.70004580442037
98758.293320857686922
98772.915113847819157
98783.092044147473644
98787.152495439324412
98785.395386549134855
98780.2234326890175
98774.944214681803714
98771.797615772433346
98771.323603283482953
98772.666016871793545
98774.128191556766978
98774.068768913974054
98771.851574708489352
98768.351275076754973
98765.279569194462965
98764.734200833147042
98767.721265026848414
98773.837463233518065
98781.474470882370952
98788.636775380349718
98793.731781979367952
98795.954729169752682
98795.383101146479021
98792.652540119495825
98788.612075210985495
98784.174727478079149
98780.164013917601551
98777.411385260245879
98776.705163822189206
98778.51332815088972
98782.700950368976919
98788.377619000195409
98794.008743616155698
98797.738997565917089
98798.005664224197972
98794.084803642632323
98786.499214689145447
98777.080371950476547
98768.402439502169727
98763.012667071961914
98762.617567650042474
98767.603322264083545
98776.872710069641471
98788.187075905414531
98799.024173863406759
98807.279991411807714
98811.759167218435323
98812.302822461424512
98809.563434812531341
98804.628097371547483
98798.794554188309121
98793.247570308856666
98788.960788123993552
98786.678974501453922
98786.826429867680417
98789.351536645597662
98793.678585809044307
98798.721574953378877
98803.167591297649778
98806.014961662658607
98806.520265393672162
98804.583157073662733
98800.644779193185968
98795.628309071951662
98790.596992054051952
98786.516286024532747
98784.077109050253057
98783.618662270571804
98785.194172015559161
98788.637576550419908
98793.746948445943417
98800.209944996138802
98807.566144238837296
98815.128609446503106
98821.997349967743503
98827.061868630902609
98829.25060812299489
98827.888250297532068
98823.039572286405019
98815.573904701828724
98807.022650291997707
98799.179302674398059
98793.626716201135423
98791.39098906343861
98792.58133230729436
98796.281297441368224
98800.684353062635637
98803.56566998323251
98802.886497827275889
98797.34524676942965
98786.744551041032537
98771.989239261325565
98754.831814580698847
98737.300590273094713
98721.105963416470331
98707.200362187635619
98695.402106908601127
98684.656574969150824
98673.755751880380558
98661.818748898513149
98648.685615337017225
98635.160196547760279
98622.736569047367084
98612.830058493476827
98606.326786372650531
98603.144175396562787
98602.282595357493847
98602.213574325549416
98601.342221038183197
98598.579113119994872
98593.580650384552428
98586.852205617076834
98579.377796417524223
98571.873085106824874
98564.855607885227073
98558.214089063680149
98551.866472234818502
98545.466097298092791
98539.065215647628065
98533.136957858179812
98527.946937717788387
98524.053140737189096
98521.829329017695272
98520.83659282856388
98519.929630264465231
98517.655822786342469
98512.769306010581204
98504.82220368135313
98494.084104783731163
98481.765836986916838
98469.602252542623319
98459.545680848852498
98453.301533493140596
98451.871317664335947
98455.344317327355384
98463.130204515895457
98474.217880280819372
98487.252631546623888
98500.706129244732438
98513.185194878722541
98523.525019214503118
98530.764089867123403
98534.235867368013714
98533.606730243103812
98528.769800470487098
98519.854038593330188
98507.378498178048176
98492.387836473237257
98476.435941098767216
98461.267375562645611
98448.374971101351548
98438.699989376880694
98432.536327553621959
98429.656915318788378
98429.478100809224998
98431.214453261403833
98434.083659928393899
98437.554140532229212
98441.560461582950666
98446.480471839386155
98452.894857499588397
98461.310533594238223
98471.977682076423662
98484.73074555041967
98498.932222417337471
98513.636889540648554
98527.813783833757043
99029.947651144801057
99025.245257413305808
99185.83402298243891
99262.642354875046294
99100.043765834634542
98982.304971699573798
99053.139380119697307
99115.640208038690616
99109.213154409881099
99114.254383367326227
99009.738274824048858
98867.147837991025881
98888.556786103901686
99024.692903246657806
99074.320707654405851
99029.629006777395261
99001.607265120517695
99006.453162371457438
99030.144596536105382
99075.748593227050151
99079.894230319870985
99030.691082257981179
98978.96247626231343
98971.961920248097158
99010.907585960580036
99051.529901917485404
99062.761206484938157
99034.750399521479267
98983.873873205579002
98950.166942725205445
98975.384078180097276
99040.416246096545365
99078.107257599316654
99063.655605264240876
99030.280333538772538
99006.56800315019791
98982.817990356226801
98943.810418418142945
98913.462647488049697
98921.158714632430929
98947.879873919213424
98955.051102522920701
98947.327028816114762
98959.976035714687896
98992.908049540608772
99007.376312608801527
99000.838738890961395
99004.417264062925824
99024.681042887052172
99045.236350088525796
99057.856581239087973
99066.633828837017063
99073.180195402062964
99078.817557442263933
99089.082231610838789
99095.098445818381151
99083.262217367388075
99059.476252946842578
99050.70257721413509
99075.988925639539957
99111.751156604033895
99115.100371038963203
99074.946860173426103
99022.570493396648089
98996.977339801291237
99003.47932201391086
99014.891105298796901
99000.306091550766723
98957.65203012265556
98906.612322474698885
98863.917035487349494
98836.300248306069989
98822.101344983966555
98825.147763760032831
98843.87082543685392
98864.475104826473398
98872.834995144323329
98865.85007221653359
98856.333134903907194
98859.374933534956654
98875.361014101741603
98889.629029559509945
98887.669223160322872
98866.529346870273002
98840.988064605131513
98829.93498713162262
98838.624709295967477
98855.617451342201093
98866.768385890871286
98865.671404550113948
98853.358372642411268
98839.85296708351234
98836.710836523096077
98845.56192640507652
98857.92920723556017
98861.890937930205837
98853.867173105696565
98846.540806958510075
98853.407937121330178
98873.221004115941469
98890.442051889069262
98889.206073313907837
98869.013512715755496
98842.539298857300309
98826.415351064351853
98827.592002947421861
98838.723733887280105
98849.05664467648603
98858.810301380872261
98876.088480328107835
98901.86781548865838
98927.228715003177058
98940.944714486104203
98940.240485108821304
98931.140898813289823
98922.17181778633676
98915.099306738120504
98905.914682259317487
98891.20479534502374
98870.241139524921891
98845.136826601548819
98819.12109582015546
98796.018501672093407
98781.091691615874879
98778.426084059581626
98787.310389868594939
98801.048551492043771
98811.108366017069784
98814.340478277270449
98813.390426508791279
98812.30281866088626
98812.134523602144327
98812.789626655372558
98816.988683741044952
98829.057673610644997
98849.552994397425209
98872.809706385072786
98890.552631957412814
98897.079920326868887
98892.032546162387007
98877.689575300595607
98857.277633081481326
98835.85757274136995
98819.309762727774796
98811.488112096922123
98811.438994660158642
98814.392369818815496
98814.96232934181171
98811.099394636112265
98805.130107607925311
98801.839447612917866
98804.874649323362974
98813.103925212781178
98820.546538420530851
98820.838414531841408
98811.533638905035332
98795.064110108680325
98775.981688591244165
98757.46395860677876
98740.325900403418927
98723.638503054098692
98706.156560867311782
98686.771621993699227
98665.49625014179037
98645.350157632477931
98632.307449655010714
98632.281440531558474
98646.71428564566304
98670.372572053718613
98693.429409338350524
98706.959716863639187
98708.277871556405444
98701.490640654374147
98693.233761860494269
98687.517540677188663
98683.070345068757888
98675.10511341196252
98659.996868992224336
98638.601820745781879
98615.973234095523367
98598.336342465598136
98589.903167688433314
98591.204320543300128
98599.447843199348426
98610.00352447089972
98618.396258360560751
98622.055063807783881
98620.606202032722649
98615.400756886534509
98669.042158002164797
98681.983400010038167
98695.035478660225635
98709.303300741696148
98726.49474776693387
98746.739564786854316
98767.050829094310757
98782.141374827086111
98787.363357704161899
98781.581097665679408
98768.336128153343452
98753.959545173609513
98744.541500274499413
98742.664313389337622
98746.378343197924551
98750.53427503000421
98749.530444220406935
98739.845546567099518
98721.620664349669823
98698.341763771197293
98675.137610439240234
98656.68068861165375
98646.169522312324261
98645.002689155444386
98652.334233010493335
98665.86514083869406
98682.383430535948719
98698.598072860273533
98711.719313477544347
98719.718472755368566
98721.541896744354744
98717.202684112475254
98707.545088021259289
98694.270287675637519
98679.910793618255411
98667.271302566441591
98658.580508924060268
98654.765166985234828
98655.272881964687258
98658.223958736896748
98661.423087155926623
98663.274523064232199
98663.570981754965032
98663.536443800112465
98665.241149760768167
98670.516977701554424
98679.83664328668965
98691.638759197288891
98702.550101562170312
98708.326629803748801
98705.561365966845187
98693.37201697936689
98673.860872170334915
98651.605847163096769
98632.280551349147572
98620.67984821209393
98619.131756617905921
98626.885410445960588
98640.703068170536426
98656.324979965022067
98670.149948734237114
98680.116964392349473
98685.66772093718464
98687.224585967880557
98685.575675066167605
98681.362566968295141
98675.555567648232682
98669.289509397378424
98663.716685833438532
98659.461096312646987
98656.23967842660204
98652.988806724446476
98648.799677406001138
98644.142477921239333
98641.053083165810676
98642.562672061816556
98651.009351924512885
98666.329083426840953
98685.780351144043379
98704.751668568846071
98718.64265719478135
98725.147360665854649
98725.037410446748254
98721.629755517729791
98719.373199444366037
98721.999703155321185
98731.085017557357787
98745.287599578441586
98760.768858715426177
98773.600045564598986
98780.347731139248936
98780.194759003279614
98774.777826994919451
98766.873607989226002
98759.879517773922998
98756.184552009202889
98755.973593207716476
98757.713497875651228
98759.315297821900458
98759.287122107823961
98757.554218745979597
98755.463109757707571
98755.290715077862842
98758.662814593611984
98766.356035714634345
98777.353542597018532
98789.392302414707956
98799.897884717982379
98806.97219696243701
98809.871661267214222
98808.913414227296016
98805.160329175036168
98799.842535263771424
98794.107718467945233
98788.951816106360639
98785.30500109679997
98784.007864836748922
98785.712729725331883
98790.515387808249216
98797.615518069913378
98805.384723917741212
98811.769143311772496
98815.00655744659889
98814.181893094078987
98809.704989285892225
98803.255271978050587
98797.316595663098269
98794.277374854267691
98795.650176602342981
98801.485538508248283
98810.476668035757029
98820.577389379148372
98829.615435899468139
98836.039130884659244
98839.317825125777745
98839.776777619248605
98838.207996091659879
98835.662668209522963
98832.996247008515638
98830.861485931047355
98829.697094529634342
98829.767747387260897
98831.235306171554839
98834.071379684988642
98837.913674355993862
98842.004508801634074
98845.449025694193551
98847.320011035990319
98847.077762774657458
98844.471381969517097
98839.781905896554235
98833.775839737980277
98827.583539878134616
98822.429320748502505
98819.412653300707461
98819.226963072564104
98822.020588460742147
98827.460781737972866
98834.896236732674879
98843.515179173555225
98852.445358552897233
98860.924242400928051
98868.216612553093
98873.562626588434796
98876.286048267938895
98875.868401804298628
98872.138211898869486
98865.519610699440818
98857.045390708415653
98848.092913563799812
98840.118158550874796
98834.244023690276663
98830.989626836933894
98830.011334254333633
98830.154694087032112
98829.731978838404757
98827.014742829749594
98820.730758708654321
98810.497701284388313
98796.924130898172734
98781.331916274590185
98765.290374042349868
98750.108317852136679
98736.391833913934533
98723.841374598734546
98711.436352137039648
98697.922538384722429
98682.578275478372234
98665.579933690591133
98647.90006713483308
98631.167260771340807
98617.125574853882426
98606.954189069001586
98600.899282283309731
98598.261095596753876
98597.810154969221912
98597.991212512599304
98597.642943708196981
98595.924264431276242
98592.572628704627277
98587.623223265414708
98581.372362702531973
98573.966649086127291
98565.633816370231216
98556.364404566542362
98546.756487227306934
98537.152969750663033
98528.114730816116207
98520.536622265382903
98514.45671465813939
98509.353641047637211
98504.688846948483842
98499.905905505394912
98494.079610551867518
98486.494126980571309
98477.248915327159921
98467.150565356772859
98457.223945000965614
98448.797411508363439
98443.18517818703549
98441.324370719215949
98443.568787380267167
98449.388064353639493
98457.740876759431558
98467.609810959314927
98478.02325483081222
98488.069306569435867
98497.094395422143862
98504.825096564483829
98510.862445524748182
98514.592344183358364
98515.348399495342164
98512.610109855537303
98506.120889298661496
98496.058138692344073
98483.134267789253499
98468.561197868562886
98453.913075295044109
98440.783918693370651
98430.361018664902076
98423.171844061522279
98419.088859382129158
98417.507461099259672
98417.674293200601824
98419.006997476797551
98421.277415926597314
98424.669346319555189
98429.704521945881424
98437.035795499017695
98447.165531589023885
98460.212972213019384
98475.787295468748198
98492.948806808664813
98510.339272583863931
98526.495387920323992
98540.180393284972524
99007.125015598445316
98677.282619441059069
98776.373456596702454
98963.479836218670243
99013.749872525673709
99009.103279311020742
99123.649683112904313
99179.394067313114647