/*--------------------------------*- C++ -*----------------------------------*\
  =========                 |
  \\      /  F ield         | OpenFOAM: The Open Source CFD Toolbox
   \\    /   O peration     | Website:  https://openfoam.org
    \\  /    A nd           | Version:  12
     \\/     M anipulation  |
\*---------------------------------------------------------------------------*/
FoamFile
{
    format      ascii;
    class       volScalarField;
    location    "0.0055";
    object      pMean;
}
// * * * * * * * * * * * * * * * * * * * * * * * * * * * * * * * * * * * * * //

dimensions      [1 -1 -2 0 0 0 0];

internalField   nonuniform List<scalar> 
75962
(
98731.52756808315462
98732.00128794729244
98731.695358344353735
98731.502710934248171
98731.401524561544647
98731.235260474597453
98731.024803434411297
98730.753300084325019
98730.374092570040375
98729.946221883001272
98729.551949106942629
98729.222287646698533
98728.922819360901485
98728.576952403076575
98728.153832384763518
98727.688680527324323
98727.204169083066517
98726.699943632062059
98726.191387164071784
98725.678947676016833
98725.14332951331744
98724.604639337558183
98724.098354377376381
98723.637197301810374
98723.192174731040723
98722.718748900326318
98722.213076765212463
98721.711203366387053
98721.223177613705047
98720.740748256866937
98720.259825949382503
98719.765146337609622
98719.238013423615484
98718.683569211527356
98718.132045705569908
98717.61294299463043
98717.130531735514523
98716.676786132666166
98716.246231332130264
98715.834775887124124
98715.437984139760374
98715.059589680677163
98714.699650124603068
98714.344051657040836
98713.979371440596879
98713.613588166743284
98713.260196354865911
98712.917888407653663
98712.584424458415015
98712.266652715217788
98711.961773841554532
98711.650696743192384
98711.322286354625248
98710.982984661488445
98710.643277788753039
98710.309759600888356
98709.984833298483863
98709.672951634434867
98709.365146541138529
98709.041074301479966
98708.688232935790438
98708.318755415952182
98707.955410114591359
98707.606072400172707
98707.260525224235607
98706.901601152625517
98706.524098034249619
98706.139670084885438
98705.767593352706172
98705.416280882171122
98705.07910516843549
98704.745766158914194
98704.416203146363841
98704.096638223330956
98703.791233141586417
98703.497898034460377
98703.211730697730673
98702.932062276595389
98702.660713771256269
98702.397243212501053
98702.136544771608897
98701.874977475774358
98701.618224548161379
98701.374100846529473
98701.144655469644931
98700.919842217073892
98700.682957426004577
98700.423949242875096
98700.146854044709471
98699.865794639088563
98699.592894431421882
98699.331978659480228
98699.079144401228405
98698.829153713275446
98698.579104694610578
98698.328431327128783
98698.077348018661723
98697.82587215861713
98697.572393761933199
98697.315839593778946
98697.058974718456739
98696.808529340691166
98696.571241753874347
98696.34762298266287
98696.130268166220048
98695.909540037988336
98695.682577145242249
98695.454840152102406
98695.233515605388675
98695.018500572026824
98694.800334050960373
98694.569704715904663
98694.328362638072576
98694.090104224524111
98693.869806668139063
98693.671154863695847
98693.484015864421963
98693.293618570372928
98693.094401711612591
98692.893749883543933
98692.704571878071874
98692.534415752568748
98692.380706466501579
98692.234736644255463
98692.0882897493575
98691.937732647842495
98691.784776183689246
98691.634641506505432
98691.493619772270904
98691.366720945545239
98691.254775260036695
98691.15372447752452
98691.056859638076276
98690.95796661778877
98690.85290145133331
98690.739423354010796
98690.617382681259187
98690.488549831643468
98690.355846273858333
98690.222737237025285
98690.094258993325639
98689.977259960578522
98689.878331604340929
98689.800066335490556
98689.739241273273365
98689.688047692237888
98689.638120186937158
98689.584140860009938
98689.524659032860654
98689.460811048556934
98689.393542719626566
98689.321701348497299
98689.241635592989041
98689.150183196979924
98689.048372247692896
98688.9423928107135
98688.840947953998693
98688.750731330554117
98688.672752192083863
98688.601806067032157
98688.529563514122856
98688.449418248128495
98688.359639252899797
98688.263295703480253
98688.165419333890895
98688.068931412417442
98687.972429909670609
98687.871306293673115
98687.761282150662737
98687.642094257025747
98687.518959108856507
98687.400206627586158
98687.292713011978776
98687.198488541529514
98687.114771290900535
98687.036818951586611
98686.961642630412825
98686.890313798459829
98686.826543330680579
98686.773174322108389
98686.730084782335325
98686.694346709540696
98686.661836609462625
98686.629320286927396
98686.595703331317054
98686.561799206421711
98686.52895946688659
98686.498389838598086
98687.108301267755451
98687.166182621745975
98687.217930869708653
98687.264083525529713
98687.303536738967523
98687.334324167270097
98687.355443457738147
98687.368457665725145
98687.377543650611187
98687.387734244563035
98687.402615006358246
98687.422953828019672
98687.446925146941794
98687.471644637349527
98687.495124763983767
98687.517214165534824
98687.539448788767913
98687.563737627104274
98687.591320772902691
98687.622531824425096
98687.657199386871071
98687.694944469520124
98687.735299124658923
98687.777483839672641
98687.820006421985454
98687.86085016738798
98687.898141052995925
98687.930822320049629
98687.959048872377025
98687.984239331723074
98688.008665948334965
98688.034594428710989
98688.063445645617321
98688.095532982697478
98688.130298412535922
98688.166754258723813
98688.203976503602462
98688.241598934429931
98688.279959827938001
98688.319816510556848
98688.361813069379423
98688.40604847954819
98688.452126209042035
98688.49936364160385
98688.547001805985929
98688.594526841989136
98688.641944582341239
98688.689961319425493
98688.739875400089659
98688.793334590503946
98688.851893804268911
98688.916537294266163
98688.987347746573505
98689.063076313221245
98689.141071390185971
98689.21798299139482
98689.290819207031745
98689.357958482083632
98689.419497854076326
98689.476510218097246
98689.530141601033392
98689.581104651035275
98689.629549451929051
98689.675618625056813
98689.720133749971865
98689.764876704430208
98689.81223593375762
98689.864382338782889
98689.922294814998168
98689.985447643688531
98690.052203557366738
98690.120645272691036
98690.189330427820096
98690.257522352476371
98690.32481330545852
98690.390504728085943
98690.453334335936233
98690.51174487292883
98690.564552222072962
98690.611636450703372
98690.654252010441269
98690.694589096994605
98690.734707782772603
98690.775589119657525
98690.816568111767992
98690.855519611170166
98690.88962978796917
98690.916331435917527
98690.93413794162916
98690.943215145423892
98690.945138820636203
98690.942338241962716
98690.937187054223614
98690.931243168757646
98690.925105407193769
98690.918624663128867
98690.911440584401134
98690.903498822110123
98690.895270943277865
98690.887618742272025
98690.881268402285059
98690.876400391032803
98690.872465594482492
98690.868434405667358
98690.863234520962578
98690.856239288172219
98690.847551149883657
98690.837997627473669
98690.828883793888963
98690.821565158199519
98690.817233841327834
98690.816786198600312
98690.820749401347712
98690.829218067287002
98690.841904825269012
98690.858213722574874
98690.877291535492986
98690.898232392923092
98690.92040919669671
98690.943735060587642
98690.968717611511238
98690.996332670169068
98691.027865983560332
98691.064496249935473
98691.106953472903115
98691.155287418485386
98691.208768093318213
98691.265962945341016
98691.325080279493704
98691.384431115671759
98691.442829496867489
98691.499892377454671
98691.556017964496277
98691.612171063185087
98691.669573355160537
98691.729411458349205
98691.792559325651382
98691.859401873880415
98691.929814613729832
98692.003309755702503
98692.079234914388508
98692.156837464382988
98692.235373295901809
98692.314168770360993
98692.392739855262334
98692.470918828868889
98692.548889641024289
98692.627153173933038
98692.706371359337936
98692.78718231061066
98692.870060680550523
98692.955233563217917
98693.042726392362965
98693.132370063991402
98693.223870610556332
98693.316825736386818
98693.410757385878242
98693.505065443736385
98693.599024731985992
98693.691837491933256
98693.782799870547024
98693.871499469300034
98693.957916628773091
98694.042470529791899
98694.12592098400637
98694.209179804893211
98694.293096045337734
98694.378254675772041
98694.464703807578189
98694.551844267261913
98694.638510221178876
98694.723214924451895
98694.804479716840433
98694.881235658758669
98694.953135883639334
98695.020680172005086
98695.085141832663794
98695.148257040622411
98695.211797405863763
98695.277141132493853
98695.344988228069269
98695.415318113387912
98695.487564493858372
98695.560850786539959
98695.634258825783036
98695.707119541839347
98695.77912908232247
98695.85024499661813
98695.920475226434064
98695.989600450280705
98696.057046124362387
98696.121975747417309
98696.183468406408792
98696.240885188759421
98696.294064523099223
98696.34343328801333
98696.389924040733604
98696.434729002940003
98696.47887748805806
98696.522995318649919
98696.567237555122119
98696.611309311105288
98696.65471970672661
98696.696947071264731
98696.737699774690554
98696.776961337120156
98696.814863734558458
98696.851609355915571
98696.887297136097914
98696.92185217779479
98696.955137731798459
98696.987204401215422
98697.018518634635257
98697.05006851789949
98697.083256173646078
98697.119660902404576
98697.160719395513297
98697.207435413118219
98697.260157252851059
98697.318455712185823
98697.381251423779759
98697.44716594988131
98697.514886932665831
98697.583459504676284
98697.652455288349302
98697.722081934509333
98697.793132967985002
98697.866888992721215
98697.945012641590438
98698.029414970835205
98698.12204735094565
98698.224853817970143
98698.339745046221651
98698.468420067496481
98698.612232917905203
98698.772100102185505
98698.948488572175847
98699.14144982866128
98699.3507499491825
98699.57603115044185
98699.81700812629424
98700.07357009522093
98700.345770069747232
98700.633786885271547
98700.937905243219575
98701.258501243137289
98701.595964266627561
98701.95064256110345
98702.322873219862231
98702.712972434295807
98703.121264942979906
98703.54819170681003
98703.9943801665504
98704.460683474346297
98732.518113602433004
98732.973301966427243
98731.915478350230842
98731.721513751443126
98731.635950850250083
98731.364966703855316
98731.032066404586658
98730.710541260254104
98730.354823647241574
98729.944983988563763
98729.547992753592553
98729.230544720281614
98728.958211477569421
98728.619609840054181
98728.180062775005354
98727.708896856827778
98727.243009219848318
98726.774666076657013
98726.295248235852341
98725.784800216089934
98725.236076134489849
98724.693229874770623
98724.199875634876662
98723.755920722862356
98723.310593249683734
98722.818435612294707
98722.291015210052137
98721.770061608898686
98721.272594651934924
98720.790890260206652
98720.306448544797604
98719.793547117558774
98719.243766622777912
98718.684232427054667
98718.147689649282256
98717.645869314597803
98717.171392400923651
98716.720750886888709
98716.296879665635061
98715.891535045579076
98715.492853899631882
98715.105344233525102
98714.736606080710771
98714.374258938580169
98714.003125885443296
98713.628966574906372
98713.268012454529526
98712.921568911348004
98712.583532192627899
98712.25524347202736
98711.934552197286393
98711.608465682424139
98711.268736737882136
98710.923352189274738
98710.582113443233538
98710.246065370112774
98709.916952449100791
98709.600442736249533
98709.291206015594071
98708.96956611648784
98708.618454228708288
98708.244908224485698
98707.872586337995017
98707.517582128741196
98707.173891160375206
98706.823771276933257
98706.457323279959382
98706.081495855134563
98705.712908317829715
98705.362280628862209
98705.026258964993758
98704.698204080399591
98704.376373232822516
98704.063465459548752
98703.759750656608958
98703.461562122174655
98703.167611958953785
98702.879822269402212
98702.599420381928212
98702.326186244987184
98702.056942941868328
98701.789851418405306
98701.529064153757645
98701.280801814704319
98701.04690059873974
98700.818958892836235
98700.58290300887893
98700.32961084744602
98700.061638912986382
98699.788632885276456
98699.520469940893236
98699.261980924478848
98699.012433149837307
98698.766789533445262
98698.51946972249425
98698.269268346019089
98698.018428272931487
98697.768778513156576
98697.519133696652716
98697.265251180011546
98697.006560499052284
98696.748777376313228
98696.501280934535316
98696.268626289980602
98696.04704317204596
98695.828062429689453
98695.607250059343642
98695.386525313515449
98695.169857751097879
98694.955138992139837
98694.732912865947583
98694.495966181973927
98694.248285732479417
98694.003033344706637
98693.771967333465
98693.556794433301548
98693.349831665225793
98693.142574392579263
98692.93379574319988
98692.729710748128127
98692.538550079712877
98692.364963800471742
98692.207662347500445
98692.061236084336997
98691.919067999202525
98691.775993968578405
98691.630098598237964
98691.483832269834238
98691.342914965571254
98691.212648829343379
98691.094659940616111
98690.986571726069087
98690.884353737536003
98690.784083043690771
98690.682148257270455
98690.574889038442052
98690.459773834503721
98690.337399995245505
98690.210952026682207
98690.085329128953163
98689.966862429952016
98689.861977125590784
98689.775280946225394
98689.707341598914354
98689.653834620345151
98689.607056400564034
98689.559821330927662
98689.508572189646657
98689.453894312027842
98689.397826151864138
98689.340832138434052
98689.280210627053748
98689.211216123774648
98689.130619937976007
98689.039641296170885
98688.944068253636942
98688.85107036952104
98688.765275653160643
98688.686780545845977
98688.611722386223846
98688.535073084131
98688.453507264319342
98688.366970447372296
98688.278442178314435
98688.191967288279557
98688.109396278334316
98688.027897567910259
98687.941491189529188
98687.845151091882144
98687.738142244226765
98687.625197318877326
98687.514140375438728
98687.411271930657676
98687.318460536553175
98687.23379621199274
98687.154404074157355
98687.079281344689662
98687.010676172954845
98686.952302885911195
98686.906201392732328
98686.871330360256252
98686.844140770801459
98686.820054963041912
98686.795373691507848
98686.768450283780112
98686.739691915223375
98686.710583022286301
98686.683011849294417
98686.658849937914056
98687.1852959242824
98687.251961508547538
98687.312007300439291
98687.365385249155224
98687.411268958865548
98687.447650078916922
98687.472673094409402
98687.486472997377859
98687.492099133538431
98687.494814984675031
98687.500061804501456
98687.511101758194854
98687.52798852082924
98687.548246523103444
98687.568619502606452
98687.587064244129579
98687.60383588829427
98687.621144716234994
98687.641853672685102
98687.668038431162131
98687.700394461717224
98687.738516704164795
98687.781265514378902
98687.826917259822949
98687.873287613707362
98687.918054315057816
98687.959090368516627
98687.994830702155014
98688.024701718677534
98688.049448040736024
98688.071060539150494
98688.092106112439069
98688.115014737835736
98688.141621266695438
98688.172857572237263
98688.208581630417029
98688.247741795581533
98688.288794747903012
98688.330359414292616
98688.371694456000114
98688.412828899483429
98688.454294832161395
98688.496738198286039
98688.540468853374477
98688.585201036985382
98688.630023510573665
98688.673828294806299
98688.715908367405063
98688.756377525292919
98688.796481306359055
98688.838463158434024
98688.885125386121217
98688.939048243133584
98689.001391475059791
98689.071304092605715
98689.146048108086688
98689.221840046520811
98689.29497168668604
98689.362920940940967
98689.424592717157793
98689.480268555504153
98689.530959101030021
98689.577785921166651
98689.621770261554047
98689.663942201179452
98689.705723053062684
98689.748930597634171
98689.795453664119123
98689.846608635649318
98689.902656534279231
98689.962848956361995
98690.02594932881766
98690.090840314049274
98690.156802889425308
98690.223387699094019
98690.28984836867312
98690.354760215413989
98690.416219778722734
98690.472446774190757
98690.522655342487269
98690.567621866008267
98690.60949537360284
98690.650906560535077
98690.693745942116948
98690.738342297583586
98690.783194827919942
98690.825425883333082
98690.86177418747684
98690.889847867481876
98690.908898616253282
98690.920095609806594
98690.925922418493428
98690.929184852968319
98690.932133895868901
98690.935739522363292
98690.939735290012322
98690.943291336923721
98690.945640797785018
98690.946559124058695
98690.94652713938558
98690.946448686067015
98690.947123505175114
98690.94870143449225
98690.950568950342131
98690.951474216431961
98690.950109008103027
98690.945736783905886
98690.938602595182601
98690.929890632891329
98690.921338945801836
98690.914691834579571
98690.911380330755492
98690.912453299752087
98690.918509023234947
98690.929775965458248
98690.946097401087172
98690.966912718780804
98690.991281637194334
98691.018040810813545
98691.046161312347976
98691.075050948857097
98691.104787326155929
98691.136168227909366
98691.170485891590943
98691.209159204401658
98691.25319977325853
98691.302837884271867
98691.357445166257094
98691.415669372509001
98691.475819941275404
98691.536324920132756
98691.596211164302076
98691.655307274442748
98691.714250971286674
98691.774188870607759
98691.836318210989702
98691.901592418900691
98691.970566151925595
98692.043272071241518
98692.119358952535549
98692.198235484378529
98692.279173379254644
98692.361446336290101
98692.444323225077824
98692.527207038394408
98692.609715608530678
98692.691764404473361
98692.773695806550677
98692.856181564144208
98692.940078637286206
98693.026186365634203
98693.115065464648069
98693.206968336118734
98693.301885567518184
98693.399617088580271
98693.499755542856292
98693.601675982296001
98693.704609027743572
98693.807704630293301
98693.910080517511233
98694.010929286261671
98694.109626620847848
98694.205869875906501
98694.299768296812545
98694.39184451525216
98694.482972484518541
98694.574183669319609
98694.666423294416745
98694.760263527117786
98694.855727297515841
98694.952263451952604
98695.04880731733283
98695.143984732887475
98695.236433507103357
98695.325178599654464
98695.409973661138793
98695.491405567634501
98695.570729436498368
98695.649562794424128
98695.729493386927061
98695.811679752994678
98695.896539757886785
98695.983731911896029
98696.072412612236803
98696.161597908634576
98696.250511291946168
98696.338770813119481
98696.426440239112708
98696.513897342578275
98696.601489472071989
98696.689270950053469
98696.776812450261787
98696.863247647270327
98696.947519447625382
98697.028616165858693
98697.105919276160421
98697.179363867413485
98697.2494562738284
98697.317028936871793
98697.383016424049856
98697.448116336308885
98697.5127758692106
98697.577214311735588
98697.641522315490874
98697.705698494362878
98697.769747371421545
98697.83380467587267
98697.897926561898203
98697.962112370223622
98698.026345043253968
98698.090492933595669
98698.154446945802192
98698.218328185685095
98698.282697025904781
98698.348601711579249
98698.417382346728118
98698.49041191895958
98698.568843509390717
98698.653257072335691
98698.743535911940853
98698.839000952997594
98698.938550639446476
98699.040972783914185
98699.145246184751159
98699.250759258749895
98699.357453519158298
98699.465867103877827
98699.577081541297957
98699.692522482422646
98699.813792834305787
98699.94259633756883
98700.080678874044679
98700.229796829808038
98700.39171102574619
98700.568066885083681
98700.760207421757514
98700.969110293954145
98701.195324620901374
98701.438979611935792
98701.699890952833812
98701.977706091434811
98702.272057390335249
98702.582697437435854
98702.909580933075631
98703.252848034506314
98703.612753069290193
98703.989557524575503
98704.383489488158375
98704.794689562564599
98705.223175855076988
98705.668907194049098
98706.131936315156054
98706.612483366159722
98707.111029645107919
98707.628328617516672
98729.582490986562334
98731.010399660633993
98730.941680047049886
98730.869760191810201
98730.87342962337425
98730.802956563406042
98730.648286970332265
98730.423574911153992
98730.171432199887931
98729.862830346333794
98729.518164894616348
98729.223594739538385
98728.9399994253763
98728.571773121831939
98728.131399235033314
98727.69125074268959
98727.263102642216836
98726.816017246470437
98726.343617635575356
98725.836486284577404
98725.30132700613467
98724.774629419087432
98724.277638002982712
98723.801630809888593
98723.317430750030326
98722.807054507240537
98722.280544867127901
98721.75757558803889
98721.261031482368708
98720.795361180120381
98720.333278093356057
98719.838264658072148
98719.306871294698794
98718.769633058473119
98718.253590135718696
98717.759014945608214
98717.281708644237369
98716.828878874774091
98716.40778843521548
98716.003543008861016
98715.595983878331026
98715.187093351123622
98714.795622717792867
98714.420771533448715
98714.045509413001128
98713.66744634056522
98713.302369743643794
98712.95274411108403
98712.607838661482674
98712.263968562649097
98711.925201770354761
98711.591084853222128
98711.256706871296046
98710.919468125197454
98710.577556268050103
98710.227633083835826
98709.878386075579328
98709.541967954850406
98709.218757374721463
98708.890181745489826
98708.537528562897933
98708.163715454080375
98707.793994427614962
98707.444924163559335
98707.111822739956551
98706.774031594206463
98706.418860293211765
98706.051247165960376
98705.686825983604649
98705.338727816342725
98705.006996977550443
98704.686479158423026
98704.374808581676916
98704.067523249585065
98703.75761986663565
98703.441264756023884
98703.124661941445083
98702.819510167595581
98702.532523520683753
98702.259309803805081
98701.990305076484219
98701.718043264263542
98701.446493137744255
98701.185873971204273
98700.941642120029428
98700.70817657961743
98700.473082002237788
98700.228102861670777
98699.97385764795763
98699.716561532841297
98699.463138671271736
98699.216796904904186
98698.974842905037804
98698.730216510870378
98698.477636584240827
98698.219516602446674
98697.962675169954309
98697.710735295637278
98697.46071431672317
98697.204607824591221
98696.940048213858972
98696.673893693834543
98696.418197046208661
98696.181075934960973
98695.96072134518181
98695.748106816448853
98695.535395522878389
98695.320969498585328
98695.106423939578235
98694.89003395709733
98694.666162876223098
98694.430365108783008
98694.185326750783133
98693.93883683909371
98693.697913163414341
98693.465002453624038
98693.238603333476931
98693.017163804368465
98692.802015258581378
98692.596626830883906
98692.404582356655737
98692.22809023152513
98692.067441861116095
98691.920479465872631
98691.782178424109588
98691.646343743894249
98691.508791480970103
98691.369728278630646
98691.232450682655326
98691.10047606950684
98690.975409400751232
98690.857027935038786
98690.744892954244278
98690.63856826670235
98690.535286477112095
98690.430102612677729
98690.319490770780249
98690.203979432873894
98690.087644166400423
98689.976010596365086
98689.874410642907606
98689.786718401723192
98689.714220525536803
98689.655366446299013
98689.605672284626053
98689.559276975676767
98689.512270751976757
98689.463596419533133
98689.414485752262408
98689.366472366644302
98689.31896646405221
98689.268849432002753
98689.211955590348225
98689.145796824028366
98689.071229466993827
98688.991389384551439
98688.909334385054535
98688.826609581679804
98688.743545674660709
98688.659743343159789
98688.574937816054444
98688.489654983990476
98688.405343787468155
98688.324040827239514
98688.247783789949608
98688.176828284937073
98688.107919847636367
98688.035105476359604
98687.952954356529517
98687.859642884286586
98687.758296945219627
98687.655334820898133
98687.556690362369409
98687.465108990320005
98687.38021352852229
98687.300653037542361
98687.22668791905744
98687.161132151653874
98687.107611819097656
98687.068011323543033
98687.041156280509313
98687.023176908871392
98687.008799460396403
98686.993264502190868
98686.973952032276429
98686.950703323236667
98686.925398576611769
98686.900740713870618
98686.879091133014299
98687.335122952252277
98687.398870027580415
98687.456290091999108
98687.506674755451968
98687.548456998425536
98687.57955937544466
98687.598594598515774
98687.606502346563502
98687.606965773462434
98687.605413672194118
98687.607059349771589
98687.614870553574292
98687.628657740438939
98687.645827180327615
98687.663097611031844
98687.678392787391203
98687.691926713028806
98687.705986717453925
98687.723868196568219
98687.748526264476823
98687.781591737046256
98687.822827538358979
98687.87021782262309
98687.920461575165973
98687.969854450057028
98688.015100147866178
98688.053970719163772
98688.085620763115003
98688.110579242042149
98688.130568973516347
98688.147984227514826
98688.165565274422988
98688.185845115207485
98688.210764553718036
98688.241512761378544
98688.278221562708495
98688.319687534080003
98688.363751945624244
98688.408110196207417
98688.451165821985342
98688.492427994089667
98688.532416365880636
98688.572197599409265
98688.612653963326011
98688.653850517352112
98688.694882338037132
98688.734207324465388
98688.770367907374748
98688.802918472967576
98688.832995997581747
98688.863545019761659
98688.898596502462169
98688.941879798701848
98688.995446743792854
98689.058874277718132
98689.129380640471936
98689.202681159746135
98689.274296603674884
98689.340696310129715
98689.400044739857549
98689.452271583199035
98689.498641544108978
98689.541109049168881
98689.58168589512934
98689.622168831789168
98689.664165134730865
98689.709024954572669
98689.757594052309287
98689.809980285761412
98689.865639326046221
98689.923747241438832
98689.983630751114106
98690.045076201626216
98690.108151328575332
98690.172662170909462
98690.237693237213534
98690.301440203140373
98690.361610843872768
98690.416377802874194
98690.465267248844611
98690.509554614371154
98690.551787685108138
98690.594654098007595
98690.639790123459534
98690.687046874576481
98690.734391972087906
98690.778647377766902
98690.816500423592515
98690.845956104036304
98690.86691742259427
98690.881209017432411
98690.89186595758656
98690.901745956405648
98690.912755226454465
98690.925502455516835
98690.939344216909376
98690.95305244778865
98690.965653639577795
98690.976909311677446
98690.987319735853816
98690.997747429530136
98691.008789527972112
98691.020275568836951
98691.03108047968999
98691.03966758713068
98691.044560839611222
98691.045044913233141
98691.041518815225572
98691.035459001344861
98691.028965688339667
98691.024198184153647
98691.022906482816325
98691.026325119310059
98691.035238865602878
98691.05001296311093
98691.070580879590125
98691.09642246569274
98691.126542479658383
98691.159585104935104
98691.194164768065093
98691.229346791049466
98691.26491959305713
98691.301503759270418
98691.340348642013851
98691.38287088467041
98691.430143066754681
98691.482493613657425
98691.539400082037901
98691.59965024520352
98691.6616955785139
98691.724200914759422
98691.786475018874626
98691.848694509753841
98691.911651844158769
98691.976384710738785
98692.043858067059773
98692.114727370790206
98692.189176367377513
98692.266995008001686
98692.347707021515816
98692.430711288398015
98692.515428282145876
98692.6013319081394
98692.687945524477982
98692.774811592622427
98692.861592244618805
98692.948202408777433
98693.034899582184153
98693.12232231310918
98693.211361024528742
98693.302949102013372
98693.397866374769364
98693.496590745693538
98693.599231214277097
98693.7054652559018
98693.814631204804755
98693.925726787507301
98694.037604794051731
98694.14922012622992
98694.259700082300697
98694.368382808941533
98694.474917964631459
98694.579226659654523
98694.681475081248209
98694.782096365466714
98694.881768194274628
98694.981351816342794
98695.081715731954318
98695.183544215295115
98695.28714218136156
98695.392266740833293
98695.49817131421878
98695.603753966119257
98695.707816926631494
98695.809424008810311
98695.908199308512849
98696.004499765083892
98696.099315956773353
98696.193989317587693
98696.289855011098552
98696.387825892874389
98696.488159979562624
98696.590420502965571
98696.693802246678388
98696.797506198199699
98696.901026160005131
98697.004288278942113
98697.107607442085282
98697.211546297563473
98697.3166390205879
98697.42307653867465
98697.530553678050637
98697.638222088688053
98697.74491324495466
98697.849385819179588
98697.950638866313966
98698.048147203982808
98698.141948772667092
98698.232566548656905
98698.320698935742257
98698.407140779891051
98698.492528053102433
98698.577487981921877
98698.662551306988462
98698.748276570346206
98698.835027777298819
98698.922939935480827
98699.01216609297262
98699.102728117795778
98699.194520821081824
98699.28754273794766
98699.381992864364292
98699.478225474682404
98699.57679526899301
98699.678539717118838
98699.784456671608496
98699.895392393664224
98700.011868862173287
98700.133932143377024
98700.261117875459604
98700.392638159144553
98700.527618988067843
98700.665249018595205
98700.805052790747141
98700.94705052205245
98701.091734490080853
98701.24001459297142
98701.393147037713788
98701.552516230658512
98701.719498140417272
98701.89542212971719
98702.081585413092398
98702.279326560397749
98702.490051238448359
98702.7151919399912
98702.956134988256963
98703.214009051662288
98703.489536413297174
98703.782999416260282
98704.094334145935136
98704.423261813877616
98704.76943077451142
98705.132576922580483
98705.512614495790331
98705.909637073345948
98706.323817184267682
98706.755231000715867
98707.203770082676783
98707.669154428149341
98708.151004236860899
98708.648936038225656
98709.162677766478737
98709.692236416420201
98710.238041191434604
98710.80100857859361
98711.382491310141631
98730.911294899473432
98731.786031902825925
98731.55763820069842
98731.358370118585299
98731.242823343505734
98731.142464518416091
98730.926841812673956
98730.605914938685601