#              y        d.bubbles                p       alpha.air1       alpha.air2       alpha.air3    alpha.bubbles
           0.015    0.00305600394       107387.698   2.40815511e-37   7.40977192e-46   1.02301288e-47            3e-06
           0.025    0.00305600394       107286.949   1.40325697e-42   1.24007551e-51   2.55156461e-55            3e-06
           0.035    0.00305600394       107186.199   2.27196311e-16   2.02638756e-25   4.32878913e-29            3e-06
           0.045    0.00300031767       107102.601      0.341067074   3.04201276e-10    6.4983777e-14      0.341069074
           0.055    0.00300095646        107035.05       0.31902374   3.10858107e-08   1.25830056e-13       0.31902574
           0.065    0.00300160001       106966.509      0.321152393   1.81857882e-07   2.21514355e-13      0.321154393
           0.075    0.00300224374       106898.053       0.32069425   6.32794104e-07   4.59344134e-13       0.32069625
           0.085    0.00300288795       106829.582      0.320862291    1.2529824e-06    9.5453331e-13      0.320864544
           0.095    0.00300353259        106761.13      0.321054136    2.8181704e-06   3.04248357e-12      0.321057954
           0.105    0.00300417754       106692.698      0.321267377    5.8426499e-06   1.00344081e-11       0.32127422
           0.115    0.00300482278       106624.289      0.321483638   1.10842216e-05   3.03765092e-11      0.321495722
           0.125    0.00300546828       106555.902      0.321699056   1.95474837e-05   8.32031467e-11      0.321719603
           0.135    0.00300611402       106487.537      0.321910873   3.24921869e-05   2.08080508e-10      0.321944365
           0.145    0.00300675998       106419.195       0.32211719   5.14421672e-05   4.81001679e-10      0.322169632
           0.155    0.00300740614       106350.876      0.322316075   7.81907694e-05   1.03925528e-09      0.322395266
           0.165    0.00300805248        106282.58      0.322505432   0.000114801427   2.11835015e-09      0.322621234
           0.175    0.00300869898       106214.306      0.322682921   0.000163603147   4.10474999e-09      0.322847524
           0.185    0.00300934563       106146.055       0.32284596   0.000227181025   7.60870741e-09      0.323074141
           0.195    0.00300999241       106077.828      0.322992028   0.000308363274   1.35619922e-08      0.323301392
           0.205    0.00301063931       106009.622      0.323116495    0.00041019722   2.33453939e-08      0.323527692
           0.215    0.00301128631        105941.44      0.323218526   0.000535959606    3.8953593e-08      0.323755486
           0.225    0.00301193338       105873.283      0.323338122   0.000689069277   6.31958749e-08      0.324028192
           0.235    0.00301258057        105805.15      0.323353388   0.000873073312   9.99465234e-08      0.324227461
           0.245    0.00301322786       105737.037      0.323346196    0.00109172544   1.54459217e-07      0.324438922
           0.255    0.00301387525       105668.947      0.323314927    0.00134885565   2.33721424e-07      0.324664783
           0.265    0.00301452272       105600.879      0.323244149    0.00164831987   3.46873756e-07      0.324893469
           0.275    0.00301517027       105532.835      0.323127219    0.00199402355   5.05707861e-07      0.325122242
           0.285    0.00301581791       105464.813      0.322960389    0.00238988802   7.25233008e-07      0.325351277
           0.295    0.00301646565       105396.815      0.322739668    0.00283980658    1.0243111e-06      0.325580499
           0.305     0.0030171136        105328.84      0.322461372    0.00334761808   1.42637164e-06      0.325810416
           0.315    0.00301776167       105260.888      0.322121487    0.00391707447   1.96020418e-06      0.326040522
           0.325     0.0030184099       105192.959       0.32171644    0.00455182731   2.66083837e-06      0.326270928
           0.335    0.00301905828       105125.053      0.321242624    0.00525539115   3.57048965e-06      0.326501586
           0.345    0.00301970685       105057.171      0.320696705    0.00603112526   4.73959062e-06       0.32673257
           0.355     0.0030203556       104989.312      0.320075454    0.00688220552   6.22788572e-06      0.326963888
           0.365    0.00302100455       104921.476      0.319375791    0.00781160545   8.10560131e-06      0.327195502
           0.375    0.00302165374       104853.664      0.318594869    0.00882208077   1.04546828e-05      0.327427404
           0.385    0.00302230315       104785.875      0.317730075    0.00991615244   1.33700865e-05      0.327659598
           0.395    0.00302295283       104718.109      0.316779017     0.0110960922   1.69611244e-05      0.327892071
           0.405    0.00302360278       104650.367      0.315739556     0.0123639094   2.13528474e-05      0.328124818
           0.415    0.00302425301       104582.648      0.314609818     0.0137213415   2.66874677e-05      0.328357847
           0.425    0.00302490355       104514.953      0.313388197     0.0151698443   3.31257982e-05      0.328591168
           0.435    0.00302555441       104447.281      0.312073356     0.0167105842   4.08487014e-05      0.328824789
           0.445    0.00302620561       104379.633      0.310664227     0.0183444323   5.00585399e-05      0.329058718
           0.455    0.00302685715       104312.008      0.309160008     0.0200719635   6.09806282e-05      0.329292952
           0.465    0.00302750906       104244.407      0.307560173     0.0218934528   7.38646415e-05       0.32952749
           0.475    0.00302816135        104176.83      0.305864466     0.0238088778   8.89860176e-05       0.32976233
           0.485    0.00302881403       104109.276      0.304072908     0.0258179215   0.000106647308      0.329997476
           0.495     0.0030294671       104041.746      0.302185788     0.0279199756   0.000127179467      0.330232943
           0.505     0.0030301206        103974.24      0.300203661     0.0301141431   0.000150943054      0.330468747
           0.515    0.00303077451       103906.758      0.298127333     0.0323992415   0.000178329338      0.330704904
           0.525    0.00303142887       103839.299      0.295957853     0.0347738076   0.000209761298      0.330941422
           0.535    0.00303208366       103771.864      0.293696497     0.0372361043   0.000245694514      0.331178296
           0.545     0.0030327389       103704.453      0.291344761     0.0397841295   0.000286617953      0.331415508
           0.555     0.0030333946       103637.066      0.288904351     0.0424156268   0.000333054638      0.331653033
           0.565    0.00303405076       103569.703      0.286377179     0.0451280978   0.000385562191      0.331890839
           0.575    0.00303470739       103502.364      0.283765348     0.0479188135    0.00044473322      0.332128895
           0.585    0.00303536449       103435.049      0.281071148     0.0507848253   0.000511195534      0.332367169
           0.595    0.00303602206       103367.758      0.278297035     0.0537229748   0.000585612156      0.332605622
           0.605     0.0030366801       103300.491      0.275445625     0.0567299028   0.000668681113      0.332844209
           0.615    0.00303733863       103233.248      0.272519681     0.0598020616   0.000761135106      0.333082877
           0.625    0.00303799763       103166.029       0.26952208     0.0629357387   0.000863741335      0.333321561
           0.635    0.00303865711       103098.834      0.266455823     0.0661270688   0.000977300868      0.333560192
           0.645    0.00303931707       103031.663      0.263324024     0.0693720504    0.00110264796      0.333798722
           0.655     0.0030399775       102964.516      0.260129911     0.0726665696    0.00124064945       0.33403713
           0.665    0.00304063842       102897.394      0.256876816     0.0760064149    0.00139220383      0.334275435
           0.675    0.00304129982       102830.295      0.253568163     0.0793872849    0.00155823986      0.334513687
           0.685    0.00304196171        102763.22      0.250207441      0.082804788    0.00173971463      0.334751944
           0.695    0.00304262407       102696.169      0.246798179     0.0862544377    0.00193761121      0.334990228
           0.705    0.00304328692       102629.142      0.243343904     0.0897316472    0.00215293582      0.335228487
           0.715    0.00304395022        102562.14       0.23984813     0.0932317083    0.00238671355      0.335466552
           0.725    0.00304461398       102495.161      0.236314346     0.0967497689    0.00263998324      0.335704098
           0.735    0.00304527816       102428.206      0.232745805      0.100280905    0.00291380027      0.335940511
           0.745    0.00304594277       102361.275      0.229145683      0.103820312    0.00320924413      0.336175239
           0.755    0.00304660782       102294.367      0.225517641      0.107363439    0.00352741737      0.336408497
           0.765    0.00304727332       102227.483      0.221865478      0.110905834     0.0038694382       0.33664075
           0.775    0.00304793927       102160.622      0.218192854      0.114443032    0.00423643409      0.336872321
           0.785    0.00304860567       102093.785      0.214503398      0.117970597    0.00462953945      0.337103535
           0.795    0.00304927252       102026.971      0.210800678      0.121484113    0.00504989157      0.337334683
           0.805    0.00304993982        101960.18      0.207088164      0.124979176     0.0054986263      0.337565966
           0.815    0.00305060756       101893.412      0.203369209      0.128451389    0.00597687387      0.337797472
           0.825    0.00305127573       101826.668      0.199647048      0.131896368    0.00648575493      0.338029172
           0.835    0.00305194431       101759.947      0.195924789      0.135309757    0.00702637721      0.338260923
           0.845     0.0030526133        101693.25      0.192205418      0.138687232    0.00759983169      0.338492482
           0.855    0.00305328266       101626.576      0.188491821      0.142024496    0.00820718503      0.338723502
           0.865    0.00305395239       101559.925      0.184786755      0.145317247    0.00884947191      0.338953474
           0.875    0.00305462245       101493.297      0.181092637      0.148561191    0.00952770428      0.339181532
           0.885    0.00305529286       101426.692      0.177411938      0.151752377     0.0102428915      0.339407206
           0.895    0.00305596361        101360.11      0.173747503       0.15488738     0.0109960446      0.339630928
           0.905     0.0030566347        101293.55      0.170102109      0.157962945     0.0117881524      0.339853206
           0.915    0.00305730614       101227.013      0.166478357      0.160975889     0.0126201713      0.340074418
           0.925     0.0030579779       101160.498      0.162878749      0.163923165     0.0134930249       0.34029494
           0.935       0.00305865       101094.005      0.159305652      0.166801822     0.0144075975      0.340515072
           0.945    0.00305932241       101027.534      0.155761262      0.169608965     0.0153647263      0.340734953
           0.955    0.00305999512       100961.085      0.152247584      0.172341719     0.0163651934      0.340954497
           0.965    0.00306066811       100894.659      0.148766418      0.174997206     0.0174097175      0.341173342
           0.975    0.00306134136       100828.254      0.145319364      0.177572537     0.0184989487       0.34139085
           0.985    0.00306201487       100761.872      0.141907814      0.180064884     0.0196334843      0.341606182
           0.995    0.00306268862       100695.511      0.138533159      0.182471747     0.0208138981      0.341818804
