/*--------------------------------*- C++ -*----------------------------------*\
  =========                 |
  \\      /  F ield         | OpenFOAM: The Open Source CFD Toolbox
   \\    /   O peration     | Website:  https://openfoam.org
    \\  /    A nd           | Version:  12
     \\/     M anipulation  |
\*---------------------------------------------------------------------------*/
FoamFile
{
    format      ascii;
    class       volScalarField;
    location    "0.00518";
    object      k;
}
// * * * * * * * * * * * * * * * * * * * * * * * * * * * * * * * * * * * * * //

dimensions      [0 2 -2 0 0 0 0];

internalField   nonuniform List<scalar> 
75962
(
3.9655900517088902191e-05
5.3432435842155090477e-05
8.3272774375628858348e-05
0.00011046480254533023199
0.00012195772955395206539
0.0001277284938187004705
0.00013947694211616197069
0.0001740252582766134632
0.00022086429269865980236
0.0002499919626880259477
0.00026998927251649541955
0.00030402405637650243989
0.00035461404636490649221
0.00040739675508206450163
0.00045370518912916994693
0.0004940413142986553206
0.00053768234717435983705
0.00059713959892087481191
0.00066950072253974359567
0.00073227990664868913579
0.0007678865454888437244
0.00079049341551503890264
0.000829714904506816185
0.00089388899717899586092
0.00096957042399221655526
0.0010353814519536788403
0.0010784108338917314067
0.0011069934037966563944
0.0011484179956190803361
0.0012336620981790249758
0.001367223073152041158
0.0015178298717314498822
0.0016446014905190800906
0.0017327140933153461176
0.0017982220108065185855
0.0018589941400479757013
0.0019137622098658628109
0.0019506937219626360302
0.0019700557965570660371
0.0019892988262813805778
0.0020295844256335436769
0.00214072466817982884
0.0023197739449741165522
0.0024591051050492571117
0.0025344680194344920005
0.0025790914306369097479
0.0026602386757423792524
0.0029008988035521799352
0.0034070628880300359888
0.0037761252677210206674
0.0039404087557151764795
0.0039724769144410055147
0.003966298553056648267
0.0039384932261434411546
0.003922891755448783789
0.0039216580851436314697
0.0039301344212515762142
0.0039790466809713209706
0.0041639971501648562549
0.0043960030438821183149
0.0045122439446030650212
0.0045357210104974201442
0.0045303856374488225139
0.0045328207451917354801
0.0045861127258672402737
0.0047961387527874800585
0.0050634657064933625767
0.0052792337246206806622
0.0054621386771888415235
0.0056077459054287778772
0.0057012300984109797256
0.0057451297857862232768
0.0057777549896068404467
0.005848000833017731083
0.0060843142711114748047
0.006776014720507828222
0.007414691527170231243
0.0077328541114564022102
0.0078111954121645368193
0.0078028832323934873075
0.0077728617489421858791
0.0077787581238138283138
0.0078774777550414398775
0.0083070434555489024858
0.0088699894220979451365
0.0091866975973746902578
0.0092910601396577162381
0.0092961147021637709903
0.0092805981237109851784
0.0092879290366991665989
0.0093823975805648832799
0.0095069789245570725245
0.0095259824851650562461
0.0094823872812385863462
0.0093236844810432994296
0.0092483275778134400869
0.0092527903437554064048
0.0093479852661813005871
0.009635269818079989293
0.0098438220244747784426
0.0099363427634872672489
0.0099667601775494038541
0.009971861581858348228
0.0099714642511460199747
0.0099665348708521499244
0.009949287048670069078
0.0099106828719594374649
0.0098800425882290456719
0.0098637904121329934154
0.0098588435324354611183
0.0098600915142304790262
0.0098755609365555989398
0.0099457916735499769106
0.010099737660249597307
0.010218494369161753091
0.010307654626481350599
0.010398298556486973085
0.010513701432335195718
0.010653830673568837409
0.010799161921369032982
0.010922537909538610618
0.011007137993225977329
0.011052966325652028787
0.011076477264112863028
0.011102832952460948632
0.01115758582362614583
0.011296588150626328886
0.011511266401571889489
0.011725727547655115726
0.011910493449513937653
0.012053720651274833081
0.012163350781863436698
0.012260369984038852267
0.012366245398841676367
0.012491231593302018835
0.012633295135155769504
0.012777249048940239953
0.012904621785521735999
0.013003369824601150248
0.013072607164231449597
0.013124302148607639232
0.013180085810295975521
0.013261431923570970309
0.013383103078083075088
0.013547541689203778867
0.013744820332680018557
0.013956052298597657058
0.014158808182080999741
0.014334824683316602437
0.014472810419258089198
0.014572790678173923665
0.014642430760876902832
0.014695817194945403478
0.01474899387955221769
0.014817031105401220342
0.0149089561303498222
0.015027189083944373846
0.015169005169109732456
0.015324751384321481928
0.015483764307891886153
0.015634915837436924591
0.015768563782926965644
0.015881263371757013692
0.015972699036677688589
0.016048232264074775016
0.016116520419977443945
0.016186233027747628371
0.016265486414230489326
0.016361207271394364454
0.016477059228058411194
0.016612815595554612097
0.01676453597515352445
0.016927559687246320624
0.017096682866583310517
0.017264066160478812317
0.01742323753138727907
0.017569293422770953378
0.017697223588666960437
0.017805007290912115009
0.017892118407484967901
0.017959081497279538731
0.01800714340434804786
0.018038586027396472794
0.018057060376924252004
0.018065892538216086344
0.01806882374372932934
0.018069017249389144469
0.018068444234623073918
0.017283762926964856693
0.01726462208165284104
0.017246211915321812275
0.017228395538036851697
0.017210625931632382579
0.017192720782876553393
0.017174838114705891917
0.017157118372075872564
0.017139388512057575353
0.017121578198411369076
0.017103869056810550031
0.017086508112734041104
0.017069333091880484893
0.017052068992082964477
0.017034570734938702524
0.017017004884987401575
0.01699936239078657027
0.016981657433616011849
0.016963976277605111176
0.016946747474509728237
0.016929936277232656566
0.016913217493131377234
0.016895766958683326731
0.016877408413586054287
0.01685810105599875805
0.01683865025009794944
0.016819493832116248766
0.016801525876421384564
0.016784588145798307046
0.016768649618644205362
0.016752446959487715672
0.016735757583357636913
0.016717970160526798851
0.0167001152565819308
0.016682201345873337583
0.016665054834973755393
0.01664786758379001308
0.016630889741037893637
0.016613172053726369543
0.016595291525313499159
0.016576645805578351517
0.016558203123259153389
0.016539359971674966188
0.016520996047759202441
0.01650201959732786744
0.016483265131713942253
0.016463683743742237725
0.016444466403557053691
0.016424636654369703659
0.016405512305313587479
0.016386166792244288154
0.016367765799037002628
0.016348899913481443336
0.016330532214021892257
0.016311489603675656535
0.016293325004859009891
0.01627503709610036986
0.016258001035239395826
0.016240977427050079518
0.016225200414131099591
0.016209108392047779507
0.016193512994199219662
0.016176598485576478698
0.016159656344773839359
0.016141302347249204818
0.016123232247374566506
0.016103987718582103705
0.016085292462911768979
0.016065759231109814215
0.016047216156586916608
0.016028052997273629227
0.016009791751274416588
0.015990409626818025135
0.015971667004676892709
0.015951928473645123757
0.015933445119945106871
0.015914529490454645821
0.015897067627123510208
0.015878984259014947145
0.015861947300613157136
0.015843795037844374263
0.015826220060965102976
0.015807126577747750151
0.015788571881148211196
0.015769027945634957188
0.015750917758433298499
0.015732675118213784032
0.01571601354763955613
0.015698792911420421381
0.015682395438494072665
0.015665145882975049091
0.015648666486539921511
0.015631477378163470549
0.015614930535356818728
0.015597457638898656537
0.015580396008939042043
0.015562164997213344744
0.015544164056782147632
0.015524906280386597396
0.015506203993092914847
0.01548694742014001223
0.015469129491819905847
0.015451102399542570448
0.015434280645601861776
0.01541634878989666356
0.015398933111238556626
0.01538012197503795149
0.015362266933287732976
0.015343775439491990145
0.015326934591456330484
0.015309729348008210142
0.015293914232999269651
0.015277254062446217128
0.015261428601968529337
0.015244353692524111391
0.01522766829311628968
0.015209431356134801155
0.015191494861420101747
0.015172415399906628505
0.015154212895230985067
0.015135451125839097242
0.01511783670169215138
0.015099762944685072436
0.015082598981874983241
0.015064817848142897372
0.015047700402682960552
0.01503013135628980361
0.015013491969256203412
0.014996543553216211755
0.014980140880997921612
0.014962968273887081519
0.014945833831674691303
0.014928170429823644713
0.014910876023402934096
0.014893710168023174475
0.014877416076454822585
0.014861573499329048045
0.014846628796940201933
0.014831462504918067544
0.014816556432540067823
0.014800727655865819621
0.014785236262419156061
0.014769073783732001789
0.01475373551681507904
0.014737857643904759414
0.014722759084679013994
0.014706810084193451538
0.014691294873359688963
0.014674681693448139372
0.014658486299587464297
0.014641622569960115532
0.014625378022703808961
0.014609099173865068566
0.014593331900413038585
0.0145778470794524391
0.014562568450007869203
0.01454716085618465958
0.014531571568903436584
0.014515096545948952614
0.014498805774707513444
0.014481481009725818282
0.014465034797083187526
0.01444773332193295505
0.014431256485574587428
0.014414318588285643039
0.014397756035730267105
0.014381361141593367731
0.014365315822529057047
0.014349774022519990249
0.014334842299773874544
0.014319924455908277644
0.014305285687946997161
0.014290178873118062827
0.014274671311165951573
0.014258878148180673465
0.014242165700927105626
0.014225555294936118034
0.014208151232697292451
0.014191261652988257369
0.014174280269473290075
0.014158394092753613311
0.014142369636202582056
0.014128057170599670964
0.014112747906106512877
0.014098533722846544672
0.014082900608869984571
0.014067593989298429399
0.014051187898310829941
0.014035751729461655099
0.014019428084635339113
0.014005046461877669953
0.0139893134788782042
0.013975771140552683755
0.013960468233623981454
0.013947372120051917607
0.01393222054661916523
0.013919506156420015722
0.013904569235353627515
0.013892124587705655461
0.013877392143412976486
0.013865242285561091978
0.013850773910788529916
0.01383892678876446139
0.013824949149830031633
0.013813345935230472369
0.013798978220726999117
0.013786629661012248307
0.013771001612369255726
0.013757479498405025126
0.013741581652857005544
0.013728676574628246448
0.013713779521824969246
0.013702492062257178723
0.013688628852000197383
0.013678395869691066869
0.013665144430887440907
0.013655380146986173182
0.013641968660610325967
0.013632050507700919223
0.013617897705543696718
0.013607409315677183176
0.013592792388095960993
0.013581741638353326401
0.013566766754349930679
0.013555123564747599899
0.013539901647626279013
0.013528193624823029242
0.013512936132454890503
0.013501445188069586753
0.013486252287530019547
0.01347506111447329194
0.013460511261633780269
0.013450236199841553858
0.013436725830278930735
0.01342737334974289376
0.013414132191228745131
0.013405237591538414141
0.013392068315217869195
0.013383235259253962318
0.013370030597316149429
0.013361145483282306154
0.013347417460527220834
0.013338335864372786663
0.013324724308356804964
0.013315735436854332641
0.013302311611504068559
0.013293530716643423006
0.013280185401563506312
0.013271418532458643252
0.013258321423878921541
0.013250104411485989775
0.013237527550105945839
0.013229545000245691161
0.013217373136243200024
3.107142342294519897e-05
4.5424753790609213519e-05
7.3178968601895152154e-05
0.00010606795838202746495
0.00012957968296507289688
0.00014888292584546220149
0.00017178775103250887519
0.00019396781965192475081
0.00021574618242984223287
0.00024748734165957569616
0.00029267833632675604224
0.000342439777774477031
0.00038573135374971956411
0.00042572818363264690366
0.00047446672412445630015
0.00053374420057366049521
0.00059482044056584923788
0.00065542288052821394157
0.00071528980041767856353
0.00076344970227949988158
0.00079160890090723538305
0.00081514817846919614998
0.00086101393311319054762
0.00093865141749142314183
0.0010292108860302572135
0.0011054275805452635269
0.0011526345285671529741
0.0011769304087122607269
0.0012004323055862242686
0.0012490509453543449658
0.0013674078942137082426
0.0015320457725259400278
0.0016854399026443569933
0.0018034405260404348572
0.0018843479319186908459
0.001938836863442576974
0.0019753717842231587054
0.0019983263819364181779
0.0020176080273382008753
0.002050829149597921397
0.0021272072643377711726
0.0022920265110653076542
0.0024740199247283859232
0.0026197598282612973714
0.0027010790452892292912
0.0027417376258237475921
0.002803709269425819911
0.0029769365328802506812
0.0034294968084708854841
0.0038278955354706331073
0.0040307358885365816847
0.0040870441972939595618
0.0040879819025675702415
0.0040747048721338757077
0.0040666888412330248065
0.0040679932279230465383
0.0040797956625488115967
0.0041309709259803335107
0.004307079072127972981
0.0045239674048014348259
0.0046474283795523664217
0.0046858332906414990743
0.0046875748036362451313
0.0046894969553474162224
0.0047205154003343227642
0.0048695459445958558242
0.0051854562120461026448
0.005476841585534604831
0.0057334417642126329906
0.0059363681240365857167
0.0060637786344466476987
0.0061203388223328610007
0.0061519036006474825048
0.0062155705366417762781
0.0064216044181557990767
0.0070032373624480436305
0.0075445061617836796375
0.0078249158109016288265
0.0079004590490654880847
0.0078976534987634273988
0.0078888519610969230766
0.0079189676006182346812
0.0081314235067925684508
0.0088158432988358504528
0.0094445619930413858556
0.0097658852760521240588
0.0098561631007802238263
0.0098539347758855536791
0.009834881124712736844
0.0098524183245222215349
0.0099978245138834520578
0.010166472502688875951
0.010194752115528324388
0.010148873776784701761
0.0099680639730512724667
0.0098742530336494178239
0.0098769617569228439213
0.009980910527514595329
0.010304875800594621646
0.010535079346705304368
0.010629568191998955626
0.010653497185947794976
0.010655473986714672149
0.010651735807704437037
0.01063347654379038533
0.010571948968051178563
0.010500227869266194614
0.010461384974042947649
0.010450239970281893082
0.010453286400601412287
0.010482999376070563369
0.010571370208504087332
0.010636189219471148606
0.01067348963629920558
0.010720479352525381922
0.010806576459956791433
0.010941412319962645974
0.011108131539097294838
0.01127398322405328418
0.011406622152252252414
0.01149045725199440704
0.011531655447835032977
0.011556300876716277953
0.011596344018631587341
0.011683188992062122288
0.011824194431485466825
0.012000501356283955687
0.012187137356513650863
0.012360458281764487992
0.012508044117909993681
0.012632107209016590552
0.012746476746811799541
0.012868309481288194712
0.013007940361116212408
0.013166518979048141488
0.013334433345768495136
0.013493531588043903083
0.013626036512439465218
0.013721961311530302824
0.013782493368660077987
0.013822763535233312596
0.013865176173422191427
0.013933178371218516919
0.014044587365690440472
0.014206066983327348199
0.014412760108825030739
0.014647169351097010653
0.014884472196673366115
0.015099772706908426781
0.015271687091902222747
0.015391121813406759278
0.015460791308544028638
0.015494964269784026675
0.015515173354677138512
0.015546606741990801406
0.01561711365833516954
0.015739219302548932561
0.015892046868455883546
0.016061656448119600998
0.016235034732027149584
0.016399817980292191733
0.016546152366371094655
0.016670548939633919594
0.016772848835214050622
0.01685926049133773183
0.016938470922405662877
0.017019314405066141016
0.017110175276152866236
0.01721819264677318384
0.017346981496368124587
0.017495470296866398596
0.017660053028945642967
0.017836172857437073563
0.018018371307596644376
0.018197759742370079455
0.018367579825706123464
0.018523058733540744003
0.018658841180450393138
0.018773381771826833792
0.018865886604105555624
0.01893656220203728674
0.018986709478534685019
0.019018602665927815398
0.019036991249874023885
0.019045441924456410487
0.019048402055078822448
0.019049026044609413538
0.019048702860922753916
0.019047702293077010266
0.018209418337927323062
0.018189897149561495143
0.018170488576895828248
0.018151482970170513404
0.018133010230944348468
0.01811495947306826157
0.018096974729481535987
0.018078785659861165702
0.01806035935331881323
0.018041766102416111062
0.01802301655329491617
0.018004112216900212268
0.017985119169219219298
0.017966120251599684149
0.017947163565774547356
0.017928247329703359686
0.017909384893328040428
0.01789048736607751211
0.0178716902595236031
0.017853155116196180174
0.017835218405002389169
0.017817535509409152678
0.01779975484361272578
0.017781195864754430896
0.017761988737127816507
0.017742055360624311294
0.017722033508436534077
0.017702155322633878615
0.017683279879183097516
0.01766531281467969075
0.017648170104860909368
0.017630771938991027237
0.01761289942191650304
0.017594227833945975253
0.017575614091543113188
0.017557167550532475769
0.017539512890577958759
0.01752203372090204575
0.017504706584844917372
0.017486580591846729443
0.017467794972991185914
0.017448013763829720024
0.017428035912907299809
0.017407777113656937307
0.017387838152826916999
0.017367673674295709685
0.017347854158087594456
0.017327910269167610263
0.017308549877818060758
0.017289064839864004552
0.017269940764282138562
0.017250402580837997241
0.017231026831740853256
0.017211118833222262964
0.017191432569729304947
0.01717146473620083727
0.017152181385637281508
0.01713305805302172552
0.017114985925415115292
0.017097430431955384922
0.017080937015579299165
0.017064356019198451131
0.017047653583885609418
0.017029798040738817339
0.017011487308915083233
0.016992223873975937504
0.016972773639551557573
0.016952585909002910319
0.016932520770684283268
0.016912333925884499158
0.016892713509312044101
0.016872959941873089812
0.016853280414521654845
0.01683300583665645056
0.016812747463902981415
0.016792342600343537068
0.016772560637504367598
0.016753083003347560287
0.016734294976462990578
0.016715597089813401949
0.016697083173700971725
0.016678181185723835872
0.016659012105484895944
0.016639305748977987337
0.016619525587102505076
0.016599754550472207298
0.016580744199473178985
0.016562395746405070285
0.016544835388734548814
0.016527278228726037523
0.016509657055332367659
0.01649168570815174803
0.016473732541940400154
0.016455703909659242373
0.016437640219207766412
0.016419288611919161808
0.016400708176147527073
0.016381770217888787233
0.016362519851342949978
0.016342695072474246187
0.016322596907578108133
0.016302515772297219293
0.016283139526606101033
0.016264456241122202118
0.016246228522039923153
0.016227710572957361468
0.016208717181390504269
0.016189120727479997669
0.016169646641592722719
0.016150469578259801784
0.01613226179455832382
0.016114674856777713718
0.016097644543535034184
0.016080588776846906074
0.01606337232053765135
0.01604567777042033988
0.016027396278205652269
0.016008306958415197824
0.015988471339360418866
0.015968288972595688635
0.015948178600943274663
0.015928597994949098005
0.015909593640824084421
0.015891134619112731036
0.015872899651812412414
0.015854801105776888948
0.01583658441343778478
0.015818573096667992023
0.015800695148547504176
0.015783141820992205306
0.015765366666571484916
0.015747403577262411578
0.015728753290703376133
0.015710209229256758695
0.015691524765135706626
0.015673738576835665598
0.0156564169213507208
0.015640168272702148489
0.015624167600072135648
0.015608514016677808856
0.01559242328826891677
0.01557610578735361441
0.015559430542130034403
0.015542683327806781565
0.015525987858486413676
0.015509476547129781923
0.015493121944964426476
0.015476922994494100513
0.015460485872488194045
0.015443786854547933429
0.015426467816687937026
0.015409190463892549067
0.015391550237034290136
0.015374608345447259017
0.015357320607095081497
0.015340823587975126879
0.015323817751032788037
0.015307337050385340718
0.015290216718301609736
0.015273061323472185771
0.015255560487791060623
0.015237938364224122567
0.015220579344534537758
0.015203326361628294663
0.015186191830993294935
0.015169386812258626659
0.015152157615496314805
0.015135716793643255729
0.015118621486142704707
0.015102566663021330107
0.015086106585452814868
0.015070476468673722412
0.015054457218366646201
0.015038964651292410779
0.015022473890829503643
0.015006417973306217933
0.014988679406147314976
0.014971685285262303564
0.014952970945618147477
0.014935601022780039746
0.014917265722045425919
0.014901063205124931779
0.014884106034039085165
0.014869664282004193753
0.014853585766679323205
0.014839157508484017434
0.01482250923828831897
0.014806783056920996139
0.014789190324032773505
0.014773174938887762703
0.01475537617855963643
0.014740245220709446289
0.014723070826318702259
0.014708856557497845818
0.014692361019189525972
0.014678766144197222948
0.014662401543641198284
0.014649131182362015377
0.014632843179783392579
0.014619788993852775999
0.014603665775588057368
0.014590744221736050637
0.014574812644866390679
0.014562129714396958302
0.01454657981529398382
0.014534244233220385695
0.014518641355052418554
0.01450580870841434826
0.014489267986570854643
0.014475493985912440964
0.014458800091751764991
0.014445665588381718242
0.014429959167177021373
0.01441845675093842219
0.014403687072687494999
0.014393161802394428481
0.014378856580260227643
0.014368581122786770396
0.014354011991186401906
0.014343276808877569381
0.014327674477176319603
0.014316286602379107648
0.014300143616363567359
0.014288255535291302309
0.014271876512676220233
0.014259737787209819659
0.014243256635589958414
0.014231006333300093292
0.014214606433458976467
0.014202483688009494983
0.014186079202549479669
0.014174306509919283245
0.014158576011112353199
0.014147766032589671401
0.014132968099240108412
0.0141230053670084333
0.014108533006575964958
0.014098998867825026857
0.014084764637955632383
0.014075647146563209644
0.014061448970070290418
0.014052376005968104586
0.014037853311238534387
0.014028557348357981877
0.014014064156509664291
0.014004655083827505235
0.013990178287679577024
0.013980604026962693137
0.013965769366073067098
0.013956047344663267615
0.013941410227814771822
0.013932162605289512627
0.013918162573583491015
0.013909388868448167506
0.013895809805658786498
4.7488657168954423514e-05
6.0680622113861932881e-05
8.3233931466186917994e-05
0.00010997732790415489976
0.00012745978047549536287
0.00014724382225961247595
0.000174290871476162054
0.00019849501373013728276
0.00022245107756558167209
0.00025899063270721616728
0.00031044156583008038599
0.00036497516355610677653
0.0004068977948033200326
0.00044101941686403348629
0.00048710075435110254715
0.00054993347482765327864
0.0006183333776398325897
0.0006854859675661960014
0.00074959408735956166176
0.00079923322675237305941
0.00082750106300228385477
0.00085089621341058788682
0.00089757285276573673272
0.00097729407230385699143
0.0010654846529673800415
0.00113461023701069935
0.0011750799924836712994
0.0012017984576366143833
0.0012440148463317582481
0.0013398928765370806283
0.0015187559232835629898
0.0017247404778713221543
0.0018997173779682406756
0.0020014575922807998146
0.0020369596250040707119
0.00204347290437843776
0.0020476955852683754143
0.002058173581839782898
0.0020869240046631955948
0.0021671659822889628201
0.0023071936366065586184
0.0024566356337896977889
0.0025919275198254374155
0.002689025526815519429
0.0027411284930407213249
0.0027766395530161749709
0.0028444117788496117889
0.0030424489518066171433
0.0034902988475284438784
0.0038449161471310572095
0.0040255258438365876944
0.0040790246282064995115
0.0040856965775902479715
0.004092415839451609208
0.0041160588170100625982
0.0041887422160356898443
0.0043137914344455524293
0.0044568554998188191635
0.0046015770040988288395
0.0047159394865534188038
0.0047754377733506383
0.0047892836149141543994
0.0047902400491726636333
0.004801201411470611656
0.0048751399525388356901
0.0051646798559364251804
0.0055859341486921626138
0.0059154476689477677315
0.0061573551357001887058
0.0063141048331682237196
0.0063936559430471757645
0.0064240294825090278955
0.0064587236790562890451
0.0065576054102746902941
0.0069363530211418852542
0.0076866293142298135546
0.0081592819061376432171
0.0083277887724118176971
0.0083368226432576422735
0.0082859446587379825128
0.0082424596811085295428
0.0082671491359233122143
0.0084815082717703462606
0.0092207653969612873163
0.0099258395266442894789
0.010279534279331313182
0.010375212231212984498
0.01037153624530399651
0.010356640040376152365
0.010392879038185335802
0.010625064366408733252
0.010867503088639270115
0.010911715354012613277
0.010860882903639472799
0.010631030530312548729
0.010473180512764660929
0.01045376814297111108
0.010497394802522758486
0.010693960506667278196
0.010914986173455419952
0.011061444861614666904
0.011172816649646522685
0.01125977651254729886
0.011316616035503400395
0.011337726035855635529
0.011336900961752934686
0.01131464085943085715
0.011225251892488751632
0.01113594268873306474
0.011098442042999033183
0.011091521298485451652
0.011098870398384063848
0.011147643908943013352
0.011285586830715036918
0.011395430102333197267
0.011452819736819748811
0.011483333617903655408
0.011522239448534844775
0.011607951206300499286
0.01178682148522352223
0.011980648606102616005
0.012151528716920195067
0.0122895535716331019
0.012406784225604310101
0.012520308165178996307
0.012643826729489365118
0.012778482794555536678
0.012916247369717016175
0.013047283082145854152
0.01316800615221162471
0.013280150082410926288
0.01339131698001354287
0.013512448934078170534
0.013651734846494907594
0.013811507610285961301
0.013985040620914915635
0.014161744068694394338
0.014329235148942005493
0.014477875186264466817
0.014605485308714732245
0.014718568662863602131
0.014827689100232825312
0.014946884188427845067
0.015080146551947577055
0.015228848601892981326
0.015387427548972447758
0.015546867969693232633
0.015697558105931850442
0.015831341304525653468
0.015944835370641948641
0.016039025746595363814
0.016122850886662268982
0.016208924319984885365
0.016311600266714694485
0.016441508747945362406
0.016599500248063822627
0.016779027901223809299
0.01696823030804238755
0.017153429729358508904
0.017321968689533822489
0.017467554396238635372
0.017587806927830029052
0.017683700126718094464
0.017761674052832722437
0.017829363397200311686
0.017895812398000872367
0.017969497297023625387
0.018056889071170624528
0.018161346075030778552
0.018286121381082737214
0.018430730663229182714
0.018591944016804778927
0.018763864868960398319
0.018940997846143895617
0.019117238786472742773
0.019286111388319062548
0.019441611842859363168
0.019581839669715859348
0.019705554690945085994
0.019810235093585357169
0.01989667638473675837
0.019964892880106506479
0.020016258213058427118
0.020051835206661511313
0.020075427293912054272
0.020090578153607884654
0.020098347530736328931
0.020102324651655834736
0.020104281121180827413
0.019169944512690956923
0.019150353172936507296
0.01913062188129440247
0.019110908148903073267
0.01909163749187940684
0.019073016001726918883
0.019054596580222932234
0.01903588262996638511
0.019016770315213531173
0.018997465853664744634
0.018977847200543143669
0.018957702167601259147
0.018936910152550022468
0.018915949004479199608
0.018895149650202360675
0.01887493374609538338
0.018854974695938230694
0.01883533107126700995
0.018815683186777332897
0.018796631237609905118
0.018777824870127694107
0.018759336664035439202
0.018740113450997422651
0.018720465560654538789
0.018699968023168988401
0.018679367694264030486
0.018658193893479044223
0.018637435333077340821
0.018617005284722647207
0.018597753549091773639
0.018578574126274772366
0.018559617471535810873
0.018539913453630572221
0.018520553812041370273
0.018500994521684736849
0.018482311378045051392
0.018463552653216683264
0.018445586583034502548
0.018427086905502536307
0.0184085291340799935
0.018388441234458707818
0.018367811458000357638
0.018345910246931738941
0.018324359213604077268
0.01830238807777012644
0.018281511229500474469
0.018260619892618373816
0.018241182260422282579
0.018221612485423588357
0.018203033982443595634
0.018183396539136604392
0.018163949557653800287
0.018142967814438595853
0.018122380390060317812
0.018100813589268821557
0.018080331638022504454
0.018059254825512106868
0.018039548676204990307
0.018019635512104986014
0.018001705135385043244
0.017983666272827936172
0.01796672938879420936
0.017948115532138844003
0.017929530198751163911
0.017909175792394895627
0.017889372133340849386
0.017868026342927847971
0.017847350059993927901
0.017825549481354053399
0.017805218160235385116
0.017784116531259885896
0.017764128620810577114
0.01774251341637338511
0.017721756119770039339
0.017699607451752641385
0.017678925205288572448
0.01765729797802817122
0.017637415877408486181
0.017616738425151122482
0.017597741625798982157
0.017577391214645351342
0.017558170893726795375
0.017537149311469494434
0.017517305867717724438
0.017495968064266915337
0.017476260842071898727
0.017455591839599965409
0.017437145151334550175
0.01741782520102238066
0.017400277481588725947
0.017380989478263608738
0.017362817898939487959
0.017342838178405154542
0.017324190270137321962
0.017303847792106835657
0.017284870247787516989
0.017264155951653346183
0.017245058857194371649
0.017224071520702259608
0.017204364542318308084
0.017182338297933634486
0.017161962463312429444
0.01714022863267821925
0.017121182788304160211
0.017100702469042345505
0.017082043104219193919
0.01706086670561378707
0.017041166158035702533
0.017019489050996226831
0.01700031412635901254
0.016979961676538542215
0.016962504933301803672
0.016943486252563862843
0.016926588206339687748
0.016907270910540998787
0.016889512220353668226
0.016868886067282453517
0.016849461164927245077
0.016827154980678445118
0.016806486070764618812
0.016784021394169786751
0.016764293598879820291
0.016743412338109747717
0.016725210534083989611
0.016705463843238007454
0.016687614238291226948
0.016667875666710223886
0.016649873744690082966
0.016630137065751778719
0.016612238200799690768
0.016592346348863442479
0.016573870779317483037
0.016553156417266848971
0.016534182783581406057
0.016513647150766166266
0.016495705723705782197
0.016476711710564390101