/*--------------------------------*- C++ -*----------------------------------*\
  =========                 |
  \\      /  F ield         | OpenFOAM: The Open Source CFD Toolbox
   \\    /   O peration     | Website:  https://openfoam.org
    \\  /    A nd           | Version:  12
     \\/     M anipulation  |
\*---------------------------------------------------------------------------*/
FoamFile
{
    format      ascii;
    class       volScalarField;
    location    "0.00518";
    object      pMean;
}
// * * * * * * * * * * * * * * * * * * * * * * * * * * * * * * * * * * * * * //

dimensions      [1 -1 -2 0 0 0 0];

internalField   nonuniform List<scalar> 
75962
(
98731.306669838915695
98731.628781649327721
98731.332050250552129
98731.076712457666872
98730.94541062405915
98730.812194874306442
98730.6745645149349
98730.500404743885156
98730.222168567503104
98729.850520817955839
98729.460101672317251
98729.081592704707873
98728.652866002623341
98728.131665521650575
98727.553759570102557
98726.975823969623889
98726.435486603164463
98725.904207005180069
98725.324304665438831
98724.6977629239409
98724.0754766457394
98723.488597106406814
98722.926723319542361
98722.376844374477514
98721.849661238884437
98721.355368184696999
98720.882348824496148
98720.413875211859704
98719.935857049058541
98719.433240575119271
98718.903059863572707
98718.365260219739866
98717.851720358332386
98717.376655279018451
98716.929617758811219
98716.493824361576117
98716.059931968091405
98715.624633611048921
98715.185679090805934
98714.738909462903393
98714.282761055364972
98713.822476342407754
98713.366686523280805
98712.920815874967957
98712.483559616084676
98712.048031998390798
98711.603699319370207
98711.148449265107047
98710.697500685666455
98710.266306144563714
98709.852875839176704
98709.444280464827898
98709.030766774099902
98708.6057797796675
98708.173154130316107
98707.748079215598409
98707.345247608871432
98706.963414173995261
98706.59014274191577
98706.21764877717942
98705.848967417899985
98705.486192324809963
98705.118571927101584
98704.741877731416025
98704.369053809699835
98704.01555570725759
98703.680417243303964
98703.350298572477186
98703.019715580070624
98702.693624631734565
98702.374396897546831
98702.057828727702145
98701.7423717751808
98701.432100876569166
98701.133599387379945
98700.852672331064241
98700.592514213451068
98700.354882327563246
98700.131223742951988
98699.90897989088262
98699.673033128085081
98699.419496042159153
98699.162219284029561
98698.920484218950151
98698.70028127435944
98698.488106794335181
98698.263833921009791
98698.018370646852418
98697.763681954020285
98697.521377589961048
98697.303797971952008
98697.106128355429973
98696.913769351915107
98696.718815062820795
98696.529518252980779
98696.359937457935303
98696.217309109240887
98696.096933326538419
98695.987670442584204
98695.881189018749865
98695.774731995959883
98695.668572278387728
98695.56406546717335
98695.463584543060279
98695.370839787879959
98695.288062063613324
98695.212898333731573
98695.139430719704251
98695.063130725873634
98694.984467599890195
98694.906317889603088
98694.828879366294132
98694.749010130297393
98694.661638095014496
98694.563247574900743
98694.450830806745216
98694.3194349072146
98694.164019012809149
98693.985192019710667
98693.792446703315363
98693.599928055904456
98693.418226599460468
98693.248903891973896
98693.086630466248607
98692.926259018946439
98692.767019773338689
98692.611991995217977
98692.463448045004043
98692.320071504771477
98692.178468712969334
98692.035871462605428
98691.892646795706241
98691.752630208837218
98691.620435642267694
98691.497645312250825
98691.380754808356869
98691.264230899207178
98691.145686958378064
98691.02827843290288
98690.917164522135863
98690.814316962263547
98690.715529209948727
98690.613433407750563
98690.503244587991503
98690.3868274747947
98690.270889919804176
98690.16251072686282
98690.065713409159798
98689.980536961636972
98689.905167196426191
98689.837778703382355
98689.777039279593737
98689.721779582454474
98689.67145267239539
98689.6262340816902
98689.58693312984542
98689.554794286304968
98689.530992346684798
98689.515464618118131
98689.506366815825459
98689.500977160729235
98689.497573547574575
98689.496511636694777
98689.499086631578393
98689.505872151406948
98689.516155481658643
98689.528556488832692
98689.542252199869836
98689.557597521546995
98689.575678200257244
98689.597246024874039
98689.622002671880182
98689.648300667176954
98689.674137124806293
98689.698694684091606
98689.722113647148944
98689.744462180737173
98689.765159802991548
98689.782512794088689
98689.793866840162082
98689.797218330044416
98689.792622884415323
98689.782210516306804
98689.769137090857839
98689.756487523060059
98689.746259911175002
98689.738568307555397
98689.731601418505306
98689.536673825437902
98689.545941828138893
98689.557833829210722
98689.569455780394492
98689.579236782577937
98689.587276495498372
98689.59431524646061
98689.600830604991643
98689.606816456114757
98689.612146994084469
98689.617093172448222
98689.622376659637666
98689.628606392245274
98689.63570666789019
98689.643102555026417
98689.650387669651536
98689.657708371320041
98689.665235191219836
98689.672217727755196
98689.676731267099967
98689.676713191278395
98689.671709460541024
98689.664393799568643
98689.660346809003386
98689.665812344290316
98689.684915679594269
98689.71784839569591
98689.760887618322158
98689.808315371366916
98689.855239698314108
98689.899705576128326
98689.942755625612335
98689.986676511194673
98690.032996289926814
98690.081482476161909
98690.130402994007454
98690.177742780942935
98690.222554381180089
98690.265509066870436
98690.308440121705644
98690.353283683987684
98690.401104441116331
98690.451815673761303
98690.504493675820413
98690.557889859876013
98690.611258765304228
98690.664820034595323
98690.719756670863717
98690.777618544365396
98690.839676155155757
98690.906499067452387
98690.977869778551394
98691.053040771410451
98691.130965625896351
98691.210191088277497
98691.288802158349426
98691.364534580832697
98691.435026025399566
98691.498042691469891
98691.551628723900649
98691.59429651631217
98691.625617014666204
98691.646604017718346
98691.659910240428871
98691.669285780808423
98691.678546286959318
98691.690556879417272
98691.70663014051388
98691.726537096401444
98691.749186877132161
98691.773449419095414
98691.79874503838073
98691.825282516874722
98691.853811897235573
98691.885179070959566
98691.91979721392272
98691.957391169169568
98691.997122380897054
98692.037887028898695
98692.078752520057606
98692.119498807209311
98692.160874817782314
98692.204162124893628
98692.250587822432863
98692.300554059518618
98692.353143597982125
98692.406066359457327
98692.455952565040207
98692.499275975991623
98692.533542757082614
98692.557921897459892
98692.573271614935948
98692.581534718789044
98692.584857301000739
98692.584899473615224
98692.582605041607167
98692.578641297717695
98692.574028200542671
98692.570423079974717
98692.569873117099633
98692.574095521398704
98692.583743941722787
98692.598013994618668
98692.614936221507378
98692.632066886173561
98692.647378312132787
98692.65987753184163
98692.669628126517637
98692.677167310001096
98692.682725296603166
98692.685793903336162
98692.685136454238091
98692.67934868222801
98692.667654588629375
98692.650585950905224
98692.630239057529252
98692.609807612127042
98692.592746306152549
98692.581934880217887
98692.579047548235394
98692.584274121792987
98692.596544930318487
98692.614109346381156
98692.635097015867359
98692.657999018396367
98692.681892903055996
98692.706391930652899
98692.731455078639556
98692.757268911635038
98692.784142763601267
98692.812402694515185
98692.842314105597325
98692.873964767350117
98692.907168116871617
98692.941430718332413
98692.976015394713613
98693.010027647163952
98693.042498327296926
98693.072479436261347
98693.099277858287678
98693.122708135197172
98693.143169017756009
98693.161707785824547
98693.179871692933375
98693.199486106459517
98693.222422678561998
98693.250305212059175
98693.284182127332315
98693.324314503304777
98693.370114785459009
98693.420277325960342
98693.473045736114727
98693.526693790103309
98693.579931674379623
98693.632194775869721
98693.683719256063341
98693.735473424356314
98693.788897980790352
98693.845575266488595
98693.906861320239841
98693.97359008830972
98694.045910137836472
98694.123182034003548
98694.204081829579081
98694.286830406024819
98694.369504311034689
98694.450402146307169
98694.528347586558084
98694.60270283796126
98694.673295824381057
98694.740337234121398
98694.804298221992212
98694.865793694290915
98694.925609278579941
98694.984725021466147
98695.044291234196862
98695.105537964627729
98695.169595363011467
98695.237298518943135
98695.308990925754188
98695.384416370870895
98695.462800707158749
98695.543124869756866
98695.624376438994659
98695.705802664670045
98695.787114138205652
98695.868538998576696
98695.950682533206418
98696.034224268441903
98696.119559705228312
98696.2066439276241
98696.295045992286759
98696.384083937096875
98696.473009554596501
98696.561142500009737
98696.648022716108244
98696.733366888933233
98696.816976445392356
98696.898595630089403
98696.97788798068359
98697.054561090015341
98697.128560559387552
98697.200206325142062
98697.270311476793722
98697.340234245624742
98697.411749727150891
98697.486699549248442
98697.566540052110213
98697.652021633461118
98697.743004064192064
98697.838392984020174
98697.936325052680331
98698.034550907919765
98698.130948709542281
98698.223954866843997
98698.312846302214894
98698.397852309615701
98698.480061769543681
98698.561158774857176
98698.64302803989267
98698.727369072541478
98698.815514898407855
98698.908487897497253
98699.007094095024513
98699.111960575915873
98699.223709484911524
98699.343078065256122
98699.470837107262923
98699.607579373681801
98699.753563346574083
98699.908593812317122
98700.072131934110075
98700.24349783686921
98700.42193540817243
98700.606782840681262
98700.797662242213846
98700.994629965804052
98701.19813907360367
98701.408910147933057
98701.627831516292645
98701.85586221673293
98702.093937622208614
98702.342892113316339
98702.603501753328601
98702.876616585446754
98703.163263242138783
98703.464644011823111
98703.782126794671058
98704.117200607506675
98704.471284554543672
98704.845546454031137
98705.240818915728596
98705.657611928938422
98706.096285936422646
98732.090938880472095
98732.20966102796956
98731.050130496470956
98730.822707836035988
98730.77082811386208
98730.628626291800174
98730.513237811261206
98730.383467176798149
98730.113808342372067
98729.703245138807688
98729.269575879181502
98728.891382067173254
98728.490776977472706
98727.976145916807582
98727.385820081501151
98726.801876139608794
98726.241113757147104
98725.676460329530528
98725.093303701636614
98724.500016036734451
98723.915748016981524
98723.345690985806868
98722.77914396963024
98722.212814868238638
98721.662263096804963
98721.143887726517278
98720.659522576301242
98720.193344929735758
98719.719367587968009
98719.216271027136827
98718.683849026507232
98718.147375946573447
98717.638933745707618
98717.174120598559966
98716.740984688032768
98716.312330365210073
98715.865963634743821
98715.407476496780873
98714.9491267016856
98714.488174232858
98714.018190306975157
98713.547748643934028
98713.09372792695649
98712.66312117036432
98712.248064861341845
98711.829254286290961
98711.389561462783604
98710.93402202159632
98710.486559778844821
98710.06396737434261
98709.658716911246302
98709.253391522870515
98708.839757388122962
98708.422626186977141
98708.005562402220676
98707.589286234084284
98707.179069607693236
98706.780838911508908
98706.396967377280816
98706.02514914375206
98705.665832788814441
98705.312414125786745
98704.951505414632265
98704.580500936397584
98704.213281792399357
98703.865807371301344
98703.537912465675618
98703.216323588509113
98702.891777616430772
98702.566786927258363
98702.24484885513084
98701.928773279680172
98701.625479068039567
98701.339424482692266
98701.069473946496146
98700.809936604418908
98700.557408033579122
98700.314013597351732
98700.077931207400979
98699.842815151583636
98699.597151286710869
98699.336948365526041
98699.072048252128297
98698.81839529624267
98698.584589993683039
98698.363852618582314
98698.140061821148265
98697.902423106512288
98697.658156620993395
98697.425058091044775
98697.216461352509214
98697.029106831207173
98696.849377490478219
98696.668828673980897
98696.492858305980917
98696.333476506988518
98696.197593594435602
98696.082093267468736
98695.978437871963251
98695.87993979814928
98695.781704312714282
98695.680351061891997
98695.576160380005604
98695.473293315415503
98695.378858432202833
98695.296556140558096
98695.224110517796362
98695.153268524620216
98695.075626878067851
98694.989637762409984
98694.899796942903777
98694.810493614859297
98694.722192458022619
98694.631183707446326
98694.532537461811444
98694.421501407123287
98694.292305303752073
98694.139235388822271
98693.962211637059227
98693.770001570126624
98693.576739301439375
98693.393538277930929
98693.222409858382889
98693.058733364887303
98692.897496447520098
98692.737154194765026
98692.579210470299586
98692.424709595521563
98692.272826830667327
98692.121561259584269
98691.969816712022293
98691.819320253212936
98691.674787966985605
98691.541247609973652
98691.42003270391433
98691.30701915663667
98691.19492760700814
98691.078628665258293
98690.957866892975289
98690.836220359778963
98690.7169074742269
98690.599302711882046
98690.480804430277203
98690.361006075618207
98690.243616871084669
98690.134105809804169
98690.036118881282164
98689.949631720461184
98689.872148698035744
98689.800370062323054
98689.731768380996073
98689.665252182006952
98689.601463688362855
98689.542524974021944
98689.49111342834658
98689.449394726063474
98689.417957329220371
98689.395937180772307
98689.381518492271425
98689.372403570043389
98689.366591614423669
98689.36328015581239
98689.362283806563937
98689.362986823587562
98689.364179688767763
98689.364313133468386
98689.36232247739099
98689.359622482617851
98689.360967115484527
98689.3720446768275
98689.396199458598858
98689.432456655165879
98689.47552062147588
98689.518265913109644
98689.555782251845812
98689.586769967980217
98689.612037087979843
98689.632744487564196
98689.648705312400125
98689.65860027661256
98689.66211208407185
98689.661308109556558
98689.659788482196745
98689.660935440260801
98689.666320428237668
98689.675214817369124
98689.684967481254716
98689.692159909580369
98689.693754190462641
98689.678471958381124
98689.688375179204741
98689.702017722956953
98689.717114714352647
98689.730853441637009
98689.741210310603492
98689.747824334845063
98689.751672779617365
98689.753951380029321
98689.755482453663717
98689.756890084332554
98689.758828852151055
98689.761968725186307
98689.766626306372928
98689.772486380039481
98689.77882003870036
98689.785198687968659
98689.791857956108288
98689.799007417808753
98689.805887454742333
98689.810702558854246
98689.811773230525432
98689.809165203245357
98689.8055608755094
98689.805860127336928
98689.815330498269759
98689.837106166203739
98689.870559577771928
98689.911693674715934
98689.955355626618257
98689.997915821862989
98690.038601659354754
98690.079150140387355
98690.122118054161547
98690.168983526280499
98690.219061157709803
98690.269898856407963
98690.318712503751158
98690.363959184047417
98690.406135885335971
98690.447531803918537
98690.491020392058999
98690.53884945048776
98690.591717463481473
98690.648666359862546
98690.707725553031196
98690.766959290689556
98690.825383356685052
98690.883151666872436
98690.941223974397872
98691.000827831259812
98691.063020748784766
98691.128500928607536
98691.197417725255946
98691.269248358163168
98691.342797630422865
98691.416253651317675
98691.487244789823308
98691.553059835146996
98691.610883548215497
98691.658295236324193
98691.693795018160017
98691.717398390319431
98691.730850150372135
98691.737343953296659
98691.740819118000218
98691.744989760380122
98691.752498997651855
98691.764380848006113
98691.780274307515356
98691.799132348896819
98691.820031125185778
98691.842668416720699
98691.86744568416907
98691.895195891047479
98691.92664828474517
98691.962055761090596
98692.001053114945535
98692.042676335389842
98692.085643839920522
98692.128868010899168
98692.171921476052376
98692.215207271045074
98692.259622316661989
98692.306132805621019
98692.355106058996171
98692.405790117176366
98692.456006753767724
98692.50272265948297
98692.542898102386971
98692.574446199214435
98692.596702762370114
98692.610390445333906
98692.61715362695395
98692.618842078241869
98692.616980115504703
98692.612730408625794
98692.607218557561282
98692.602000176630099
98692.599180866251118
98692.600965216435725
98692.608898095728364
98692.623132773500402
98692.64229430751584
98692.663937899982557
98692.685468490570202
98692.70509963016957
98692.722355162302847
98692.737825904710917
98692.752339360638871
98692.765986379876267
98692.777769418447861
98692.786013558346895
98692.789082619026885
98692.786308701237431
98692.778610784429475
98692.768501163925976
98692.759513083889033
98692.755216594101512
98692.75829334295122
98692.769911274619517
98692.789619300834602
98692.815762092010118
98692.846136576379649
98692.878695347390021
98692.911921227976563
98692.944977231003577
98692.977674247304094
98693.0102246649476
98693.042988846151275
98693.076263812123216
98693.110312767094001
98693.145345641823951
98693.181499849510146
98693.218776617475669
98693.257002902653767
98693.295843205807614
98693.334854830085533
98693.37341578543419
98693.410746233086684
98693.446034654320101
98693.478660926921293
98693.508508390354109
98693.536124709280557
98693.562767829047516
98693.590195958546246
98693.620267442427576
98693.654616351152072
98693.694304723787354
98693.7395446656883
98693.789671868755249
98693.843353098811349
98693.89899370308558
98693.955237620917615
98694.011404659962864
98694.067599551824969
98694.12462607731868
98694.183809409747482
98694.246691062100581
98694.314674060588004
98694.388718882910325
98694.469088324491167
98694.555247048076126
98694.645952575214324
98694.739437872194685
98694.833738397879642
98694.926996732887346
98695.017756688772351
98695.105098865547916
98695.188690404698718
98695.268720922467764
98695.345705234576599
98695.420318817108637
98695.493309066616348
98695.56553405681916
98695.638040484933299
98695.712037069679354
98695.788735768393963
98695.869186447162065
98695.954092042069533
98696.04361839449848
98696.137267912738025
98696.233971626730636
98696.332400479834178
98696.43134745855059
98696.530053182606935
98696.628319269540953
98696.726476855881629
98696.825248074863339
98696.925418640908902
98697.02752366218192
98697.131690919079119
98697.237721337485709
98697.345224867545767
98697.453755514827208
98697.562961106959847
98697.672629365697503
98697.782691221509594
98697.893030768129393
98698.003338589071063
98698.113080096329213
98698.221638738818001
98698.328539281705162
98698.433695912608528
98698.537531281981501
98698.641037098161178
98698.745661220586044
98698.853031868813559
98698.964557549363235
98699.081075534268166
98699.202611835047719
98699.328323998721316
98699.456641785203828
98699.585608790468541
98699.71332923747832
98699.838447934394935
98699.960438396010431
98700.079715947140357
98700.197429928070051
98700.315205336693907
98700.43493248159939
98700.558414315004484
98700.687086020276183
98700.821912109502591
98700.963557328213938
98701.112589619719074
98701.269550301120034
98701.435019552722224
98701.609564803817193
98701.793593881477136
98701.987209405182512
98702.190140474980581
98702.401832139687031
98702.621655152193853
98702.84905415000685
98703.083640496843145
98703.325318115515984
98703.574277666732087
98703.830910182368825
98704.095703264378244
98704.369123226686497
98704.651577543700114
98704.943417998991208
98705.245088381067035
98705.557262175731012
98705.880898537448957
98706.217247142965789
98706.567842219257727
98706.93434818359674
98707.318347529755556
98707.721210772215272
98708.144046936140512
98708.587632969967672
98709.052483958934317
98709.538927238725591
98729.123445153949433
98730.539304924575845
98730.417714137103758
98730.287950920246658
98730.283826344937552
98730.165079820202664
98730.016388445452321
98729.88755487864546
98729.669279261608608
98729.314952097687637
98728.91764990867523
98728.565486166931805
98728.180836253799498
98727.670851518952986
98727.100325342456927
98726.552626059303293
98725.999187956913374
98725.405349631124409
98724.81728936478612
98724.262050667311996
98723.713407707444276
98723.154088863841025
98722.589410464614048
98722.027732234098949
98721.476358919244376
98720.948739530562307
98720.454156422449159
98719.983320675673895
98719.512740158796078
98719.021450913569424
98718.506368860937073
98717.987852512713289
98717.494547681679251
98717.036478841750068
98716.595137377953506
98716.144211748323869
98715.677970987264416
98715.213247385196155
98714.753851992863929
98714.289009712723782
98713.812891388908611
98713.339155555469915
98712.893637309069163
98712.486283666978125
98712.096440124703804
98711.689894639115664
98711.250501372982399
98710.793473039026139
98710.348174777536769
98709.930770835868316
98709.529192371453973
98709.124101336419699
98708.714469567319611
98708.309809024605784
98707.90282676985953
98707.484989479620708
98707.060818058322184
98706.646382203034591
98706.254279859698727
98705.884082615710213
98705.533125297806691
98705.187260244696517
98704.835213830287103
98704.472587893789751
98704.110141267839936
98703.763380003947532
98703.434620514279231
98703.114667749992805
98702.795416759196087
98702.477020212303614
98702.16410255167284
98701.864785180354374
98701.586034460036899
98701.326867008086992
98701.075549334302195
98700.820138792070793
98700.559936394827673
98700.301628559594974
98700.052976266742917
98699.805352929004584
98699.546590502330218
98699.271843876049388
98698.989395307668019
98698.71610132639762
98698.465232692367863
98698.236760340107139
98698.018064647199935
98697.79577625633101
98697.569045048890985
98697.350739517161855
98697.15378284433973
98696.978361887129722
98696.814256825149641
98696.652319823420839
98696.492530762872775
98696.341893771794275
98696.20631777968083
98696.086664199916413
98695.979198378510773
98695.879334014680353
98695.782261517990264
98695.68394315399928
98695.586008192316513
98695.492683725475217
98695.407315920529072
98695.330729055203847
98695.25974898491404
98695.187168533535441
98695.105317661276786
98695.011547071902896
98694.910816201649141
98694.809582289366517
98694.709687059235875
98694.608547359981458
98694.500944578554481
98694.382702518996666
98694.250169015766005
98694.098449057812104
98693.926539923733799
98693.740894144182676
98693.552673347963719
98693.371370165914414
98693.19983403441438
98693.035636960761622
98692.874798943448695
98692.715259322620113
98692.556375071668299
98692.397312389221042
98692.236587413164671
98692.073847557374393
98691.911252780031646
98691.75310682124109
98691.604681963130133
98691.470444788326859
98691.350450123427436
98691.239065063360613
98691.128108631703071
98691.011023471990484
98690.88555053807795
98690.753735672318726
98690.619291932496708
98690.484465443645604
98690.350747869320912
98690.221545880078338
98690.101782917336095
98689.995605925170821
98689.904063732552459
98689.824345921471831
98689.751540358251077
98689.680807494762121
98689.60843406895583
98689.5335331960232
98689.45870419574203
98689.389502624064335
98689.331901233337703
98689.289110290686949
98689.260269280304783
98689.241778382609482
98689.229963961886824
98689.222147594162379
98689.217069388367236
98689.214350511465454
98689.212934294511797
98689.210092053122935
98689.202639097507927
98689.188668250237242
98689.169190462358529
98689.149684689182322
98689.139494691000436
98689.147799791229772
98689.178794564242708
98689.229254525824217
98689.289882034048787
98689.349533800777863
98689.399976616725326
98689.43836801215366
98689.466046808418469
98689.485527336029918
98689.498294661592809
98689.505437364903628
98689.509449520221096
98689.514805067083216
98689.525844498421066
98689.544585194977117
98689.569827098879614
98689.597579233726719
98689.62288614998397
98689.641671117729857
98689.651788818126079
98689.845086746674497
98689.857148612471065
98689.870570259605302
98689.88463847078674
98689.897356827452313
98689.906716244120616
98689.911724408884766
98689.912757230034913
98689.910950924910139
98689.907731713130488
98689.904694587021368
98689.903336918650893
98689.904646044655237
98689.908755349984858
98689.914879583113361
98689.92186765128281
98689.928992668079445
98689.936070919575286
98689.943075170478551
98689.949541714784573
98689.954533923169947
98689.957236099799047
98689.957992738040048
98689.95909953561204
98689.964445433739456
98689.977898523982731
98690.001485158180003
98690.034291448871954
98690.072923452287796
98690.113369288490503
98690.152952804986853
98690.191461125839851
98690.230689071424422
98690.272906196201802
98690.319347276890767
98690.369251665382762
98690.419936907594092
98690.468188006998389
98690.512093793993699
98690.552297307178378
98690.591697242445662
98690.634116960936808
98690.682629417540738
98690.738356661458965
98690.800068555166945
98690.864956333534792
98690.9298655501334
98690.99244773585815
98691.05187918417505
98691.108623223990435
98691.16397807445901
98691.219569184933789
98691.276732878381154
98691.336182687984547
98691.397945512871956
98691.461357813663199
98691.525023540394614
98691.586802155041369
98691.643869903695304
98691.693210333280149
98691.732327363220975
98691.760100504412549
98691.777227780272369
98691.786084190141992
98691.790111955793691
98691.792933687829645
98691.797447648190428
98691.805299667888903
98691.816736810520524
98691.831114944827277
98691.847660520783393
98691.866050078198896
98691.886606085492531
98691.910141938147717
98691.937557810902945
98691.969501382031012
98692.006121695361799
98692.046831707993988
98692.090463620887022
98692.135593879196676
98692.181021800992312
98692.226076250939514
98692.270808926972677
98692.315864962467458
98692.361966710246634
98692.409389296968584
98692.457484200160252
98692.504481461466639
98692.547904472856317
98692.585268368347897
98692.614834753956529
98692.636067918894696
98692.649589708205895
98692.65671837341506
98692.658942365073017
98692.657625598876621
98692.653977127803955
98692.649370149578317
98692.645670265337685
98692.645229923233273
98692.650363130960613
98692.662527850319748
98692.681663029870833
98692.706100554525619
98692.733213984596659
98692.760448397733853
98692.78621395760274
98692.810217422520509
98692.833106427613529
98692.855622796385433
98692.877785941513139
98692.898505374017986
98692.916002425758052
98692.92874678086082
98692.936354298421065
98692.94011306820903
98692.942846571328118
98692.948168055343558
98692.959440497812466
98692.978807277177111
98693.006721751662553
98693.041973345782026
98693.08228923259594
98693.125131181470351
98693.168369103426812
98693.210739604721311
98693.25193643005332
98693.292344586487161
98693.332575295615243
98693.373020831539179
98693.413771091945819
98693.454696673492435
98693.495705174835166
98693.536850477714324
98693.578271422549733
98693.620242365752347
98693.663065714441473
98693.706880241195904
98693.751491773728048
98693.796321261354024
98693.840462873602519
98693.882979460438946
98693.923273067630362
98693.961380371591076
98693.998077212061617
98694.034735482753604
98694.072977453703061
98694.114310120799928
98694.159793510130839
98694.209759015415329
98694.26376459968742
98694.320826002571266
98694.379818488218007
98694.439839112543268
98694.500543864283827
98694.562274728770717
98694.625944018611335
98694.692892570354161
98694.76466164815065
98694.842615596018732
98694.927585715355235
98695.019641966486233
98695.117979352537077
98695.220998238757602
98695.326564333488932
98695.432427256178926
98695.536613600459532
98695.637696751975454
98695.734974766135565
98695.828466031700373
98695.918704640163924
98696.006523235540953
98696.092835512870806
98696.178511467005592
98696.264413624900044
98696.351464915656834
98696.440705683387932
98696.533202015853021
98696.629840659865295
98696.731156025227392
98696.837137713388074
98696.94717138458509
98697.060119317276985
98697.174656603921903
98697.289626807978493
98697.404284732459928
98697.518419425658067
98697.632314171583857
98697.746585963497637
98697.862023724897881
98697.979346858235658
98698.099047216790495
98698.221337500785012
98698.34623427625047
98698.473673423315631
98698.603607627213933
98698.736025275691645
98698.870917810432729
98699.008176084549632
98699.147449973679613
98699.288069634872954
98699.429166630812688
98699.569883385396679
98699.709638564192574
98699.848360152900568
98699.986480392079102
98700.12490632578556
98700.264900363297784
98700.40778782615962
98700.554517302240129
98700.705385208493681
98700.859962119182455
98701.017220640380401
98701.17576935805846
98701.334199789707782
98701.491485160280718
98701.647278599804849
98701.802015078879776
98701.956781482585939
98702.11304467372247
98702.272436380400904
98702.43659825794748
98702.606877150858054
98702.78419391978241
98702.969123389018932
98703.162090650454047
98703.363519214341068
98703.573865448168362
98703.793563663843088
98704.022940205977648
98704.262070405951818
98704.510697799138143
98704.768329266575165
98705.034409576823236
98705.308535193762509
98705.590660727451905
98705.881040576015948
98706.180056377095752
98706.4880494063691
98706.805240225032321
98707.131652345429757
98707.467152309545781
98707.811633580218768
98708.165215602726676
98708.528405741060851
98708.902194864407647
98709.288022255932447
98709.687610292123281
98710.10274103829579
98710.535071046237135
98710.985948161964188
98711.45633846797864
98711.946896828521858
98712.458081125252647
98712.990351173226372
98713.544278912988375
98730.109691520119668
98731.006446282815887
98730.657583688051091
98730.398337590217125
98730.331421693656011
98730.267251650482649
98730.127424899197649
98729.929473596799653