/*--------------------------------*- C++ -*----------------------------------*\
  =========                 |
  \\      /  F ield         | OpenFOAM: The Open Source CFD Toolbox
   \\    /   O peration     | Website:  https://openfoam.org
    \\  /    A nd           | Version:  12
     \\/     M anipulation  |
\*---------------------------------------------------------------------------*/
FoamFile
{
    format      ascii;
    class       volScalarField;
    location    "0.00518";
    object      pPrime2Mean;
}
// * * * * * * * * * * * * * * * * * * * * * * * * * * * * * * * * * * * * * //

dimensions      [2 -2 -4 0 0 0 0];

internalField   nonuniform List<scalar> 
75962
(
1094415.1218166351318
1074419.1375885009766
1065518.2314224243164
1059018.2989406585693
1053661.9029102325439
1048798.1006412506104
1044066.4189758300781
1039315.3781261444092
1034452.155481338501
1029542.6506195068359
1024671.7602996826172
1019918.4521141052246
1015278.1799488067627
1010675.7918395996094
1006135.211841583252
1001718.2815074920654
997422.2944221496582
993218.5869255065918
989074.60559844970703
984960.50419425964355
980883.93770599365234
976882.03171539306641
973024.65190696716309
969345.46411895751953
965879.14961242675781
962655.17235374450684
959689.39019203186035
957004.19159507751465
954610.22023963928223
952475.52450561523438
950559.25646018981934
948832.02675437927246
947261.72052955627441
945792.7731876373291
944371.4687614440918
942972.88448143005371
941596.31729316711426
940243.43447494506836
938907.75806427001953
937569.24368095397949
936210.26041793823242
934819.87190246582031
933381.52985572814941
931870.18110084533691
930262.30172348022461
928541.38958930969238
926702.67034339904785
924741.57992935180664
922659.11124992370605
920445.94833374023438
918093.51044654846191
915602.8481330871582
912973.23507499694824
910202.98683547973633
907310.67417526245117
904325.22207832336426
901273.7475700378418
898181.80117225646973
895073.43197631835938
891978.06505012512207
888932.32177352905273
885973.21733474731445
883126.68178558349609
880394.2258243560791
877755.09941482543945
875184.13802719116211
872667.05284690856934
870197.81412696838379
867769.39047622680664
865369.76431274414062
862991.00747108459473
860623.31016540527344
858248.6758861541748
855848.86016273498535
853416.96004867553711
850951.26131629943848
848444.53861618041992
845886.23131561279297
843276.2561092376709
840620.73750495910645
837933.3265323638916
835230.59094429016113
832527.00541687011719
829828.21034240722656
827136.31124305725098
824461.5736198425293
821813.8184700012207
819196.78323554992676
816612.98642539978027
814072.14201927185059
811586.20538520812988
809161.94961547851562
806801.71829414367676
804502.66034126281738
802262.49198913574219
800085.77392196655273
797974.75618362426758
795922.73103713989258
793912.55130958557129
791920.9526252746582
789929.99701881408691
787937.23311233520508
785952.6849536895752
783984.98427391052246
782030.15684509277344
780077.68079376220703
778118.30904769897461
776140.4858455657959
774126.82432556152344
772058.69735717773438
769924.64559555053711
767728.11751365661621
765482.4945068359375
763197.974609375
760873.54831314086914
758505.71922492980957
756099.64316558837891
753664.40562438964844
751198.39275169372559
748683.49853897094727
746095.07263946533203
743416.89286041259766
740653.31977081298828
737826.29328346252441
734958.67604827880859
732064.19293594360352
729152.48876190185547
726234.78268241882324
723325.26133346557617
720442.57978248596191
717606.80740356445312
714833.17332077026367
712128.20893669128418
709489.81369590759277
706912.21113204956055
704393.70029640197754
701937.71330070495605
699547.4984188079834
697223.12677574157715
694961.83896255493164
692759.41547393798828
690611.56579780578613
688512.79623413085938
686451.09407806396484
684409.01690101623535
682373.17755699157715
680340.39079284667969
678313.45289993286133
676290.56488227844238
674258.79764938354492
672196.91433525085449
670084.24825477600098
667909.79473304748535
665675.75861549377441
663392.76810646057129
661072.36438751220703
658723.96321678161621
656355.35112380981445
653973.52323532104492
651580.65808868408203
649166.15586090087891
646709.22917556762695
644195.26379585266113
641628.94512367248535
639029.61402893066406
636414.69040298461914
633789.74653053283691
631151.54876327514648
628500.40244483947754
625847.3002986907959
623207.31689262390137
620588.11972999572754
617989.61291313171387
615412.30173110961914
612859.9658317565918
610336.15597152709961
607843.08692932128906
605382.91958808898926
602956.69501304626465
600564.17341804504395
598206.32816696166992
595888.12609100341797
593619.10752868652344
591409.37487983703613
589262.83193206787109
587173.17075538635254
585127.94624519348145
583117.21402168273926
511933.76721382141113
510182.00257682800293
508422.22285270690918
506654.83352470397949
504880.37997245788574
503100.52663230895996
501316.57226753234863
499526.84280395507812
497727.5886402130127
495917.08380126953125
494098.06890487670898
492275.06492042541504
490450.82287406921387
488625.55027961730957
486797.89377021789551
484964.88185691833496
483121.81528854370117
481264.62971687316895
479393.40966033935547
477513.4251708984375
475632.61954116821289
473756.99106216430664
471886.39043807983398
470013.58328819274902
468128.57791900634766
466226.11529159545898
464309.75708961486816
462388.54630661010742
460470.78419494628906
458561.34284973144531
456663.5047779083252
454780.98825645446777
452918.73644256591797
451084.25909614562988
449288.27568626403809
447541.81961250305176
445850.7707462310791
444212.29296493530273
442615.01405715942383
441043.10566902160645
439482.83215141296387
437928.03741264343262
436381.25988960266113
434850.08782196044922
433341.88972663879395
431860.03961563110352
430403.06037330627441
428966.94529914855957
427549.24441528320312
426151.77132034301758
424779.11591529846191
423434.73690986633301
422118.93135833740234
420829.63826370239258
419563.74710655212402
418316.66471481323242
417081.40733909606934
415849.91174125671387
414616.20520973205566
413378.77400016784668
412139.63969230651855
410900.7071590423584
409660.44247436523438
408413.36448860168457
407152.79005432128906
405874.48472023010254
404578.34997367858887
403267.05094337463379
401942.82298851013184
400605.75841522216797
399254.85076141357422
397889.02219581604004
396506.31125831604004
395103.05958557128906
393675.56554985046387
392223.43376541137695
390750.89803504943848
389264.00742530822754
387766.22750091552734
386257.08502578735352
384734.56257629394531
383197.3565502166748
381644.05018043518066
380071.28593254089355
378474.25109672546387
376849.5976448059082
375197.68935775756836
373522.52247047424316
371830.30803108215332
370127.53809928894043
368419.18099594116211
366707.81667137145996
364994.0727710723877
363277.77427673339844
361558.97019958496094
359838.49488639831543
358117.52531433105469
356397.1320743560791
354679.15328407287598
352968.16306686401367
351271.80203819274902
349598.02949714660645
347951.8465633392334
346334.3550853729248
344743.74554824829102
343176.2872200012207
341627.41064071655273
340093.22197151184082
338571.29764366149902
337059.827880859375
335556.50600624084473
334059.6628360748291
332570.77265548706055
331094.92341041564941
329637.57581901550293
328200.5942497253418
326781.17549705505371
325374.63309478759766
323978.90953254699707
322596.92276000976562
321234.2835693359375
319894.27369689941406
318574.94990348815918
317270.64453125
315975.86602592468262
314687.66020011901855
313404.80684471130371
312125.72084617614746
310847.83118057250977
309569.02378463745117
308289.54961967468262
307011.94281196594238
305738.64873504638672
304469.64459037780762
303201.78614807128906
301929.95124053955078
300648.49825286865234
299351.97818946838379
298035.13815689086914
296693.38642883300781
295324.44540214538574
293930.14921569824219
292517.12323188781738
291094.96828269958496
289672.52687644958496
288254.08303833007812
286837.85068321228027
285417.82236289978027
283987.32083511352539
282541.38794136047363
281077.09577178955078
279592.59810829162598
278086.90817070007324
276560.72836875915527
275017.02084159851074
273460.12121772766113
271893.90625953674316
270320.9328556060791
268743.10059356689453
267163.00322532653809
265584.73716926574707
264013.56140327453613
262454.56229972839355
260911.00899505615234
259383.44594764709473
257870.39382362365723
256370.20288848876953
254882.6898250579834
253409.32120704650879
251952.02941513061523
250512.03054428100586
249089.84341430664062
247686.17104339599609
246302.51279830932617
244941.07406616210938
243604.22541999816895
242293.91777229309082
241011.13631248474121
239755.95203018188477
238528.55128860473633
237330.54091835021973
236164.88763999938965
235033.82068061828613
233936.27439308166504
232866.95108413696289
231817.92668533325195
230781.73313331604004
229754.03667068481445
228734.45289611816406
227725.31283569335938
226729.2184886932373
225747.04452133178711
224777.71702766418457
223819.47668838500977
222871.20702171325684
221932.62154006958008
221003.65741539001465
220084.19781684875488
219174.39923477172852
218274.91837120056152
217386.45109176635742
216508.96233940124512
215641.27915573120117
214781.02604866027832
213924.69071197509766
213067.79997062683105
212205.46142578125
211333.34178352355957
210448.37509346008301
209548.51691055297852
208631.88428497314453
207696.67633628845215
206742.29090690612793
205770.68984794616699
204786.20778274536133
203793.28135681152344
202793.6667308807373
201785.41773223876953
200764.37343215942383
199726.9736156463623
198672.39507484436035
197603.06427955627441
196523.97257232666016
195441.67374801635742
194363.34312438964844
193295.68868255615234
192243.80696868896484
191210.23003387451172
190194.52337837219238
189193.59476852416992
188203.05010032653809
187219.43551635742188
186242.40935134887695
185275.40349960327148
184324.02447509765625
183393.36500930786133
182486.19275856018066
181603.10993576049805
180744.10128784179688
179909.7177619934082
179101.08588409423828
178319.32269859313965
177565.48098564147949
176841.20857048034668
176149.29827117919922
175493.20737457275391
174876.01328086853027
174299.74623107910156
173765.62515830993652
173274.66547775268555
172827.81310653686523
172425.35486602783203
172066.25441741943359
171747.83231925964355
1117019.3387355804443
1089503.5922107696533
1076737.8791007995605
1067195.6691265106201
1059892.4659786224365
1053911.91259765625
1048488.1625709533691
1043254.71262550354
1038018.1676254272461
1032695.0560855865479
1027297.5049495697021
1021891.4002952575684
1016545.1959819793701
1011325.6978130340576
1006301.6779708862305
1001546.3939056396484
997040.39717292785645
992745.22198677062988
988659.81705856323242
984742.12392425537109
980941.5232982635498
977237.68549156188965
973637.30286598205566
970142.33420944213867
966760.10522079467773
963526.16384315490723
960474.10626411437988
957633.60869979858398
955047.34107398986816
952732.62410354614258
950678.84511566162109
948862.65670967102051
947252.19356346130371
945801.31344985961914
944447.39245796203613
943153.1092529296875
941896.76820182800293
940639.48344039916992
939346.74880981445312
937996.47877502441406
936568.69746398925781
935056.00832366943359
933451.52944564819336
931751.5084342956543
929949.93787384033203
928044.52939987182617
926034.95507621765137
923918.76633644104004
921693.99910926818848
919357.5958194732666
916908.17291259765625
914344.66373062133789
911671.43054008483887
908887.95645141601562
905999.39604949951172
903022.9954662322998
899978.66850471496582
896887.38312911987305
893774.7083911895752
890676.47772598266602
887640.18646240234375
884713.30783271789551
881925.65930366516113
879275.05800247192383
876736.37977409362793
874277.28057098388672
871878.27674674987793
869528.17036056518555
867217.14657783508301
864931.6466236114502
862660.7031192779541
860388.30789184570312
858092.45140266418457
855760.20981216430664
853396.1168155670166
851009.66817092895508
848598.46866607666016
846145.35580062866211
843637.80447006225586
841073.71776962280273
838461.31166458129883
835819.25851821899414
833170.11780166625977
830526.94467926025391
827886.4612865447998
825246.06777572631836
822611.29459762573242
819995.21168899536133
817412.43678665161133
814875.0710563659668
812388.63123893737793
809954.13587188720703
807569.7276611328125
805230.89846611022949
802934.56199645996094
800686.37992095947266
798493.73452949523926
796352.92229270935059
794248.10826873779297
792156.93062400817871
790060.64468002319336
787955.22966003417969
785852.03466796875
783762.7588996887207
781689.01574897766113
779624.7743968963623
777561.9975471496582
775490.74677658081055
773397.01779174804688
771265.47277069091797
769084.88208961486816
766853.0526237487793
764576.84563827514648
762262.30768585205078
759909.56569671630859
757522.74116706848145
755114.89165115356445
752696.04972648620605
750256.7689208984375
747769.76340103149414
745204.87800788879395
742545.1960391998291
739794.90872764587402
736976.42860794067383
734114.7852668762207
731224.30182456970215
728310.88677215576172
725381.75447654724121
722449.51586723327637
719532.37998390197754
716653.00939178466797
713832.95599174499512
711084.16419792175293
708404.24140548706055
705783.87660217285156
703220.44507217407227
700721.05820274353027
698293.70708084106445
695939.88637161254883
693656.0864315032959
691437.81782150268555
689281.70500564575195
687182.73227691650391
685125.59673309326172
683085.84719467163086
681045.6247673034668
679004.88252067565918
676973.89817237854004
674957.18190765380859
672943.8758602142334
670912.02406311035156
668839.46084213256836
666712.81308555603027
664531.32857894897461
662301.65732765197754
660031.29349517822266
657728.54627799987793
655404.59368515014648
653070.62997245788574
650729.40922164916992
648368.61051368713379
645967.91717720031738
643515.76749610900879
641017.5633544921875
638489.63102340698242
635946.98141860961914
633394.18153762817383
630825.89435577392578
628236.39120101928711
625629.98867988586426
623020.49909210205078
620421.70133590698242
617842.74804496765137
615290.21765899658203
612767.29188919067383
610270.95886421203613
607796.82858276367188
605345.83278274536133
602922.74044036865234
600531.51408958435059
598175.97018814086914
595861.64562225341797
593594.89578056335449
591381.16683197021484
589222.28525161743164
587113.68461799621582
585046.01133346557617
583012.09209442138672
581010.79304885864258
513779.4134464263916
512012.82868957519531
510238.55523872375488
508456.92829132080078
506667.39517211914062
504870.25685119628906
503068.49209594726562
501265.2960147857666
499459.18566703796387
497644.19146347045898
495815.89568519592285
493975.55941200256348
492128.43033409118652
490279.4088306427002
488430.87954139709473
486582.47132110595703
484730.83160972595215
482870.31464958190918
480996.11528968811035
479108.48981666564941
477213.826171875
475321.13089561462402
473436.56063652038574
471559.25802421569824
469680.90258026123047
467790.02768707275391
465879.52572059631348
463951.76710319519043
462016.08520317077637
460081.8183650970459
458154.78981399536133
456238.6401481628418
454336.62542533874512
452453.12537956237793
450596.53903579711914
448780.547607421875
447019.30257797241211
445319.11079025268555
443673.99860191345215
442068.69029235839844
440485.77427864074707
438912.68016052246094
437345.66934585571289
435789.14057159423828
434251.20839500427246
432738.67795562744141
431254.10597801208496
429795.46306228637695
428358.18427276611328
426938.93418502807617
425538.36714553833008
424161.15365219116211
422813.84409141540527
421501.53510093688965
420225.43487548828125
418981.87051773071289
417762.90529823303223
416558.16402053833008
415357.5638313293457
414153.70223426818848
412942.84830284118652
411724.52369689941406
410499.92313575744629
409269.60026550292969
408031.51238059997559
406781.15993499755859
405514.09667587280273
404228.70304298400879
402926.86042785644531
401611.63728141784668
400284.76390266418457
398946.29205322265625
397595.7663516998291
396231.81105995178223
394850.30276298522949
393445.25256156921387
392013.29779434204102
390556.88015365600586
389081.70210838317871
387591.49886894226074
386086.18228340148926
384564.35684585571289
383025.26662635803223
381467.24904632568359
379885.9173526763916
378275.63870429992676
376633.23040008544922
374960.15752601623535
373261.88679695129395
371545.96754455566406
369819.92026901245117
368089.2339038848877
366355.73625183105469
364618.15774536132812
362875.0486011505127
361127.73333930969238
359380.32345008850098
357636.79369926452637
355898.62308883666992
354165.8910961151123
352440.80688095092773
350729.50186920166016
349040.15078353881836
347379.4698543548584
345750.50687599182129
344152.24473762512207
342580.6280632019043
341030.77638244628906
339499.49599647521973
337985.69887351989746
336488.14861488342285
335003.74728584289551
333528.90193176269531
332062.87256240844727
330609.17338562011719
329173.01947021484375
327757.24648666381836
326360.39309310913086
324978.65204620361328
323610.16614723205566
322257.51476669311523
320925.73814964294434
319617.54200744628906
318330.47130584716797
317058.51236343383789
315795.74604606628418
314538.31802177429199
313283.499755859375
312028.10299682617188
310768.94053077697754
309505.09048652648926
308239.30551910400391
306976.58975982666016
305720.96714782714844
304472.63337898254395
303227.44239234924316
301978.3980655670166
300717.78767585754395
299438.88624000549316
298136.69644355773926
296808.14467811584473
295452.47544479370117
294072.19730949401855
292673.29979515075684
291263.8082389831543
289850.62250328063965
288436.63812828063965
287020.25387382507324
285597.47224235534668
284164.54183006286621
282718.99849510192871
281258.87330055236816
279781.85911750793457
278285.94270133972168
276770.97709465026855
275239.36500358581543
273694.86018943786621
272140.66572952270508
270578.78262519836426
269010.95499992370605
267439.787841796875
265869.16964912414551
264303.81482696533203
262748.0944938659668
261204.78595542907715
259674.71484184265137
258157.6098461151123
256653.46333122253418
255163.13669586181641
253687.93732452392578
252228.75905799865723
250785.87203407287598
249359.53056144714355
247950.65047836303711
246560.82440757751465
245191.80339241027832
243845.21083068847656
242522.53348350524902
241224.99402046203613
239953.44922065734863
238708.98976516723633
237493.75394248962402
236310.80505561828613
235162.51320457458496
234048.29803657531738
232963.59293556213379
231900.92881011962891
230852.61817359924316
229813.50590705871582
228782.43941879272461
227761.71452140808105
226754.75163459777832
225763.61247825622559
224787.96930313110352
223826.04201316833496
222876.21867561340332
221937.91449165344238
221011.26423454284668
220096.38458824157715
219193.10719680786133
218301.17928695678711
217420.432861328125
216550.68124580383301
215691.40464019775391
214841.22687721252441
213997.1723518371582
213154.20890617370605
212305.97946739196777
211446.68130111694336
210572.6358757019043
209682.34201240539551
208775.22126007080078
207850.64756393432617
206908.50019454956055
205950.44370651245117
204980.13045120239258
204001.34672164916992
203015.22562217712402
202019.11375999450684
201008.12136077880859
199978.1313533782959
198928.28174018859863
197861.32780075073242
196782.33818435668945
195697.28530693054199
194612.59770011901855
193535.32704925537109
192472.68953895568848
191430.36499977111816
190410.08880043029785
189408.54268264770508
188419.05268669128418
187435.514892578125
186455.9198112487793
185483.33077239990234
184523.86471557617188
183583.49419593811035
182666.04340553283691
181773.26727867126465
180906.0553150177002
180065.22974014282227
179251.29599380493164
178463.90054321289062
177702.15326499938965
176966.03203010559082
176257.69573020935059
175581.49779510498047
174942.47308158874512
174344.7032585144043
173790.8215446472168
173282.60384559631348
172821.57495880126953
172408.82484817504883
172043.9572868347168
171724.05582237243652
1087068.1287384033203
1072074.684986114502
1065093.9283313751221
1058766.3096923828125
1053202.0304775238037
1048190.623815536499
1043565.3200225830078
1039120.3282508850098
1034673.6240501403809
1030084.0002822875977
1025325.678638458252
1020396.9097805023193
1015289.0979518890381
1010106.8891143798828
1004984.4501819610596
1000067.9093265533447
995421.85361671447754
991053.82925224304199
986965.55118179321289
983131.67229461669922
979526.2042121887207
976099.06365203857422
972803.74332427978516
969628.32894325256348
966534.16633987426758
963524.4619026184082
960621.92473030090332
957847.04352760314941
955240.76418304443359
952850.14978218078613
950702.51862907409668
948797.87095642089844
947114.16997528076172
945600.75369644165039
944207.44804191589355
942906.63637351989746
941679.1822681427002
940485.59104347229004
939271.98888397216797
937986.23596382141113
936594.78888893127441
935085.10281753540039
933448.90847587585449
931682.97370719909668
929790.70712280273438
927773.29745674133301
925634.59231758117676
923385.62557983398438
921029.76269340515137
918562.73579978942871
915991.46641159057617
913326.2382755279541
910574.33288383483887
907741.79455375671387
904832.1215934753418
901849.11208152770996
898801.43095207214355
895704.98174095153809
892587.05774879455566
889492.92375755310059
886469.1339111328125
883557.62574768066406
880782.76379585266113
878145.94943809509277
875626.82697677612305
873198.02231216430664
870840.2203369140625
868542.36428070068359
866291.60682106018066
864071.54838562011719
861866.27077102661133
859656.1866283416748
857425.17956924438477
855168.84930229187012
852901.62857055664062
850638.79791831970215
848371.89412117004395
846075.49365425109863
843719.5937385559082
841293.22086524963379
838801.13778305053711
836264.63800621032715
833710.77086448669434
831150.1281909942627
828573.1396427154541
825968.67963981628418
823341.65392684936523
820716.8119068145752
818120.12491035461426
815562.7931022644043
813045.3095703125
810567.11682510375977
808126.84140205383301
805722.01859283447266
803351.55782127380371
801021.87175941467285
798739.65775871276855
796500.63668632507324
794290.27044486999512
792089.92409896850586
789883.58406448364258
787667.56048011779785
785451.23357009887695
783247.46465110778809
781060.78969192504883
778886.9631175994873
776719.20173454284668
774552.4118824005127
772381.20249557495117
770196.01245307922363
767982.47330284118652
765730.94289207458496
763442.2407398223877
761119.32756614685059
758765.27167129516602
756390.34637641906738
754010.32778358459473
751631.53558349609375
749236.7422981262207
746791.80850028991699
744265.96054840087891
741644.3973445892334
738930.71254539489746
736143.34498405456543
733304.98764419555664
730431.0423583984375
727528.12433624267578
724601.64260292053223
721662.40694999694824
718728.55078887939453
715824.2503662109375
712974.59379005432129
710194.63014602661133
707481.86546325683594
704825.51828575134277
702222.84289360046387
699682.88772010803223
697216.59196472167969
694828.5653190612793
692517.07436943054199
690277.40520477294922
688105.28758430480957
685994.74017715454102
683928.64637756347656
681878.38200569152832
679822.34551048278809
677761.50958061218262
675711.52138137817383
673682.23922729492188
671666.27920913696289
669643.06998825073242
667590.10445404052734
665493.20664596557617
663349.23125457763672
661160.70940017700195
658932.51790237426758
656673.7579402923584
654397.39584541320801
652113.93140029907227
649823.86860466003418
647516.27574920654297
645177.23452568054199
642801.97465705871582
640396.71940040588379
637972.07460403442383
635535.63906288146973
633088.19196510314941
630622.91565895080566
628130.92141151428223
625611.47002220153809
623076.31972122192383
620542.63002777099609
618025.23541450500488
615532.86778450012207
613064.53957366943359
610610.55390930175781
608162.99442291259766
605724.85996437072754
603306.96585845947266
600919.79831123352051
598570.69305038452148
596263.55841636657715
593997.50803184509277
591769.20425415039062
589577.56367492675781
587423.23854827880859
585305.4992504119873
583223.31546401977539
581177.85747909545898
513961.68369102478027
512171.97296905517578
510376.50565910339355
508572.58605766296387
506756.93000602722168
504930.16781234741211
503098.77776908874512
501269.47930526733398
499441.78775596618652
497608.07217597961426
495760.80494689941406
493898.22710418701172
492024.05550765991211
490144.43713569641113
488264.72370529174805
486386.76748466491699
484507.77712631225586
482622.17708587646484
480725.53944969177246
478818.15350532531738
476905.95349311828613
474997.4405689239502
473098.87541007995605
471210.27516937255859
469324.14832878112793
467428.7184886932373
465515.66145324707031
463586.0276985168457
461648.19069480895996
459710.77228355407715
457779.08772087097168
455856.59298324584961
453946.67226409912109
452053.9858512878418
450187.44422149658203
448361.39101409912109
446589.9635124206543
444877.80886268615723
443216.30669021606445
441588.80504035949707
439979.86670875549316
438381.53555488586426
436793.99703598022461
435222.6588306427002
433674.40291213989258
432154.27262496948242
430663.19045066833496
429198.24706649780273
427755.29551887512207
426332.02156448364258
424929.39430809020996
423551.74522018432617
422206.12925148010254
420899.95157241821289
419636.19111251831055
418410.1079216003418
417211.01664924621582
416027.33242797851562
414849.54642868041992
413669.84773063659668
412481.91436004638672
411282.72898483276367
410073.44225120544434
408856.95642852783203
407633.77740859985352
406400.14961814880371
405150.32525825500488
403880.67686080932617
402591.79861831665039
401287.0920352935791
399969.83417701721191
398642.11185455322266
397305.21195602416992
395958.5477123260498
394597.37585258483887
393213.74027061462402
391801.77075958251953
390361.85765266418457
388898.56709480285645
387415.27444839477539
385912.20813179016113
384388.76186180114746
382845.19318389892578
381280.75287437438965
379691.35030555725098
378071.28376960754395
376417.52169418334961
374732.09108734130859
373021.07401847839355
371292.20917892456055
369552.8555965423584
367808.11247825622559
366059.17810821533203
364303.98953437805176
362540.87543869018555
360772.31565093994141
359004.82966232299805
357244.89373588562012
355495.09154319763184
353754.57926940917969
352023.15152168273926
350304.4661979675293
348605.62079429626465
346934.10647964477539
345294.53691291809082
343686.87303733825684
342107.38166046142578
340551.78842544555664
339018.11516571044922
337506.42685127258301
336016.13801193237305
334544.1590404510498
333086.55033111572266
331641.93809700012207
330212.81657600402832
328803.56050682067871
327416.73427391052246
326051.13573265075684
324703.32845497131348
323371.34742546081543
322056.81439971923828
320763.03061676025391
319491.06305694580078
318237.95220565795898
316998.2353515625
315766.52838134765625
314538.22578430175781
313308.48497772216797
312072.14041900634766
310825.82308197021484
309570.67655563354492
308312.57104682922363
307059.17736434936523
305815.79510498046875
304582.69343566894531
303354.84860801696777
302123.58938407897949
300879.32524490356445
299614.31042098999023
298323.97012901306152
297006.67563056945801
295663.19776725769043
294296.70483779907227
292912.7379322052002
291517.72506713867188
290116.30214309692383
288709.51103401184082
287295.47134590148926
285871.75962066650391
284437.20615386962891
282991.6084156036377
281534.16017150878906
280062.8561954498291
278575.76268196105957
277072.97869682312012
275557.04982566833496
274031.14690780639648
272497.05243301391602
270955.15989112854004
269406.00773620605469
267851.56011199951172
266295.2334156036377
264741.13455772399902
263193.09220695495605
261653.84251403808594
260124.80509567260742
258606.80844688415527
257100.88242530822754
255608.41539001464844
254130.63403511047363
252668.22237777709961
251221.51096725463867
249791.01731872558594
248377.72369194030762
246982.83731460571289
245607.34947967529297
244251.99925422668457
242917.54489517211914
241604.99327087402344
240315.75553131103516
239051.7905101776123
237815.77652740478516
236610.86944389343262
235439.52829933166504
234301.97609710693359
233195.16973114013672
232113.17739677429199
231049.02514457702637
229997.23769569396973
228955.7257022857666
227925.94134902954102
226911.09491348266602
225913.54928016662598
224933.32981109619141
223968.58320617675781
223017.37884140014648
222079.02952003479004
221153.80369186401367
220241.82139778137207
219342.38810920715332
218454.28338050842285
217576.53508377075195
216708.97029876708984
215852.02801322937012
215005.62740135192871
214167.65228843688965
213333.07670974731445
212494.87932777404785
211646.45059394836426
210783.81840515136719
209905.80926895141602
209012.3623218536377
208102.96579170227051
207177.00202941894531
206235.3410472869873
205280.90467262268066
204317.04214286804199
203344.76015281677246
202361.28243064880371
201361.28276443481445
200340.1259937286377
199296.73855781555176
198234.21800994873047
197158.06513786315918
196073.9648494720459
194987.23247146606445
193904.07162284851074
192832.51785659790039
191780.87840843200684
190753.95026588439941
189750.13716506958008
188762.38721466064453
187782.70226860046387
186807.03696823120117
185837.06728935241699
184878.26399612426758
183936.43911361694336
183015.44187164306641
182117.07224273681641
181242.35280227661133
180392.65122604370117
179569.47245979309082
178773.5048770904541
178004.31650924682617
177261.36719131469727
176545.6326961517334
175860.34726333618164
175210.04253578186035
174598.7528247833252
174028.97527885437012
173502.25792503356934
173020.50693702697754
172586.40318870544434
172202.15035629272461
171867.42592620849609
171578.1297435760498
1105533.9076652526855
1082111.1729621887207
1070877.849292755127
1061799.2713832855225
1054073.0285224914551
1047411.452917098999
1041630.7194271087646
1036490.7866115570068
1031791.8244228363037
1027267.7694416046143