/*--------------------------------*- C++ -*----------------------------------*\
  =========                 |
  \\      /  F ield         | OpenFOAM: The Open Source CFD Toolbox
   \\    /   O peration     | Website:  https://openfoam.org
    \\  /    A nd           | Version:  12
     \\/     M anipulation  |
\*---------------------------------------------------------------------------*/
FoamFile
{
    format      ascii;
    class       volScalarField;
    location    "0.00518";
    object      rho_0;
}
// * * * * * * * * * * * * * * * * * * * * * * * * * * * * * * * * * * * * * //

dimensions      [1 -3 0 0 0 0 0];

internalField   nonuniform List<scalar> 
75962
(
1.1443589374238660739
1.1424914522932501093
1.143045680727444724
1.1442093187432311741
1.1438052246562735448
1.1432676286448397729
1.1432928699597231237
1.1441729839491470155
1.1449201178269787782
1.144337147451532033
1.1427362671532843574
1.1418403808376016428
1.1424180681517428493
1.1433224651936313432
1.1435571560912924927
1.1429614692402683129
1.1420009031840330227
1.1415043628701442291
1.141490687734782572
1.1413554005951040971
1.1410835787393054375
1.1411662303872684987
1.1416587441435468442
1.1420680515888232964
1.1419705504926060957
1.1414919662816647161
1.1409679747285201845
1.1405907345004022702
1.1405631152524478011
1.1409509205408530086
1.1414381612992152704
1.141611741484632514
1.1413151051734096164
1.1407121403091704526
1.1400653819360255792
1.1395414677216264554
1.1393051066500945456
1.1394760312346894349
1.140104133474114434
1.1409846543580584033
1.1417158478599587212
1.1419097133391102883
1.1415076210960173331
1.1407898095791306758
1.1401896935247131104
1.1400556156436532085
1.1404292304881686881
1.1408695744949923778
1.1408887893803718594
1.1403958546003936103
1.1396473559503157436
1.1390026022196735322
1.1387722640232313953
1.1390514193028813406
1.139599260556753535
1.1400264271217392942
1.14017844984718697
1.1401090359237291416
1.1399270024893282116
1.1397095336014781974
1.1395166599683212993
1.1395612741706853122
1.1398060763664463746
1.139934223235598898
1.1396914080022881866
1.1392235275327948774
1.1388714540440225687
1.1387698762665039443
1.1388138616106773249
1.1388929578073490045
1.1390203118216604139
1.1391718188414781121
1.1392139907071383575
1.1391374759614281142
1.1390124518174296053
1.1388975246142922781
1.1388188773465883763
1.1387631402905469269
1.1387299967703359282
1.138733612285658614
1.1386961725501316689
1.1384618821470795513
1.1379591140640952229
1.1373571414841319172
1.1369718798204748733
1.137048648202134471
1.1375522178627119896
1.1382131980069296606
1.1387677486232701263
1.1391487620589586527
1.13945536027112726
1.1397898807510185026
1.1400613094579992168
1.1400385477231558262
1.1395763707574695367
1.1387960323134416196
1.1379962059368227134
1.1374537632411751975
1.1372890528682422229
1.1374678938818545415
1.1378991319009479355
1.1384524187990259225
1.1389891416604460694
1.1393543524148992407
1.1394547891369994908
1.1392917264423707557
1.1389458336767219748
1.1384940096668807463
1.1379946902968514078
1.1374966583278960375
1.1371042243145108586
1.1369361030339109053
1.1370637309113080793
1.1374785058761136547
1.1381263723790375764
1.1389786781902555557
1.1400031459855657356
1.1411009726341532211
1.1421058123415781527
1.1428721875353606841
1.1433697878820741067
1.1436939003490624867
1.1439675672493352376
1.1442476920204112112
1.1444977272164966742
1.1446681748149762914
1.144755511561263317
1.1448167763419812015
1.1449175637784634318
1.1450863733845757508
1.1452983635703322118
1.1454963337937957846
1.1456356428984828533
1.1457225536599020543
1.1458082039873049851
1.1459377953250899917
1.1461062898185214731
1.1462502843803017427
1.1463154392513055235
1.1463153784661714862
1.146333847355857305
1.1464540961070674996
1.1466807849600302305
1.1469336001975829475
1.1471152567540388034
1.14718300265489348
1.14716409546517073
1.1471171590946678265
1.1470861993659438038
1.1470837671965807836
1.147112286567218975
1.1471734749353290628
1.1472634241341819195
1.1473689980182086856
1.1474701157133990748
1.1475466861949099595
1.1475890375829826962
1.1476104308047516689
1.1476391181198923874
1.1476942208746521157
1.1477743980464802931
1.1478569263407623069
1.1479200151265656071
1.1479678230698913133
1.148022283877239369
1.1480980475113173878
1.1481924093563071754
1.1482873157187669655
1.1483612188575285096
1.1484061893071204619
1.1484317171619351505
1.1484568560925527692
1.1484948028189814195
1.1485389268728096734
1.1485742457089038737
1.1485956611798291416
1.1486161900274567405
1.1486609308999433665
1.1487495670243210721
1.1488802389574268581
1.1490287295874443974
1.1491575507179430105
1.1492345787947007008
1.1492467385502709298
1.1492035195702803296
1.1491319460836737498
1.1490664122859930441
1.1490364723625987597
1.1465030960515376623
1.1463660128824804119
1.1463005410530788808
1.1462975821572050084
1.1463252191453980888
1.1463561467525518189
1.14638348380767785
1.146413146324293697
1.1464489000431292709
1.1464855174193560039
1.1465137965874117043
1.1465313490154804832
1.1465465632808846674
1.1465709789655267326
1.1466092667368354974
1.1466571573914021709
1.1467100159401655279
1.1467730927692338927
1.1468612382254723681
1.1469835845885389958
1.1471245137221672827
1.1472399941716262539
1.1472771850085050627
1.147206883715257808
1.1470469230568185459
1.146857732092152915
1.1467126298965486519
1.1466616563695766207
1.1467103614468125983
1.1468214869215886953
1.1469406961678647594
1.1470307863576982843
1.1470905612463881962
1.1471479085358764483
1.1472366998936807114
1.1473725500018645551
1.1475432631415038998
1.1477179244761632759
1.1478656859002085433
1.1479714366646280865
1.1480396196189217584
1.1480884439061533886
1.1481360756284597624
1.1481919599618577443
1.1482524452535798343
1.1483036872108882687
1.148331845883703739
1.1483298048303833827
1.148298312077091099
1.1482466688588401915
1.1481890168184978318
1.1481394173590024899
1.1481095094565663128
1.148109293446269108
1.1481474936963513844
1.1482311410198287049
1.1483644203471179424
1.1485469172543048
1.1487738794941659837
1.1490339642513016649
1.1493079684308655786
1.1495674186378159742
1.1497810985481284884
1.1499211950923293735
1.149974651040730711
1.1499492317926347518
1.1498713156850299821
1.1497743288155304331
1.1496844490493796087
1.1496129240055712462
1.1495566999691912979
1.1495043029560592096
1.1494452381760491555
1.1493772846738636861
1.1493072182729131558
1.1492471003930124773
1.1492084718444306457
1.1491976766690359391
1.1492121274024256206
1.1492391281733000952
1.1492596117445974535
1.1492566051465342714
1.1492212166980120269
1.1491592000903183557
1.1490897274134523887
1.1490397035589476893
1.1490355369051270529
1.1490910223800905321
1.1491982036596919414
1.1493307668224914675
1.1494573473359055438
1.149551447036494034
1.1495998906103996884
1.1496057014241249927
1.1495798577773559401
1.1495331559901766916
1.1494680335538627336
1.1493789997702945627
1.1492595963607905585
1.1491105624629793791
1.1489445980429184857
1.1487835899683054297
1.1486496164316839508
1.1485547080897073879
1.1484958514680636554
1.1484575061635786675
1.1484211865504212469
1.1483756568678387122
1.1483230025801756113
1.1482760460864473995
1.1482534958712744544
1.1482662689429485869
1.1483102955727273464
1.148365168942257597
1.1484029186634714392
1.1483967398426959683
1.1483304337932860317
1.1482035804023613679
1.1480306278693357402
1.1478352236657305419
1.1476425036266515445
1.1474718484979176125
1.1473328112341882878
1.1472257947407737966
1.1471448400492068043
1.1470813588132253713
1.1470272509500420988
1.1469765282340802504
1.1469258106475213044
1.1468742818078412338
1.1468228555849369066
1.1467734615795646125
1.1467295447565126754
1.1466962053129643451
1.1466805854180530666
1.1466897672134914732
1.1467288129620820669
1.146798356779291872
1.1468935209708577272
1.1470045182494534863
1.1471189412349216408
1.1472234448334506229
1.1473060565559862756
1.1473578662162464692
1.1473742023924664579
1.1473549913177703008
1.1473057305773111114
1.147236888689182166
1.1471620593345657202
1.1470961411602338398
1.1470528598690312716
1.1470413749970722606
1.1470628568690670601
1.1471099840668630421
1.1471692042081442775
1.1472240231619319495
1.1472593240752797517
1.1472651956856050326
1.1472381523548418336
1.1471814017670991515
1.1471045202878473734
1.1470212814616183028
1.1469463346414865423
1.1468906626451094155
1.1468603242251869112
1.1468561052663373001
1.1468741760402858532
1.1469076510720974671
1.1469484804274001633
1.1469891289871967377
1.1470229971058225615
1.1470446662431856844
1.1470490871677916367
1.14703189726394994
1.1469896000172972172
1.1469199287062101789
1.1468238386422406894
1.1467073973122650088
1.1465813958429411645
1.1464577366255472857
1.1463463482211122546
1.1462537315973682084
1.1461816968498399483
1.1461260105627799621
1.1460771603429513732
1.1460238722170581482
1.1459577858963725383
1.1458765752144435268
1.1457850311403476873
1.1456933277414651506
1.1456129804629409108
1.1455527169946397859
1.1455156827952610588
1.1454993289478216933
1.1454991051171836691
1.1455122822630570134
1.1455391398488077304
1.1455827097954927041
1.1456461197079244041
1.1457294436716345398
1.1458274211385914843
1.1459287507179118926
1.146017131781335463
1.146075566212713337
1.146091776913719773
1.1460618608793753381
1.1459920058617185656
1.1458978897139611153
1.1458023712514959769
1.1457304578722267152
1.145703001225829798
1.1457324758078459848
1.1458207129877320263
1.1459585959443252534
1.1461278848190534774
1.1463051502785044367
1.1464672823210200203
1.146596869148999831
1.1466842391587328542
1.1467273956124475198
1.146730811218570123
1.1467033184774682031
1.1466544005355190361
1.1465905521674968348
1.1465146749767727297
1.1464284508249156236
1.1463343598689961222
1.1462362350601638106
1.1461403441262862923
1.1460555207197908878
1.1459915169695960024
1.1459567498151592702
1.1459563331299638111
1.1459903057817466543
1.1460536199302908678
1.1461374339573218162
1.1462313708070523965
1.1463256503732415226
1.1464135096169261185
1.1464932236118943187
1.1465655305729738345
1.1466323221909426877
1.1466954617527129745
1.1467566390747392369
1.1468158134930006575
1.1468703721651456462
1.1469171861448206329
1.1469550259229104316
1.1469859309421484017
1.1470153263248394904
1.1470507163043914822
1.147099405377215442
1.1471660911379986114
1.1472514965207052384
1.145543193749668287
1.1453525164877329523
1.1464840556894630996
1.14629915367624724
1.1454238355327299725
1.1440233450443006991
1.1431493327721877762
1.144139550423121765
1.1456022001599102111
1.1454219214511263125
1.1435371477319731248
1.1421296836509158279
1.142664838089308077
1.1438866808698715527
1.1441421219997565117
1.1435093356378336349
1.1427710651101776751
1.1421960985894858975
1.1416152938919001958
1.1411303456333417028
1.1410086841364170951
1.1414340085928402768
1.1422418855047589137
1.1428053646601110671
1.1427286523415220998
1.1420694242042535027
1.1412441245584294958
1.1406646385301693059
1.140568286419238575
1.1409049852552419768
1.1413258085666333486
1.1414949844613027086
1.1412835493500297357
1.1407768670086164686
1.1402642962303695118
1.1399616117738304855
1.1399370447337013879
1.1401595144936054194
1.1407247592887723719
1.1415933995443157123
1.1423017090206186719
1.1423391608669306585
1.1416507356263618789
1.1406913851001270199
1.1400463905177327106
1.1400962455734549028
1.1406706652186318074
1.1412161950852584003
1.1412693992016549327
1.1408046989453328734
1.1401179053144256947
1.1395136962425640448
1.1391863957668006968
1.1392869383716817122
1.139800301664147586
1.14044485381848415
1.1408379655191409618
1.140826256392328375
1.1405012801487406371
1.1400665431560739194
1.1397390770721231856
1.1397347216331263908
1.1399833321983743328
1.140137132327392111
1.1399349331282255804
1.139488940031666786
1.1391435678316459423
1.1390638988701511369
1.1391845192290752653
1.1393710322572261351
1.1395164679782943118
1.1395172958301265087
1.1393261175993358858
1.139033975305487667
1.1388415329458332348
1.1388254170247387176
1.1389147633350689137
1.1390335917708649394
1.1390972854905907496
1.1391202416070573822
1.1390925115304826321
1.1389110814717984255
1.1385234597561515457
1.1380344186528914552
1.1376638533626308725
1.1376140418442641788
1.1379215913098330581
1.1384006497116763157
1.13882632594093125
1.1391041650590001399
1.13931965586358519
1.1395850055995935257
1.1398331660406224586
1.1398367388269532441
1.1394598476371600171
1.1387891879341061063
1.138078965030129952
1.1375632290059747298
1.1373684157187466948
1.1375047592075038239
1.1379183555879985867
1.1384901698703246975
1.1390357966163222603
1.1393675670016760737
1.1393926153798181744
1.1391415468934322774
1.1387347034146519942
1.1382873952917473837
1.1378412993880284709
1.1373927033343846915
1.1369842816425486109
1.1367260501157483432
1.1367301643964429214
1.1370441052228537071
1.137642287401543939
1.1384842783649824494
1.1395245288153150742
1.1406552819099766705
1.1417007920720028125
1.1425016106562826401
1.1430193835202837604
1.1433489920573387533
1.1436213666467289762
1.1439063280011931845
1.1441840691451568013
1.1444131195213698149
1.1445869921606621755
1.1447424818180831352
1.1449184607488049892
1.1451241029778496117
1.1453318846406572717
1.1454910750640232564
1.1455653270393439946
1.1455733018274674162
1.1455806229747806935
1.1456509238498573389
1.1457964090332928286
1.1459650676975956518
1.1460917183205490133
1.1461602275340163626
1.1462182065209260973
1.1463154479067356739
1.1464471332074570586
1.1465611282597765186
1.1466107338673312555
1.1465998170484150709
1.1465719540317642622
1.1465702648714723999
1.1466129194905891886
1.14669445655796709
1.1468021248289916869
1.1469180068350166568
1.1470229534007618799
1.1470989633297492549
1.1471418334037351006
1.1471648452482834379
1.1471872755247074505
1.1472289139581175466
1.1472972632957931793
1.1473923948932003292
1.1475053988530550253
1.1476225495228520312
1.1477413233798368086
1.1478745824227409855
1.1480348682382590653
1.1482151692275472943
1.1483824932042938638
1.1484847260102353239
1.1484834729591162361
1.1483890093146160716
1.1482601822824316518
1.1481713810640188367
1.1481713028301685497
1.148255198177556391
1.1483782411364882314
1.1484923073773321001
1.1485829388676629392
1.1486677407266232542
1.1487698422594680991
1.1488880722453012062
1.148993433266177977
1.1490499380294796339
1.1490409150767719737
1.1489813486384863328
1.148906806511212686
1.1488531908966328476
1.1488448314196615385
1.1488895280715019087
1.1489739653187767132
1.1464898851289746506
1.1463429238566977819
1.1462329530080792583
1.1461883800550940471
1.1462075388341486093
1.1462630660116528425
1.1463236565145340506
1.1463735233753717946
1.146411676157379711
1.1464396689598148615
1.1464558413345071752
1.1464593311124298136
1.1464565274384133087
1.1464608435322898305
1.146483751119306671
1.146526496118531746
1.1465809744154471517
1.1466394128762726901
1.14670524271370744
1.1467918106221957064
1.1469071274219027057
1.1470365897819263523
1.1471404503333089142
1.1471736320258831832
1.1471142641774121351
1.1469818384058623195
1.1468330617550697159
1.1467331809592826719
1.1467214430376073686
1.1467930184933341486
1.1469057927672701158
1.147008928154821028
1.1470728700789722954
1.1471050375946740818
1.1471414462964069081
1.147221102009174043
1.1473619699307560094
1.147550909979333289
1.1477502469263731744
1.1479173026669220459
1.1480248269496542424
1.1480717947418470626
1.1480799260703713482
1.1480806784297539203
1.14809860323786328
1.1481432711381640566
1.1482081662205652073
1.1482758219973570046
1.1483288195902561224
1.1483562679906866855
1.1483566891399061838
1.1483368720148876552
1.1483082406110458606
1.148284067252849594
1.148278733461481238
1.1483065865809074513
1.1483805680758636392
1.1485089515719513198
1.1486934837777520446
1.1489273430508240015
1.1491947110366249607
1.1494687542184041096
1.1497171323535975151
1.1499084599017801445
1.1500206452812966607
1.1500490511780849801
1.1500073225871196847
1.1499220768823990024
1.1498227850578564002
1.1497312946654305588
1.1496555308179898791
1.1495905999745958947
1.1495258294704342461
1.1494530945319696436
1.1493722651931863599
1.1492911183525924557
1.1492221006928318161
1.1491771100960861407
1.149162808587892215
1.1491769116298267139
1.1492074513906327393
1.1492369259301269402
1.1492490328090159135
1.1492340438435597605
1.1491960610894167427
1.1491500541430550442
1.1491215346283725207
1.1491335075038822122
1.1491965189445241258
1.14930171302937989
1.1494273018193088554
1.1495446294486726391
1.1496292989382541627
1.1496707534787096172
1.1496714741540996485
1.1496406857162695392
1.1495850513885930155
1.1495035885059974312
1.1493903222556502985
1.1492421709247064854
1.1490668120581586376
1.1488836186633260006
1.1487184759848680926
1.1485927496817509574
1.1485130876003222244
1.1484677799408369303
1.1484338100121789239
1.1483891395456435891
1.1483243999532788404
1.1482478899184722643
1.1481815911051402868
1.1481465538247563885
1.1481527407386018513
1.1481913576355853301
1.1482364421784736486
1.1482548685009101863
1.148219077000306676
1.1481169991002382336
1.1479553413842000786
1.1477557346625293366
1.147547115891122349
1.1473564780702634192
1.1472015346094903698
1.1470876496618835905
1.1470093905598139905
1.1469553088814541386
1.1469127813891379919
1.1468721452814492068
1.1468285680521081993
1.1467809855159079024
1.1467312187590694705
1.1466817863630294205
1.146635041101897734
1.146593245315404852
1.1465586840623189779
1.1465348063696589875
1.1465261340923358357
1.1465376523554520194
1.1465732675093129878
1.1466346378099900871
1.1467185896035758663
1.1468169931249314608
1.1469177955222040755
1.1470069949021401978
1.1470718130980379623
1.1471040438727162503
1.1471019562837274641
1.1470705636727223098
1.1470214542138477132
1.1469686727485621791
1.1469256229444591
1.1469018701637052615
1.1469017693087810716
1.1469227063933604693
1.1469560283128190648
1.1469900834031410142
1.1470128387371780754
1.1470148598645011351
1.1469918400181884355
1.1469456208029522593
1.1468831145973734653
1.146814881003326736
1.1467534656814986072
1.1467107709864263754
1.1466945450725749556
1.1467064911999262922
1.1467425371778545706
1.1467943994643472472
1.1468524401109612132
1.1469079608403225379
1.1469546851563823253
1.1469886982289194677
1.1470073542591097127
1.1470078674445249867
1.1469869747903760349
1.1469418277166163467
1.1468712521309687435
1.1467767405511204437
1.1466644871365190284
1.1465460655091208597
1.1464354949446173837
1.146344383108885534
1.1462786312058881322
1.1462375367851040942
1.1462141280648479036
1.1461966441860982346
1.1461723141083619559
1.146131744266213115
1.146072223290766523
1.1459980989041016475
1.1459191424598036413
1.145846218690263818
1.145787391463424898
1.1457459057616277143
1.1457194533159578143
1.1457027538291622015
1.1456924501627370194
1.1456899253367403002
1.145700576547107552
1.1457309317241977098
1.1457846147974126705
1.1458596114301495827
1.1459475820075926134
1.1460343300307280767
1.1461030737724804407
1.1461393959080827809
1.1461358441240010464
1.1460949509162789983
1.1460290150257306241
1.1459574184981893286
1.145902827321189088
1.1458857419641053088
1.1459195415660639039
1.1460075150293205226
1.1461416263708736896
1.1463047219671436139
1.1464744252447325312
1.1466283352424109232
1.1467489317056753784
1.146826557919426115
1.1468597167479670507
1.1468531258257750327
1.1468150996707311418
1.1467551339164854252
1.1466811721126062285
1.1465987506535919582
1.1465115092561655175
1.1464228250562924494
1.1463365719809970322
1.1462576767286591917
1.1461924770340536917
1.1461479340187732401
1.1461292772582531985
1.1461380975126802539
1.146171748645977706
1.1462248979078948352
1.1462910804359558448
1.14636484513398762
1.1464427384416857603
1.1465231493247305394
1.1466066064458961815
1.1466948754216150785
1.1467880407221047179
1.1468833459450411549
1.1469752362658620637
1.1470571371020756857
1.1471236559989985704
1.1471720847707389535
1.1472028385171144649
1.1472209279425091832
1.147235420969686448
1.1472566436443378812
1.1472934046256828555
1.1473500737525950122
1.1474250215494523619
1.1421721697595559331
1.1426864124332323236
1.1449388593216183185
1.1453175842854022015
1.144400313360153465
1.1439054533805184111
1.1435497616565959422
1.1442400639848671062
1.1454640032954530593
1.1454938891150705516
1.1437347696472548453
1.1420648904597237028
1.1424035923080959609
1.1435840878635732398
1.1437609621799027515
1.1433976077231986501
1.1432148991676722716
1.1425716116587627535
1.1413604855642027758
1.1405552912334318005
1.1406456758425413955
1.1413690022980040872
1.1422294661012291073
1.1428531423644792131
1.1428723139389793673
1.1422431745217631605
1.1413603957899092212
1.1407117811523461715
1.140582530179266918
1.1408953771780399045
1.1412984835121946503
1.1414486112802173512
1.1412626191966654954
1.1409062362571686933
1.1405957511101525448
1.1404092370082130614
1.1402619113953997854
1.1403280349014703887
1.1408771807820152766
1.1417404805540078971
1.1423930277405067724
1.1422942283744041969
1.1414672700683916595
1.1404672810782665593
1.1399967356986986378
1.1403025065246921166
1.1410319121585146274
1.1416044271436169844
1.1416415716809873437
1.1412134007734950902
1.1406176704641912689
1.1400310136174951481
1.1396134133697126689
1.1396903938460416494
1.1403196169851075314
1.1411174071207963454
1.1415412920561145427
1.141365338849572808
1.1408153152724027635
1.1402084788221489298
1.1398816448547932634
1.1399422721639762557
1.1402405427470871935
1.1404467947531420347
1.1403131841234050992
1.1399195485727067201
1.1395520054537597865
1.139396546248883979
1.1394389704050174039
1.1395672685401272428
1.1396221052517989669
1.1394675858336063001
1.1391742560383193439
1.1389326662127623457
1.1389073713597257509
1.1390777375825400508
1.139273079440668468
1.1393913019773529438
1.1394413058274506234
1.1395152781542441378
1.1395733135217214205
1.1395089914472842363
1.1392405048360048081
1.1388005913800447466
1.1383492522717915119
1.1380976693764570662
1.1381703518174164369
1.1384871255999489126
1.1388375001639372552
1.139076748799422667
1.1392412973592016545
1.139417927242469375
1.1395796650126057692
1.139579571745475528
1.1393077823509503155
1.1388156003649256842
1.1382647778930214955
1.1378272996332869926
1.1376254775841219136
1.1377129479468084394
1.1380517143056236851
1.138523917156825993
1.1389360299661579479
1.1391566038668656802
1.1391171719363388792
1.1388577081435131699
1.1384778694026289614
1.1380860342334659929
1.1377232091298221661
1.1373679993441070391
1.1370252188495386658
1.1367859311788974797
1.136762728305466208
1.1370189892706237256
1.1375518066436740572
1.1383059574269285275
1.1392443773147626906
1.1402957894564933472
1.1413184188672982344
1.1421646804067482339
1.1427756453260276004
1.1432015679682905329
1.1435371484235510309
1.143834900366916596
1.1441043302688755912
1.1443400741444900159
1.1445548448440232558
1.1447669839363001643
1.1449842314404823362
1.1451873856083869541
1.1453413143338504465
1.1454116847204236507
1.1453922407034160535
1.1453214854161395397
1.1452735292688296376
1.145314585269143981
1.1454600463939603738
1.1456676891261285967
1.1458692835233674767
1.1460259412105404664
1.146144857584227239
1.1462382484333537569
1.1462907074480113145
1.1462743385542339958
1.1461878177268105539
1.1460732118545735592
1.145991541078610565
1.1459880886057725036
1.1460743212227089138
1.1462391559957518794
1.1464457658312123822
1.1466425790889991365
1.1467777004396046969
1.1468244488512417956
1.1468006178080942803
1.1467593874357588923
1.1467504003155211123
1.1467986301679957695
1.1468969994626816433
1.1470251856490365494
1.1471642938630266517
1.1473166965015260121
1.1475034298445683234
1.1477401659536770051
1.1480211636792871932
1.1483069002375663192
1.1485234862193571814
1.1485920027804699117
1.1484788352039374537
1.1482295885539497426
1.1479547289575531277
1.1477726703344597325
1.1477514071067611567
1.1478819160559832202
1.1480938142836505378
1.1483066988869015113
1.1484813494475072382
1.1486222709821491961
1.1487429495001086899
1.1488345908634738368
1.1488674670926368737
1.1488245169001449764
1.1487231294572080031
1.1486098457007440921
1.1485366980618274546
1.1485372435054503892
1.1486153609453755298
1.1487471734476815133
1.1488920107200080167
1.146368761770950595
1.1462838028746558106
1.1462082674571199004
1.1461728634095591506
1.1461907511924043224
1.1462511953467580117
1.1463289890160779372
1.1464005923490305783
1.1464512923856449156
1.1464734741719566635
1.1464661567023337607
1.1464367866410272168
1.1464023809444146007
1.1463847610939821298
1.1463990810339619308
1.1464454056040405128
1.1465116363029581592
1.146585579335193561
1.1466658399715627947
1.1467602573845983027
1.1468725814387692452
1.1469897038148155755
1.1470800879679461381
1.1471097355270194473
1.1470652466851669615
1.1469663792671465075
1.1468602601339885627
1.1467986019371607664
1.1468101758495594655
1.1468859424877351216
1.1469884323307766305
1.1470763952026343802
1.1471286739228954143
1.1471556980365831269
1.1471919924900779719
1.1472745762568128391
1.1474211891508236949
1.1476173434027543419
1.147821143821779355
1.1479838685847489899
1.1480729191634051478
1.1480867914729939727
1.148051994388499697
1.148010293204159149
1.1480001955180862971
1.1480419027233021989
1.1481330202251172068
1.148250623675026727
1.1483655439773674534
1.1484560380427086823
1.1485124755933442398
1.148536764519455966
1.148538771520941637
1.1485317077123811114
1.1485298543938800009
1.1485483863819576644
1.1486027145058468335
1.148705742829264187
1.1488636946714398945
1.1490711728126337121
1.1493089025109775037
1.1495467166775625856
1.1497510651533646708
1.1498940382778113367
1.1499630512779077662
1.1499635282036748674
1.1499146731725151671
1.1498413126847353283
1.1497648595057976539
1.1496966051469597048
1.1496361767377385465
1.1495752159091443545
1.1495051989789293323
1.1494230633239443939
1.1493330961503811505
1.1492453605747565692
1.1491723524120383004
1.1491252104764289044
1.1491096467643955314
1.1491231994330075583
1.1491558169853339777
1.1491930964007108784
1.149220100931286126
1.149227240418019047
1.1492152637783874525
1.1491964402165781856
1.1491898462103355971
1.149214040868552722
1.1492756623097468704
1.1493693427205355917
1.1494758806641773852
1.149570929500331129
1.1496361713232376989
1.1496646950575311052
1.1496595915499217
1.1496274599991551657
1.1495703517342781286
1.1494831493910293574
1.1493578836419149347
1.1491934221996769061
1.1490019684741183958
1.148808493678265652
1.1486416135553738638
1.1485220394360069474
1.1484523993839343969
1.1484156648514869392
1.1483840110903880127
1.148334017539931029
1.1482578324528680547
1.1481667669232022977
1.1480846356457981017
1.1480345339430340079
1.1480255615878594
1.1480458334745409221
1.1480660743674444557
1.148052149658885579
1.1479788383106761529
1.1478394277687107294
1.1476480356383205184
1.1474329784249650555
1.1472266500823327107
1.1470552184397391215
1.1469318768276677289
1.1468551919059366551
1.1468119655404525048
1.1467845729608865391
1.1467576978770386287
1.1467227750822890364
1.14667905538702386
1.1466306280608915547
1.1465832510581230874
1.1465408011636557539
1.1465040144377771636
1.1464708685668032473
1.1464388468242214802
1.146407161741092251
1.1463787911048888279
1.1463598672572918868
1.1463584727767395233
1.1463819769116581071
1.1464335557854758996
1.1465096355267070383
1.1466010037701099833
1.146693707682094221
1.1467729684389378342
1.1468268426332397514
1.146849921265647998
1.1468441056545173318
1.1468187695520246638
1.1467869503177425816
1.1467602023443674852
1.1467458538860300088
1.1467462065172357999
1.1467584986741834463
1.1467757009385461942
1.1467887554321467558
1.1467889686072547661
1.1467697148142796948
1.1467289422818263134
1.1466704997565222435
1.1466034077536420011
1.1465394985324763866
1.1464912888008520486
1.1464697778577361831
1.1464813561233382355
1.146525538143806644
1.1465951921140999925
1.1466782444147118891
1.1467614464589357404
1.1468336695991454555
1.1468881388424789769
1.1469225771643654088
1.1469374515201811171
1.1469335388669164022
1.1469102230526524444
1.1468664961310774952
1.1468021721377155142
1.1467194592863529934
1.1466242192964715141
1.1465266932968847247
1.1464398171954170991
1.1463749304151571451
1.1463376204271329417
1.1463260744074679209
1.1463321187179889016
1.1463437952426909217
1.1463483829644409706
1.1463360263243795867
1.1463026370486437688
1.1462502802756351361
1.1461859261276614586
1.146118565586087934
1.1460556882270269696
1.1460011444564357497
1.1459553947923293293
1.1459161665546353515
1.1458812508914750783
1.1458519622433027685
1.1458335813821018956
1.1458337724712364114
1.145858764482992953
1.1459095905448311026
1.1459812102119637522
1.1460629629496841275
1.1461405782219493688
1.1461996692434865963
1.1462301189134347368
1.1462295328939029471
1.1462045725313594335
1.1461692220088859351
1.1461412694639254717
1.1461384392223405992
1.146173629899531754
1.1462512757071658953
1.146366086537640383
1.1465042779159848596
1.1466470858712447534
1.1467753975708787628
1.146873972707338929
1.1469346663018920029
1.1469567594526923759
1.1469449578539918644
1.1469069471946740091
1.1468507003078505235
1.1467827059272968082
1.1467081018895992628
1.1466310845053768741
1.1465555294181044577
1.1464859885154297103
1.146427618688032446
1.1463854226199270414
1.1463630900253212186
1.1463619904908850522
1.1463802683423269801
1.1464132181819586265
1.1464549455107566622
1.1465007372963507137
1.1465489386555458573
1.1466017833299451123
1.1466640501709199906
1.1467407270738467773
1.1468343747166629409
1.1469434560375533216
1.1470612224134053569
1.1471765818884802624
1.1472773841551089369
1.1473546539382968312
1.1474050384915708278
1.1474315762250979489
1.147442757905046129
1.1474498692995103166
1.1474642209075502919
1.1474939969391302341
1.1475420139930747609
1.1476049814520268288
1.1476748867047319447
1.143594523225505144
1.1421295222982297268
1.1430301123149497755
1.1429853876252333844
1.1427260738001976392
1.1427075645002262583
1.1428995058214721503
1.1435537517421778819
1.1443588593384816932