/*--------------------------------*- C++ -*----------------------------------*\
  =========                 |
  \\      /  F ield         | OpenFOAM: The Open Source CFD Toolbox
   \\    /   O peration     | Website:  https://openfoam.org
    \\  /    A nd           | Version:  12
     \\/     M anipulation  |
\*---------------------------------------------------------------------------*/
FoamFile
{
    format      ascii;
    class       volScalarField;
    location    "0.00518";
    object      T;
}
// * * * * * * * * * * * * * * * * * * * * * * * * * * * * * * * * * * * * * //

dimensions      [0 0 0 1 0 0 0];

internalField   nonuniform List<scalar> 
75962
(
300.23560124573435814
300.43855549299894392
300.47474153944949649
300.41245356253585896
300.25070726047812286
300.16432614641735199
300.11558030109534911
300.1187441157699709
300.19896242500828976
300.32214098672517366
300.43933693611779745
300.55966341113355611
300.67562732343122889
300.70705902830906098
300.64579485603155717
300.55275094032657535
300.51015836201952425
300.60279314345399371
300.7845878806139126
300.8971405827325043
300.85289515554524087
300.69571472197645789
300.51336741485181392
300.37059482312935188
300.3024135581992482
300.33010382381883119
300.43649891958011722
300.56309621474798632
300.6633875065057282
300.71441656841835766
300.69789829249759805
300.62178688518298486
300.53568910803375047
300.50755808391630808
300.56833642315950783
300.67990448711913132
300.7679308883197109
300.76774585250893779
300.67014771954978869
300.52013240019414297
300.39374710317309791
300.35257996330477681
300.41179447433637506
300.52475841342226204
300.61212951203026478
300.61786621120910468
300.54448270978576829
300.4330080486814154
300.35319610893498066
300.37372246282541255
300.50321477036840179
300.67045381823362504
300.77640707812190612
300.76122688936430905
300.63133006622490484
300.45190266826335801
300.31768263694289089
300.28636203907615254
300.34214484831886693
300.41851991407548894
300.45456307044264577
300.45455617505797363
300.44663227988269227
300.44643339729572062
300.45653566209625751
300.48541831066802388
300.53517997922983795
300.58277937545625491
300.59803981785489668
300.5761927621255154
300.54329920617061589
300.5202046812182175
300.49926271488249085
300.46631405807386272
300.40877623322035106
300.32392665718509761
300.22765939760438414
300.14932920856523424
300.12286351673702711
300.16968522160163957
300.27965613612002471
300.41383657847541144
300.53052641237536591
300.61266038936150835
300.66612012062796566
300.70023464148323455
300.70492992548253142
300.65479261406062506
300.53513860257930901
300.3651801268838426
300.19439931802321553
300.07838701094220824
300.04503259138209614
300.08640271315681503
300.175396111910743
300.28823697291278449
300.406362283187093
300.50971296029206314
300.5749230126014595
300.58360697808723216
300.53571467704460929
300.44813249446934833
300.34912667863545721
300.26573720928865896
300.22075554385168061
300.22922074197401798
300.29494480777714216
300.40424243192637732
300.52974307551960464
300.63844766258307573
300.70641614023071497
300.7211230946094247
300.67838242420310735
300.57908800164591412
300.4297380660550516
300.24602503156370403
300.04564647934284949
299.83831320295956857
299.6236561504164797
299.39993542921632752
299.17425261885892951
298.96401433838815365
298.78682305717859435
298.65041567031738623
298.54952719444781906
298.4749106303879671
298.42039833475672594
298.38537059142504404
298.3700209362839928
298.37121351317665585
298.38152831284475042
298.39213646294081173
298.39769266597221531
298.39979974562834286
298.40523948799693699
298.41952182286706829
298.44151530352775126
298.46265974782465946
298.47472223483873677
298.47703909954020673
298.47754685950701514
298.48569051267492114
298.50383510115182162
298.52583218005923982
298.5433434582645873
298.55282289262743234
298.55690910473333588
298.56052157728890961
298.56644059550728798
298.57406171895712532
298.58216016510755253
298.59028442207443277
298.59827640119340231
298.60571354589899329
298.61195006175353228
298.61648819595041005
298.61971133569898029
298.62388099355496252
298.63206517205020418
298.64559718085223494
298.66308951142747219
298.68074728283079367
298.69505105648266863
298.70566373024860241
298.71470365142744186
298.7239601055294429
298.73369402118328253
298.74271948466838467
298.74957870239603608
298.7542078489495907
298.75826751311649332
298.76422995059152754
298.77377728956037117
298.78631452974087779
298.80013445302660102
298.81437821684812661
298.82992120341452846
298.84879145279830936
298.87242369680359388
298.90009232727686594
298.92884714534085333
298.95442759515009357
298.97317096662789027
298.98347830234985167
298.98625304734673591
298.98443533060714117
298.98190173211759202
298.98210285780811546
298.72881129353646656
298.71429253119100622
298.70716239090256749
298.70671340844711494
298.7097542992222543
298.71338550434916215
298.71670954526308606
298.72014701582702401
298.72397252703365211
298.72765335227597916
298.73033859403676615
298.73190475319989901
298.73331138309794142
298.73578593613473231
298.73979742757614986
298.7448625496308523
298.7504552087369234
298.75708852378869551
298.76629853312459772
298.77905577118309566
298.79377214189759115
298.8058733015051871
298.80981748430832567
298.80249799048760906
298.78573253162852552
298.76584202302751692
298.75054074512763691
298.74512211351589031
298.75019512451194714
298.76183898765782487
298.77428020688404331
298.78353002346517542
298.78943723454744941
298.79499982506160904
298.80392413360306136
298.81801582217212854
298.8360901005875121
298.85487177416922577
298.8709919281033649
298.8826919628652945
298.89030665962451394
298.89568686758025251
298.90077968551798904
298.90663786814741343
298.91293568999412855
298.91821629259032989
298.92098553101425296
298.92046593221584772
298.91675844851386046
298.91091401391878435
298.90452285324118975
298.8991457321843086
298.89602146747324696
298.89614354855956435
298.90033841672675408
298.90926582715678705
298.92332763218723812
298.94247335422551259
298.96623567880794781
298.99345994526748882
299.02219057253836354
299.04948596554146434
299.0720929407177664
299.08707640477007317
299.0929981648522471
299.09058351595479053
299.08252297302050238
299.07230542905591619
299.06271797340446028
299.05500742071853892
299.04890827116469154
299.0432341793039086
299.03685099118865764
299.02947478539954318
299.02179526503437046
299.01511108427143881
299.01071063621594703
299.00934822194858498
299.01081133978641446
299.01376384655287666
299.01614498532376274
299.01608827284076142
299.01261003738409272
299.00629706800089025
298.99917856501247115
298.99409270160299457
298.99380223441249882
298.9997402151372512
299.01106062849294176
299.02497826855454832
299.03819562136175136
299.04796682483674886
299.05294060435045367
299.05347535504739653
299.05077207686741758
299.04599829117546506
299.03941981609165168
299.03042567530371798
299.01826827945609466
299.00292826120011114
298.98565660653741816
298.96871019599899455
298.95442488850795826
298.94412757701650207
298.93758910726063505
298.93325251970503587
298.92921901553131647
298.92431773063100309
298.91876412074333302
298.91389259348471796
298.91165691447338304
298.91320685773524701
298.91811172937144647
298.92419744897267719
298.92848477759537218
298.92811699358230726
298.92135895736737439
298.90815608729070618
298.89003381723796338
298.86948915868725862
298.8491665497429608
298.83109384372392014
298.81626522320914319
298.80472934747103864
298.79589748637016555
298.78893163244572406
298.78305737175361401
298.77770865898281727
298.77254604448387454
298.76744388086103754
298.76240608032935597
298.75751981506931543
298.7530460302526194
298.74946784759538332
298.74755033332303356
298.74810944493793841
298.75177768600224226
298.75871859918606788
298.76849681132449632
298.78011506677484022
298.79225398673031577
298.80345958052402011
298.81239482473625912
298.81804118214148502
298.81984878062968392
298.81778227050608621
298.81241814944979751
298.8048903906792475
298.7966905316581574
298.78946281353222503
298.78472831687912503
298.78351087741208403
298.78595548300700102
298.79125959874954788
298.79792518875979113
298.80411974263432739
298.80815533128480865
298.80892026163093078
298.80601748202343515
298.79979659353790566
298.79132259990325338
298.78212250049762133
298.77382235530603793
298.76764994003110587
298.76428579050877943
298.76382501392237145
298.76584988848168223
298.76960213298508506
298.77418742680089281
298.7787656659029949
298.78259560677497575
298.78507266379767771
298.78565201989158595
298.78387261625653082
298.77937426481929606
298.77192944509891959
298.76165227842369632
298.74920286596733376
298.73574446571677754
298.72256720532084273
298.71075497517256281
298.70101762803864176
298.69355039295578536
298.68789208777786826
298.68300421339012019
298.67764302041683777
298.67086840539496961
298.66239441253321729
298.65271641618596732
298.64293417474550552
298.63431257047767531
298.62782698443282925
298.62385576180389535
298.62216144371689097
298.62227311670903873
298.62388530374948914
298.62699754443229949
298.63190630178519314
298.63893082956207081
298.64807841706164027
298.65879399919879233
298.66986868748580264
298.67954506438422868
298.68596788649909968
298.687762160524926
298.6844486012008133
298.67665561640126271
298.66607597479639935
298.65521097868520428
298.64681616313561108
298.64321215965719603
298.64581745817866931
298.65487893234325156
298.66942305282600501
298.68746005542044486
298.70642018538916318
298.72376780826130016
298.73759781837338778
298.74686081630972012
298.75135613706402182
298.75160474216062312
298.74860883070704176
298.74342261557774236
298.73675006849703095
298.72889297501546935
298.72000863298450213
298.71032067730470771
298.70019856882942122
298.69028966688023274
298.68151913977828826
298.67489974421397392
298.67129543312603346
298.67121041537325254
298.67462038841523508
298.68097923478342182
298.68935785026548047
298.69868853859577484
298.70799028224240601
298.71662643621550615
298.72448631194890822
298.73170503348887905
298.73851626712263396
298.74512651516948836
298.75168959345501207
298.75814792110907092
298.76416443728595596
298.76935878802356683
298.7735617750437882
298.77696241272309408
298.78012354283225704
298.78384133340654216
298.78891344260995311
298.79585869966399514
298.80479386389782803
300.26045951090588915
300.76437638923846407
300.8814192938564247
300.65344903487664396
300.41767545635724446
300.23990621481050312
300.09927132235702629
300.11538177462261956
300.27088433884858887
300.43774042749845421
300.53227719649385108
300.60514177744369135
300.70850242143251307
300.75065896243233965
300.66832987279877898
300.5646729276193696
300.56318644372885274
300.67586588799292713
300.81608449265030458
300.8958939498341465
300.86655302443597293
300.74377973095511152
300.59004541440970115
300.45368540105323518
300.3776915382121615
300.38397768207465788
300.46693522739053606
300.58689577252329173
300.69220212788087565
300.73870668004190065
300.70137585818207526
300.60151726870981292
300.50239204154371464
300.47201692044410493
300.54650063945155125
300.68975280090563729
300.81334754176810975
300.83142954087747967
300.73544050256219862
300.58578566947807076
300.45379782561968796
300.39475278507546818
300.4315789448776286
300.5379544907045215
300.6420845529804069
300.67643192857690337
300.61042917237421079
300.47615119544315121
300.36264622399062318
300.36391093131908292
300.50134704086121928
300.69371792038754165
300.81720275613355398
300.80363848148641637
300.67522600842704605
300.51004247277012382
300.38830978285278661
300.35769504014797349
300.40688838915963288
300.47889025991440803
300.51838738900352155
300.519408017520675
300.50323829314362456
300.48832035582734079
300.48609941887838204
300.50726156292893165
300.55303621962406169
300.59809478303219521
300.6123650904033866
300.58928882954575101
300.54725419310847201
300.5053207423737831
300.46895549134762859
300.43469126089513566
300.39964725591721617
300.35554131701286451
300.29906880681915027
300.24632009859277559
300.22073591615816213
300.24764799322235831
300.33068479958160424
300.44234178836018145
300.54663896241140719
300.6221993270838766
300.66709839923333902
300.68848253496804546
300.68519693991493114
300.63908421150756567
300.53496094419074325
300.38209519715172746
300.2215443274741915
300.10560286235721605
300.06402969918246981
300.092214279250868
300.16910461486776285
300.27283064345391494
300.38474269870096123
300.48279579266710471
300.54436484838896604
300.55374331736038584
300.51196082216409877
300.43472796533950486
300.344509710272348
300.26508353648904404
300.21959214105078217
300.22586612765491054
300.2909327217330997
300.40474782806307985
300.53917681951622853
300.65749002796957257
300.73040563926906543
300.74364377396409509
300.69450733694048949
300.58621544918833024
300.42604267899366732
300.22872794062868707
300.01362039829911055
299.79420248695441842
299.5735898206636989
299.35110907321774221
299.13276383840161543
298.93322209393738831
298.76698555306262506
298.63933735051659824
298.54435850818941844
298.47309536248883433
298.42012090225676957
298.38486680854299493
298.36723228174327005
298.36414770915547479
298.36910949124563786
298.3740946248337309
298.37386846710552391
298.37020693343839639
298.37058305970771244
298.38208562157240067
298.40554558238210348
298.43389049336883545
298.45780941950903298
298.47305086776862026
298.48279211810086053
298.49163034043624521
298.49961122540480574
298.50278370449120757
298.4984037990429897
298.48926847433847342
298.48200734990075489
298.48229058261040336
298.49194335982201665
298.50918032313302319
298.53077930931925721
298.5528669419973653
298.5717627825067666
298.5845819714347158
298.59076539354077795
298.59250335398337484
298.59332846223105662
298.5969791715745032
298.60542724235119749
298.61898744063819322
298.63622297348234724
298.65468818151714459
298.67306024667840347
298.69187865959565897
298.71199155277457749
298.73255679637645699
298.75033731621658717
298.76040318871662294
298.75943045701609435
298.7492843597024148
298.73691761309737558
298.73078896658660142
298.73646188735307305
298.75364248404326872
298.77746940327159564
298.8024219241634114
298.82630039159846547
298.85020898971856695
298.87594364975302597
298.90290456432279598
298.92767500584955087
298.94613406950497847
298.95618267934031564
298.9591225141969062
298.9586206461261213
298.9586189364857205
298.96200828381086012
298.97000387948236266
298.98155046344237462
298.72642552063450694
298.71123456814115116
298.699753979868035
298.69502587869345689
298.69706200707088328
298.70314089573827232
298.70995022232568772
298.71565191622636348
298.71994478935465622
298.7228999025290932
298.72438232464679686
298.72442701037624602
298.72384302243398224
298.72412871354276831
298.72650097845507844
298.73104772456213141
298.73685045290022799
298.74302463531364538
298.7498831219920703
298.75882047929871987
298.7707138778153535
298.78409667190516075
298.79485068107197776
298.79825934579929481
298.79199915016448585
298.77807491741810964
298.76242285837952295
298.75192076938844821
298.75072992913669623
298.75834636344711726
298.77028748177315265
298.78111690404057299
298.78764675122710059
298.79065505406060765
298.79403069999426634
298.80204770447284091
298.81676217288332964
298.83688460480527738
298.85841569006208829
298.87672562428855372
298.8887324960722367
298.89415355882795211
298.89518104925906528
298.8951427952516724
298.89671682883448511
298.90101360515950546
298.90742926608118069
298.91416435587797196
298.91939945840789505
298.92201060788551104
298.92188625088101617
298.91978373058321949
298.9169176524451359
298.91463762748259114
298.91435625494449368
298.91746863693492742
298.92525863813148135
298.93859109633683602
298.95770790784888504
298.98198655786796962
299.0098618043647889
299.03858929640904307
299.06478557504755145
299.08513074744007554
299.09723951471471537
299.10054355264747983
299.09641001031604901
299.08759868079232547
299.07721224266964555
299.06758668510792631
299.05960589679460782
299.05277339567618355
299.04593831228038425
299.03818809141438351
299.02945872187240184
299.02056530258556677
299.01287110757618848
299.00772147042363258
299.00590750583916133
299.00724302176945457
299.01046123094175755
299.01367673781243184
299.01512852009176413
299.01378110816352773
299.0100646890549001
299.00555289439273565
299.00288079666381691
299.00441786724894655
299.01121385813570441
299.02229978625371132
299.0353863141393731
299.04752263491383246
299.05621967439344644
299.06043704796218208
299.06048468768193516
299.05736041362314381
299.05176356372544433
299.04355786245002946
299.03204488576449194
299.01680631652141074
298.99855716516901794
298.97927509936022261
298.96168289174596566
298.94809643212249739
298.93932266032902589
298.93423410203314461
298.93047505043199408
298.92573238488284915
298.91898132305027502
298.91104263698167642
298.90420646061016896
298.90070241433659248
298.90160215931501853
298.90599919344731461
298.91114420006391583
298.91349811594079711
298.91008831828690973
298.8995807866365908
298.88265111534866492
298.86158181914873921
298.83945407076191714
298.81915062353800749
298.80256422272037753
298.79027704291212331
298.78172885147097304
298.77573796422603891
298.77101344908339797
298.76658470186322347
298.76198473060168226
298.75711717671913448
298.75214948692882899
298.74727908394339693
298.74266368327050714
298.73845699675899823
298.73485895689157132
298.73223926127667482
298.73111995838081612
298.7320827979727369
298.7355896742517416
298.74185274849003235
298.75055881853086248
298.76084987633225865
298.7714424785148708
298.78083163072147954
298.78763890709967654
298.7909680042393461
298.79062558238337033
298.78714133054609192
298.78175469822775767
298.77598499428512469
298.7713036946464058
298.76878277921963445
298.76892680957962511
298.7714693707035849
298.77545844070533576
298.7795833440518436
298.78246983255587566
298.7830187802154569
298.78070279589002212
298.77568811909765145
298.76872296305509735
298.76098746564122166
298.75390776181194497
298.74884599128864693
298.74670956434601976
298.74773374679040217
298.75150749997305866
298.75713771524925733
298.76355850464409514
298.76978697421037623
298.77509482189623213
298.77901775211114455
298.78124236613467701
298.78145928656959995
298.77932883371852313
298.7745660238116443
298.76706296877711111
298.75699140597271253
298.74501852606766761
298.73238180089595062
298.72058427375185374
298.71088555640170625
298.70393949811676748
298.69968489901970088
298.69737502780412797
298.69573370316032879
298.69336876362859812
298.68923817950025068
298.68301715342585112
298.67515431601822229
298.66670561484556856
298.65886975722992247
298.65255639204377758
298.64815268207104282
298.645436993361443
298.64385409065840804
298.64303588412008139
298.64309893155012787
298.64458269201679741
298.64815533815715298
298.6541886435323363
298.66245632903167007
298.67205705378421499
298.68145486430762503
298.68882748059985488
298.69260371722674563
298.69196056859220789
298.68715997920207883
298.6795413860941153
298.67123706862508925
298.66474703260843171
298.6623331187823851
298.66547181059200966
298.67453385777713493
298.6886499603891707
298.70595118046986727
298.72400416885290042
298.74037869208194707
298.75318592097966075
298.76140172938585238
298.76488954977963886
298.76417976436243862
298.76018521517221416
298.75394069131249353
298.74629222504182735
298.73780655978089271
298.72884306601372373
298.71973129459320262
298.71085668760048293
298.70272987973919498
298.69601983226021957
298.69145634879896534
298.68957150351138807
298.69049523618593867
298.69390448516031711
298.69920584558582277
298.70571205179874141
298.71287132124865593
298.72037474490804243
298.7281347533198641
298.7363017120043196
298.74513723696333045
298.75470225422913018
298.76471845694163676
298.77457130928013385
298.7835132015312638
298.79089898054888863
298.79636226391016862
298.79988511057405276
298.80196849292241268
298.80356204018846711
298.80576454375437834
298.80954039893316576
298.8153760666111225
298.82314979888047901
299.94103795732985418
300.36973499720329528
300.70114106063851978
300.61204997597286592
300.37928855547568219
300.25209497475105991
300.13793990852406068
300.13946361200390811
300.3004128206526957
300.49348116942263687
300.58092512501099236
300.60775001917454574
300.68715435965361849
300.72489083011936373
300.61952330353773277
300.51819654754297062
300.56252850697268286
300.68163348381432343
300.78273744541166934
300.85108571179000592
300.85146373332014491
300.75440025237344344
300.59799074476717351
300.47025322075171516
300.42156557093483116
300.45341389742338833
300.5423869937134782
300.64817097256286615
300.72692737251873041
300.7405479542318858
300.67307903014739168
300.55249787339340628
300.45202612658403041
300.44916584450186292
300.56740459556891665
300.74572537434096375
300.86663732241959224
300.86010772603191299
300.74419428083780303
300.58237278558249272
300.45282619203754848
300.40717695819495248
300.46255455316725147
300.58505810536212266
300.70542313625395536
300.74421636140806413
300.66215572684399149
300.50341628158668073
300.37714709184427875
300.38760752163182133
300.54544076262368435
300.74263536757729298
300.84628025426781051
300.81344749005830863
300.68802384960355312
300.54768908081240397
300.45601295635390215
300.44164007151209717
300.49218561058199839
300.55293109323247336
300.58199338079418794
300.57121756457354422
300.54296958304928467
300.5234509350332246
300.52553039256332568
300.55177321652269029
300.59190689769701521
300.6200983522005572
300.6133283572472692
300.57265362220056204
300.5166346116751015
300.46395754915658927
300.43213409244322065
300.42453708580109151
300.42918052790082584
300.42263645720345266
300.38842762489178995
300.34011284376117601
300.31127241066184297
300.3366156254101611
300.41643342633801694
300.52275613911439223
300.61788970292167278
300.67600713444312532
300.69369423845574829
300.68400480133664132
300.65847668835351669
300.61017408372191539
300.52161256577159065
300.3904111918009221
300.24622845566989326
300.13422490418179223
300.08647121780956013
300.10713977267721475
300.17988812880219029
300.28199916373671385
300.38863465405387387
300.47544173385136901
300.52362638528683192
300.5251527583659481
300.48299301843297826
300.41050832964788242
300.32510970813086715
300.25275912907079601
300.21663820424299729
300.23329005489722476
300.3055060503762661
300.42088346791757658
300.55110939266870673
300.66000838584733401
300.71865718853973704
300.71591531769610128
300.65330696631838236
300.53734072650996723
300.37633996776975209
300.179384357855497
299.96136785204038233
299.7354430522311759
299.50678477475793215
299.27755510113303217
299.05546425806295474
298.85507111197665608
298.69063669165558395
298.56714844016698862
298.48121600161982769
298.42523192991285441
298.39251924742711708
298.37735553512686693
298.37415069246679877
298.37622755277629949
298.37717711481906235
298.37247370473221508
298.36179674761820024
298.34998285445095689
298.34529340102733386
298.35427774053442818
298.37702088174944492
298.40680729995585807
298.43422079419042348
298.45362983441907545
298.46541351974371992
298.47158497487572504
298.47186539172327002
298.46485920703730699
298.4518986936088254
298.43856836216485817
298.43193055054791785
298.43659954688268954
298.45279767825422823
298.47785742249180885
298.50642468797803986
298.53201002639860917
298.54872387849968618
298.55386675118319317
298.54994999622425667
298.54371140914810212
298.54177672628640039
298.54798933522357629
298.56212708645523435
298.58166970713290311
298.60350931779629491
298.62653657371913596
298.65191070232953052
298.6807417220667844
298.71234316292202493
298.7428361890861197
298.7650190405702233
298.77132028402451169
298.75899646121604292
298.73362140747667581
298.70750822431733695
298.69363850542134742
298.69942876014238209
298.72389202442406031
298.75926929835543433
298.79640296126115118
298.83027904726526458
298.8605428272016411
298.88802298507846444
298.91140700129739116
298.92730961808183565
298.93369113529269043
298.93219635171516302
298.92764091488390932
298.92557475364890252
298.9297759777449528
298.94103130194918094
298.95720557534440331
298.97430181638821978
298.71324465700888595
298.70482213019380424
298.69720690538434837
298.69362216331302307
298.69559940730505332
298.70216864638143761
298.71071254032329989
298.71863842430525438
298.72422694600396653
298.72656846893153215
298.7255765032078898
298.72215037368897583
298.71821811907244637
298.71617103864025466
298.71762439107362752
298.72253009706690818
298.72951231760345081
298.73718748933430334
298.74535984052437243
298.75488363461363406
298.76625128257671804
298.77820105782501514
298.78750089018569724
298.79059446703956837
298.78602828764024935
298.77580890350719756
298.76483712448549568
298.75853160385730689
298.7599202956089357
298.76803240604323264
298.77886747069356943
298.7880175185860594
298.79322578501398766
298.79563815488302225
298.79901179912729958
298.80741606344389538
298.8228718336537213
298.84391222929377818
298.86606619159698539
298.88401537081881543
298.89411075972248
298.89599570169872322
298.89238157969293752
298.88768037568877389
298.88606536787960977
298.88981709123487462
298.89882539754324853
298.91077195788813015
298.92260989959333983
298.93205071445498788
298.93807977535874443
298.9408848703447461
298.94146128635071591
298.94111401525685778
298.94122634969659202
298.9432821455631597
298.94884435482805429
298.95929519960373
298.97539880416030655
298.99673955372099954
299.02142804628562089
299.0463610735392308
299.06800267754505285
299.08334275962943138
299.09095304529836312
299.09131713646803519
299.08641043399023829
299.07885010446545948
299.07093019667132694
299.0638889512237597
299.05771057701872451
299.0514860617533941
299.04424076551617873
299.03556899124288293
299.02587893674024144
299.01625362781334161
299.00808777172289865
299.00266071186734962
299.00066047795871782
299.00187193097798399
299.00522870896401173
299.00918897258173956
299.01216089641928875
299.013129202899961
299.01217140867026956
299.01055549964246438
299.01022693022986232
299.01306370313761818
299.01969296670716858
299.02951766637789888
299.04056281762882463
299.05033888145231913
299.0570075291844887
299.05991607823176537
299.05943152121801631
299.05625127507335037
299.05056591341303829
299.04177851678605293
299.02896791066024207
299.01191333277608919
298.99181998362195145
298.97128792151289645
298.95337054272653177
298.94034684950963765
298.93262103853584222
298.92850585576627509
298.92511416556925496
298.9199498912458921
298.91211516654391289
298.90273030045244695
298.89427496749698321
298.88920687073959925
298.88853964953449349
298.89106099129833183
298.89367620531578496
298.89271425127770954
298.88541338293896388
298.87096987775265688
298.85081825824084945
298.82795500591538485
298.80585911153707457
298.787374111523377
298.77396137269283827
298.76551373521152755
298.76065831593797384
298.75754028763429915
298.75454987831557219
298.75079048503596368
298.74619033204913876
298.74118897597054456
298.7363857245987333
298.73216158035040735
298.72855201866008201
298.72529528633538121
298.72209667314950821
298.71885797541165175
298.71589244844727773
298.71384895875758048
298.71358184971830951
298.71586570224889101
298.72104640565231648
298.72876868041078069
298.7380912328752629
298.74757833454054889
298.75570027422691055
298.76120436639274658
298.76351514570944801
298.76282108919093616
298.76009391058977371
298.75671224146225313
298.7539196358570166
298.75253108807504532
298.75282581656261982
298.75452723916674813
298.75687175654303473
298.75883345166892013
298.75939913322781649
298.75775989111582476
298.75360454736824067
298.7472927553980071
298.73978486879178718
298.73239374638819754
298.72655099126581035
298.72354857705494169
298.72418170241627422
298.72848002813390167
298.73572619090066382
298.74462956832184091
298.75373219317208395
298.76177765441923384
298.76796648197296236
298.77199338856809163
298.77386924527394285
298.77366597245617186
298.77132622165220255
298.766761133055752
298.75997026808028068
298.75119977191400267
298.7410780819400884
298.73069718852752885
298.72143869182065146
298.71452514172744941
298.7105753503749952
298.70941192278462495
298.71016284773634197
298.71153238874313729
298.71213591484519156
298.71089534561360779
298.70735727219721412
298.70173932005047845
298.69480707522478724
298.68756302431910399
298.68085336917016548
298.67512133899936089
298.67042880213051603
298.66652166202982244
298.66313700538597686
298.66038538826370541
298.65879550751878924
298.65915076704737885
298.6620958206452201
298.66772467556126003
298.67548732525870037
298.6842316350429769
298.69241824201372992
298.69850111001403548
298.70139862560273514
298.700866823806507
298.69765019255129346
298.69329326470324304
298.68975242094330724
298.68896718041912663
298.69233748318646349
298.70033667181883175
298.71238041995172807
298.72696379088625918
298.74205633640991664
298.75560853236140701
298.76600243068060081
298.77239127370643246
298.77472995133513223
298.77354332041221596
298.7696534048122885
298.76389834341136975
298.75694923419246152
298.74932381253108815
298.74144015031049548
298.7336943151971127
298.72656196483262647
298.72058321860930619
298.71628526090159994
298.71405822598723034
298.71403393338056276
298.71598107004382427
298.71935704563838954
298.72349812789695989
298.72788951515656208
298.73237331461007216
298.73724137274945178
298.74307734788959579
298.7504999120623097
298.75987468679886661
298.77110811989484773
298.78350627434701892
298.79586545799816122
298.80683783249600083
298.81538837589550894
298.82107888671015417
298.82416812996115141
298.8255175517528528
298.82631765619339603
298.82778081456706332
298.83081265997157061
298.83574083865158855
298.84226190883720164
298.84954658800637617
300.08977159931180267
300.31365180669382653
300.51985269971225989
300.3836845541841285
300.227202168929864
300.14732654929798628
300.0698783296583656
300.04840706097581915
300.16589454239459656