#                 v                   n
  5.23598775598e-10   8.48701013779e+14
  6.96909970321e-10   1.72665897577e+14
  9.04778684234e-10   1.92841082631e+14
  1.15034650999e-09   2.18478235281e+14
  1.43675504024e-09   2.51055022287e+14
  1.76714586764e-09   2.92410883925e+14
  2.14466058485e-09   3.44809206596e+14
  2.57244078451e-09   4.10974143862e+14
  3.05362805929e-09    4.9407092963e+14
  3.59136400183e-09   5.97580386725e+14
  4.18879020479e-09   7.24997407926e+14
  4.84904826082e-09   8.79265733218e+14
  5.57527976257e-09    1.0618610832e+15
   6.3706263027e-09   1.27147452538e+15
  7.23822947387e-09   1.50236005042e+15
  8.18123086872e-09   1.74274842835e+15
  9.20277207992e-09   1.97322626965e+15
  1.03059947001e-08   2.16733803563e+15
  1.14940403219e-08   2.29382633003e+15
  1.27700505381e-08   2.32204555587e+15
  1.41371669412e-08   2.22975136345e+15
  1.55985311238e-08   2.01135404203e+15
  1.71572846788e-08   1.68358869282e+15
  1.88165691987e-08   1.28583034558e+15
  2.05795262761e-08   8.73956455517e+14
  2.24492975038e-08   5.08303576591e+14
  2.44290244743e-08   2.37013479203e+14
  2.65218487804e-08   7.85585109208e+13
  2.87309120146e-08   1.38472830818e+13
  3.10593557697e-08   9.21320255523e-63
  3.35103216383e-08   1.37375169406e-85
