# Source1         : patchDifference(p,patch1=inlet,patch2=outlet).region1
# Source2         : patchDifference(p,patch1=inlet,patch2=outlet).region2
# Operation       : subtract
# Time            	p
1                 	1.9260000001e-01
