# Forces                    
# CofR                      : (0.00000000000000000000e+00 0.00000000000000000000e+00 0.00000000000000000000e+00)
# Time                      forces(pressure viscous)	moments(pressure viscous)
0                           	((-5.04870979341447555464e-28 1.52400000000000291038e+04 -2.40732903702004285303e-14) (6.10800569376604651772e-01 -8.08329624411709639744e-05 -5.26712842478896729433e-23)) ((-2.84217094304040074348e-14 6.41860141039997807098e-15 5.22959453519433736801e-12) (5.11677705189200899569e-20 2.49366499671666019822e-18 -6.20977098591036572039e-02))
