# Forces                    
# CofR                      : (0.00000000000000000000e+00 0.00000000000000000000e+00 0.00000000000000000000e+00)
# Time                      forces(pressure viscous)	moments(pressure viscous)
0.0089                      	((-1.10255651892712722699e-15 1.53040492129502999887e+04 -2.41272643315575765924e-14) (4.56127262103759367751e-01 -5.26640518568913945652e-03 -2.24719676302428407987e-06)) ((-1.72922144196974159058e-03 6.39932961035935362082e-15 -1.35648191630941710173e+01) (-1.15468821358181758367e-05 -1.99045051760325750895e-05 -4.37790118666038438611e-02))
