/*--------------------------------*- C++ -*----------------------------------*\
  =========                 |
  \\      /  F ield         | OpenFOAM: The Open Source CFD Toolbox
   \\    /   O peration     | Website:  https://openfoam.org
    \\  /    A nd           | Version:  12
     \\/     M anipulation  |
\*---------------------------------------------------------------------------*/
FoamFile
{
    format      ascii;
    class       volScalarField;
    location    "0.00513";
    object      alphat;
}
// * * * * * * * * * * * * * * * * * * * * * * * * * * * * * * * * * * * * * //

dimensions      [1 -1 -1 0 0 0 0];

internalField   nonuniform List<scalar> 
75962
(
6.0900323365667879834e-07
7.4491859230944956796e-07
8.5081086708043996779e-07
8.9292083293108532855e-07
9.2763707735564186897e-07
1.0042843233175357662e-06
1.1744245478822757986e-06
1.3082083382180074266e-06
1.3780319107132571217e-06
1.4432046245164752137e-06
1.5492215436249714386e-06
1.6857527642128837169e-06
1.804905727405454758e-06
1.8923735658544000283e-06
1.9684476086248553377e-06
2.0662131612494359589e-06
2.1996411983668303023e-06
2.334111849399001558e-06
2.422761966793146202e-06
2.4638224514835285919e-06
2.5029817877341671909e-06
2.585093467317544763e-06
2.7018129884838868519e-06
2.813621810673329114e-06
2.893079632209825418e-06
2.9395886450717246143e-06
2.9824515131391217842e-06
3.0646768939528341349e-06
3.2077137489592670481e-06
3.3855822284443375438e-06
3.5485086133976504174e-06
3.6652159587578727195e-06
3.7444887337267263145e-06
3.8105608881942564072e-06
3.871236675267349476e-06
3.9170407881319136101e-06
3.9431671193294683366e-06
3.9621112848447590868e-06
3.9939210993559211087e-06
4.0673011479083556277e-06
4.2306544313997008466e-06
4.3789028659741779188e-06
4.4650083867894738347e-06
4.5044576201246314009e-06
4.5550963988085502041e-06
4.6878237656943535158e-06
5.0523349684186990798e-06
5.4006241855723151446e-06
5.5726512611979390428e-06
5.6144060569152690011e-06
5.606918081667360633e-06
5.5855571956696534335e-06
5.5675241087162945239e-06
5.5639771388471721564e-06
5.565439168109650848e-06
5.5834035202298252829e-06
5.6703082967394514744e-06
5.8383387547733303275e-06
5.9425186174715605495e-06
5.9747630141144627796e-06
5.9720398745318894348e-06
5.9672073937212115447e-06
5.9850535191244199699e-06
6.0915663425732451415e-06
6.2678470692887449636e-06
6.4050221596559627486e-06
6.5155408882728833183e-06
6.6019551484319791731e-06
6.6564925625513570852e-06
6.6788481332727017454e-06
6.6888702313798575742e-06
6.7160410549037483706e-06
6.8084156120240618695e-06
7.1239843851577178539e-06
7.5132945032127346435e-06
7.722260707655853834e-06
7.7849111377749121696e-06
7.7818728681584750217e-06
7.760233697317457351e-06
7.7483182700275010342e-06
7.7704254650901985387e-06
7.9280099252049036787e-06
8.2054815888013051949e-06
8.3737641901473186111e-06
8.4367212938860050353e-06
8.4396938507168162299e-06
8.4289108623256076236e-06
8.4244268802093232978e-06
8.4520788569551299124e-06
8.5200588513977911127e-06
8.5357372671395055316e-06
8.521228745934988238e-06
8.4554610921052536667e-06
8.4001240230266212424e-06
8.3888268053202485271e-06
8.4102575000856047112e-06
8.5226256849308671179e-06
8.6280786151663967212e-06
8.6768929230804746339e-06
8.6936531526072012609e-06
8.6961749498864863994e-06
8.6939322691549298977e-06
8.6877960729216584609e-06
8.6743334273933632949e-06
8.6485825290593195427e-06
8.6219993408601241933e-06
8.6019065786076348649e-06
8.5897796588713978664e-06
8.5825386026342485765e-06
8.581858756366528778e-06
8.6014055800836655198e-06
8.6660380210328380679e-06
8.7267046583839816146e-06
8.7706795650119465877e-06
8.8096700548674461396e-06
8.8554377748880369348e-06
8.9116337814974471809e-06
8.9728741275195758858e-06
9.0287303696171609089e-06
9.0703954054646481478e-06
9.0947690191809119428e-06
9.1063077254047287794e-06
9.1141267801938729898e-06
9.129661253319902288e-06
9.1730076670937344221e-06
9.2550314946266210091e-06
9.3406666803848227738e-06
9.4151705637060563025e-06
9.4702835541666554703e-06
9.5068987933412803194e-06
9.5343549907840358538e-06
9.5633262759198253765e-06
9.6005715348179224426e-06
9.6458353274091634711e-06
9.6934217928511009056e-06
9.7358519229452160452e-06
9.7669811421905530113e-06
9.7860480154269488529e-06
9.7970606915055418736e-06
9.807827636964509024e-06
9.8274435521925480988e-06
9.8625094674012053617e-06
9.9146657582365024032e-06
9.9805691580070887437e-06
1.0052662017806071365e-05
1.012230491956970187e-05
1.0182279256478901457e-05
1.0228711351203918301e-05
1.0261223057532775467e-05
1.0281915349295931567e-05
1.0294993043583763217e-05
1.0305346076768461425e-05
1.0318854396756783025e-05
1.0340291662536950652e-05
1.0372235716988894818e-05
1.0413977719603648102e-05
1.0462448514873360844e-05
1.0512841884921030018e-05
1.0560422235263844851e-05
1.0602318154287780828e-05
1.0636700409128390133e-05
1.066382847160820345e-05
1.0685047676748112119e-05
1.0702151502937011819e-05
1.071832153879957489e-05
1.0736493128455528484e-05
1.0759588143413835045e-05
1.0789845034507760787e-05
1.0827729989090029383e-05
1.0871821535909633461e-05
1.0919649453595884454e-05
1.096848374217543894e-05
1.1015785931436491694e-05
1.1058891050853614018e-05
1.1095985883475461485e-05
1.1126668783213492609e-05
1.1150841701237508463e-05
1.1169142562332857213e-05
1.1182545181970588344e-05
1.1191196425047962975e-05
1.1195185138963439057e-05
1.1194807112307137025e-05
1.1190952108009056054e-05
1.1184877547706264779e-05
1.1177715899022515735e-05
1.1170163874530627428e-05
1.1162037612783104498e-05
1.1152508603390017512e-05
1.0610154013641212852e-05
1.0598510393332706228e-05
1.0586192623593418147e-05
1.057274649607094463e-05
1.055804628948132145e-05
1.0542502014704073444e-05
1.0526866864014815489e-05
1.0511941221230367997e-05
1.0498227718681451228e-05
1.048574037266523824e-05
1.0473972444368695228e-05
1.0462266325118263908e-05
1.0450284020253764058e-05
1.0438226700442173372e-05
1.0426487199338667361e-05
1.0415248996628201242e-05
1.0404307065730370428e-05
1.0393283228646246983e-05
1.0381781110341824112e-05
1.0369585073572347105e-05
1.0356680688872899342e-05
1.0343362099858253368e-05
1.0329990102131406232e-05
1.0316915149387755654e-05
1.030421361541699803e-05
1.0291924486737523208e-05
1.0279923687003806235e-05
1.0268160865587092114e-05
1.0256377852538819983e-05
1.0244505943326195758e-05
1.0232423308850179588e-05
1.0220398234397031195e-05
1.0208501359252597214e-05
1.0196959606706611993e-05
1.0185546654042333198e-05
1.0174264825702699304e-05
1.0162778108351895731e-05
1.0151161878156409179e-05
1.0139180109146642581e-05
1.0127002317687609935e-05
1.0114386777943201561e-05
1.0101427598852178588e-05
1.0087758658276408833e-05
1.0073550048876590645e-05
1.0058735988310356721e-05
1.0044001203841761984e-05
1.0029559282544423619e-05
1.0016111574921397748e-05
1.0003454054396355099e-05
9.991688526604164538e-06
9.9799637310299315962e-06
9.9681190029107277192e-06
9.9555501584094572724e-06
9.9427023494338770149e-06
9.9295282945808696862e-06
9.916715885981538587e-06
9.9040914702716785581e-06
9.8921035534144491862e-06
9.8802576648366193473e-06
9.8687060987646335272e-06
9.856797725723628206e-06
9.8448121819658202051e-06
9.832429853751431577e-06
9.8202437607548748514e-06
9.8080386898489743468e-06
9.7964279859105859397e-06
9.7850450350417649817e-06
9.7743032292173566167e-06
9.7634616628763960247e-06
9.7526131273508303443e-06
9.7409193219310961844e-06
9.7287731593221339036e-06
9.7158498687651310635e-06
9.703007508137651135e-06
9.6899723160517794719e-06
9.6773542886830914877e-06
9.6644368063981919454e-06
9.651620287695047767e-06
9.6382271054042336245e-06
9.6249143598916004873e-06
9.6112963562984932533e-06
9.5982080783190084239e-06
9.5852294325912698407e-06
9.5729630280342546531e-06
9.5606371719528509146e-06
9.5486035522709655348e-06
9.5360976516327853946e-06
9.5237578801058036019e-06
9.5112080696795017244e-06
9.4992033880565068858e-06
9.4871749046044452576e-06
9.4754063320188333989e-06
9.4630217344235572697e-06
9.4502050956479040946e-06
9.4363891114242923289e-06
9.4221760588075564966e-06
9.4074981429074826868e-06
9.393289688918842064e-06
9.3795206550831098237e-06
9.3668338054049863159e-06
9.3546402959660287206e-06
9.3430595287610947853e-06
9.3312197323650759856e-06
9.3193537892291851529e-06
9.3069109960230082367e-06
9.2945651942034230848e-06
9.2819805515190614636e-06
9.2699157664121194147e-06
9.257826930244236627e-06
9.2462634298251939998e-06
9.2345021008884323703e-06
9.2230852043768974253e-06
9.2113495254745021235e-06
9.1998986294251188509e-06
9.1881522339657126567e-06
9.1767562059955985195e-06
9.1651632256584917181e-06
9.1539121638222859342e-06
9.1423209252402686279e-06
9.1307822080744598499e-06
9.1186422382535554389e-06
9.106376727207125528e-06
9.0934956275098085561e-06
9.0806076876160339025e-06
9.0673925632379231038e-06
9.0544977282992445626e-06
9.0416009603270191516e-06
9.02914037337949649e-06
9.0167202309457464949e-06
9.0047378275743760557e-06
8.9928564051696802361e-06
8.9814353436235052757e-06
8.9700811719813277809e-06
8.9589780757415268299e-06
8.9477546204821000635e-06
8.936474467401701703e-06
8.9248455043033889686e-06
8.9130038501626788529e-06
8.9009309560587491898e-06
8.8890386489536857772e-06
8.8773794427841658261e-06
8.866351901823496702e-06
8.8556775418363013893e-06
8.8455612542530586242e-06
8.8354447972721338067e-06
8.8254935161302645814e-06
8.8151131010260620183e-06
8.8046401340385743592e-06
8.7936400120556448276e-06
8.7826035179927983588e-06
8.7711471397320200341e-06
8.7597988224003972763e-06
8.7482270493178691459e-06
8.7368895447141922656e-06
8.7255605705445463165e-06
8.7144947886484616374e-06
8.7036362317970417124e-06
8.6930632759042996972e-06
8.6827554374526062656e-06
8.6726585236214744133e-06
8.6625349960349451553e-06
8.6524826365799302843e-06
8.642060343533312751e-06
8.6317699607201994722e-06
8.6211643970059987491e-06
8.6109258635287691205e-06
8.6006892852235782341e-06
8.5907956506532903349e-06
8.5810029009470789943e-06
8.5712569336010731563e-06
8.5615036070108328721e-06
8.5517533672809209591e-06
8.5419749626173075905e-06
8.5323779406792313334e-06
8.5228380665381646821e-06
8.5134849148303946885e-06
8.5042732170359707167e-06
8.4950097917735465145e-06
8.4858256134134501023e-06
8.4762940083260161268e-06
8.4666500920132530856e-06
8.45660745508711829e-06
8.446479805157561523e-06
8.4360820179228812447e-06
8.4261461564653012725e-06
8.416208686633441254e-06
8.4071536221804953705e-06
8.398243485252223961e-06
8.3899068455365810528e-06
8.3813638835940109517e-06
8.3728587249894527531e-06
8.3636347952565442233e-06
8.3543447959900889443e-06
8.3441261244287280314e-06
8.3341220737599802887e-06
8.323367843421050055e-06
8.3131920413774494367e-06
8.3024673444888504975e-06
8.2926034915054864784e-06
8.2822366557827217218e-06
8.2727753531157534821e-06
8.262766096878305984e-06
8.2536474087442989427e-06
8.2438585405010012685e-06
8.2348771639957600582e-06
8.2252738490003745469e-06
8.216536902439444345e-06
8.2072760920642002873e-06
8.1989934185212490707e-06
8.1899942082364226675e-06
8.181710962385106608e-06
8.1725248868896716958e-06
8.163906693402125841e-06
8.154380973192790338e-06
8.1456479662030110593e-06
8.1360075809494871704e-06
8.1273631586323336794e-06
8.1178136370697318161e-06
8.109323661261615208e-06
8.0998167045670660787e-06
8.0913699925124504163e-06
8.0816844848503076787e-06
8.0731362207512101612e-06
8.0634252895267014965e-06
8.0550134764043812905e-06
8.0456189069632054928e-06
8.0374729817173003752e-06
8.0283414038601299992e-06
8.0202708554431336992e-06
8.0110377044656008982e-06
8.0027308398790806572e-06
7.9930252609552025528e-06
7.9841745607445637481e-06
7.9739424491231519618e-06
7.9647642403124309021e-06
7.9545461000467263305e-06
7.9456578009250203559e-06
7.9358443677688729896e-06
7.9275530857804647197e-06
7.9182259088110783219e-06
7.9104352455595139154e-06
7.9015664031306887877e-06
7.894141491340761561e-06
7.8853384434825829691e-06
7.8778527647431508788e-06
7.8687676853457820737e-06
7.8607888897916005847e-06
7.8511339517514682667e-06
7.8425482703360093503e-06
7.8322361690392629089e-06
7.8229655337427163e-06
7.8120953419399050946e-06
7.8025029393523462383e-06
7.791489300811951812e-06
5.6758938845712940688e-07
7.1632399537975031857e-07
8.5643280568039166633e-07
9.7096333459444717095e-07
1.0619106413235925329e-06
1.1485230638344409659e-06
1.2293671587231441252e-06
1.309396360969588705e-06
1.4191747535164682859e-06
1.5629199439702465158e-06
1.6965736610174108118e-06
1.7977454240078337691e-06
1.888166074363429596e-06
1.9948077803909957028e-06
2.1130940367760521228e-06
2.2323607241219594488e-06
2.3526552821343374498e-06
2.4589806397790363734e-06
2.5262919619748470608e-06
2.562495139277539529e-06
2.6125915231676613206e-06
2.7133783494329577756e-06
2.8505041071678682024e-06
2.9802691694426055731e-06
3.0687642886133655699e-06
3.1139325723186240933e-06
3.1410407205459631185e-06
3.1857215099021034718e-06
3.2923843575256816974e-06
3.4804994553164699316e-06
3.6715717058492296065e-06
3.8253996845797711373e-06
3.9316411234250258502e-06
4.0007466012571257842e-06
4.0445375247569884179e-06
4.0715324915350081583e-06
4.0916478982683373173e-06
4.1210982794804629494e-06
4.1792937475973473581e-06
4.3121477026344939634e-06
4.487355907644648663e-06
4.6364830361418537443e-06
4.725991561767794213e-06
4.7642920682237046689e-06
4.8037764270351482692e-06
4.903552872734730018e-06
5.2042968045146759945e-06
5.5687498828553305233e-06
5.771261143958378275e-06
5.8353126186924550323e-06
5.8344453780998800725e-06
5.8212721569691249835e-06
5.8110231540309072369e-06
5.8103553236230775668e-06
5.8143252389701795035e-06
5.8358013924010998118e-06
5.922639461408749034e-06
6.076435764983238063e-06
6.1793432555074381273e-06
6.2192263013357758315e-06
6.2225657823181854971e-06
6.2205027050247536455e-06
6.2305166304349610267e-06
6.3020530436927215456e-06
6.4955861721286875285e-06
6.6809620129921143555e-06
6.8374441188703383331e-06
6.9597645655346437505e-06
7.0362445897415946402e-06
7.0683667529998203737e-06
7.0799704988721477933e-06
7.1053049447224959283e-06
7.1865990316493485034e-06
7.4528625900231539294e-06
7.7793233412776074948e-06
7.961802444227692325e-06
8.0208029621790245237e-06
8.0209921833627766585e-06
8.0111805944813198723e-06
8.0123393902518071021e-06
8.0815810944926056423e-06
8.3698405905171576201e-06
8.6925249698277820499e-06
8.8646437383138856951e-06
8.9192063068073417105e-06
8.9167387085099188328e-06
8.9025097587266195149e-06
8.8996261271267634613e-06
8.9449187080101451259e-06
9.0369112518377825856e-06
9.0602019454619038487e-06
9.0457509610295675422e-06
8.9725293760304346437e-06
8.9065851743497104621e-06
8.892715284244356687e-06
8.9155846576042736861e-06
9.0413676731293083657e-06
9.1596238896432860386e-06
9.2109746638061912218e-06
9.2255976437300630421e-06
9.2260717754155969887e-06
9.2221089337489476755e-06
9.2112700231522876357e-06
9.1814168772094890449e-06
9.1366556775888058069e-06
9.1031106719091174878e-06
9.0838920905587633556e-06
9.0740405051848417947e-06
9.0765821918432872996e-06
9.1092820222703716219e-06
9.1405420387990419769e-06
9.1575044387330674128e-06
9.1748046902986804264e-06
9.2076549177761792718e-06
9.2625067332982229465e-06
9.3330861685403039595e-06
9.4063450147921613762e-06
9.4676351330297309233e-06
9.5090684458028025067e-06
9.5315128389703417941e-06
9.5435625716234410813e-06
9.5573546234899954332e-06
9.5856820483364394434e-06
9.6353520158820486557e-06
9.7007359422702647877e-06
9.7726983697852553998e-06
9.8410305514926689426e-06
9.8984738191692458358e-06
9.9439739604008867011e-06
9.9818480526183976962e-06
1.0019498395358364984e-05
1.0063145466569715017e-05
1.011438999369902718e-05
1.0169844790675829457e-05
1.0223069362312665309e-05
1.0266391235926186637e-05
1.0294976489124857161e-05
1.0309205277351016268e-05
1.031434361036137738e-05
1.0319429675972914754e-05
1.0334356406865576346e-05
1.0366106733212026236e-05
1.0417770558708259885e-05
1.0487225503534807305e-05
1.0567838000615219991e-05
1.0650224716551252841e-05
1.0724452544808695594e-05
1.0783193569285466423e-05
1.0822403806470323056e-05
1.0842112485056434629e-05
1.0846866094370554364e-05
1.0843863469525670337e-05
1.0842733364119293448e-05
1.0854274138191212168e-05
1.088755564868544172e-05
1.0934286135061151401e-05
1.0988859133139806842e-05
1.1044887268556394656e-05
1.109686517460814561e-05
1.1141966069625335473e-05
1.1178829713530391825e-05
1.1208305052962904533e-05
1.1232033799834693043e-05
1.1251987658523406144e-05
1.1271340179242743694e-05
1.129305908785319496e-05
1.1320481763919108982e-05
1.1355883816345456179e-05
1.1399361603101640798e-05
1.1448841386439893397e-05
1.150139440481474843e-05
1.1554190445987815136e-05
1.1604430641658566311e-05
1.1649537666695052433e-05
1.1687987126665369623e-05
1.1719884767278392331e-05
1.174528405746893109e-05
1.1764859650213751902e-05
1.1779444637217470059e-05
1.1788732889904302194e-05
1.1792745471245221189e-05
1.179181602225250921e-05
1.1787132456670420836e-05
1.178031932787609805e-05
1.177262472382733663e-05
1.1764837402695433891e-05
1.1756602693881777966e-05
1.1746472463657551524e-05
1.1731876967807871492e-05
1.1181292236987642316e-05
1.1169507558871037068e-05
1.1157502551263495799e-05
1.1144842146724594123e-05
1.1131048796249841054e-05
1.1115916969921532662e-05
1.1099795756374268571e-05
1.1083526122132983697e-05
1.1067966703309465792e-05
1.1053541183521501374e-05
1.1040087491413327534e-05
1.1027080981437990776e-05
1.1014023072754485036e-05
1.1000765988921834066e-05
1.0987582736087897988e-05
1.0974923422155310473e-05
1.0963018723140423823e-05
1.0951658865259030162e-05
1.094031935055207764e-05
1.0928398421040164121e-05
1.0915559337169916849e-05
1.0901852811570225752e-05
1.0887808332847333977e-05
1.087397586684075972e-05
1.0860769238404962916e-05
1.0848125817810119572e-05
1.0835912416644570075e-05
1.0823776640461618974e-05
1.0811536178032637347e-05
1.079887101878706192e-05
1.0785817442184667252e-05
1.0772460328819861685e-05
1.0759188203410980308e-05
1.0746160100267084121e-05
1.0733567254712012546e-05
1.0721229956448579944e-05
1.0709106515413070555e-05
1.0696904358621171563e-05
1.0684643243479661633e-05
1.0672149714735202985e-05
1.0659498642066584536e-05
1.0646419581297187466e-05
1.0632840571306223558e-05
1.0618422502668378818e-05
1.060328567657380543e-05
1.0587580522056380561e-05
1.0571976857111825259e-05
1.0556851477684340518e-05
1.0542691074073483814e-05
1.0529328305445241815e-05
1.0516681321743723664e-05
1.0504096757500067851e-05
1.0491363887307127387e-05
1.0478108279015245494e-05
1.0464630521023289813e-05
1.0450997403424017469e-05
1.0437732636791313684e-05
1.0424828632812719865e-05
1.0412526185331650937e-05
1.0400382289914068834e-05
1.0388277286609310721e-05
1.0375733060220852509e-05
1.036290299677471559e-05
1.0349723547192023386e-05
1.0336598844510330465e-05
1.032354316990023988e-05
1.0310976463762581116e-05
1.0298816202916296191e-05
1.0287204107870270579e-05
1.0275639144352341183e-05
1.0263910397735339391e-05
1.0251537939095895671e-05
1.0238649228064198281e-05
1.0225246344744131499e-05
1.0211725198191766697e-05
1.0198068226314080208e-05
1.0184428486054395241e-05
1.0170544899891400319e-05
1.015647246096155405e-05
1.0142097511486041723e-05
1.0127755847679906009e-05
1.0113592503051841432e-05
1.0099954650991578586e-05
1.0086790214307093494e-05
1.0074051597860406219e-05
1.0061396059099105531e-05
1.0048660703883960507e-05
1.0035648635996106961e-05
1.0022567606757768372e-05
1.0009566381964052849e-05
9.9969296114034383009e-06
9.9844806268541909009e-06
9.9719726535403750375e-06
9.9588989047885680876e-06
9.9450713403748989909e-06
9.9304443678621189624e-06
9.9153435107086466428e-06
9.9001577174137496824e-06
9.8854019287440062614e-06
9.8714224927141799658e-06
9.8584105105901656882e-06
9.8461212605939057172e-06
9.8341512706733160776e-06
9.8219425654675825854e-06
9.8092609642287782002e-06
9.7960608559218497696e-06
9.7826330661770989541e-06
9.7692426672476693377e-06
9.7561807137128058538e-06
9.743445822122257511e-06
9.731040420181896267e-06
9.7187044947020287514e-06
9.7064463360023491294e-06
9.6941231736987108704e-06
9.6818462557696623817e-06
9.6695815763614456943e-06
9.6574598791441151516e-06
9.6454926900977702324e-06
9.6337264411391669518e-06
9.6220115607899318687e-06
9.6101615325274217081e-06
9.5979682784520214256e-06
9.5853029562544763044e-06
9.5721757216668901469e-06
9.5586922135299657303e-06
9.5450522514251148276e-06
9.5314373761894456683e-06
9.5179782374968211503e-06
9.5046462437714892044e-06
9.4914790415937626674e-06
9.4784653456436136841e-06
9.4657610604468444556e-06
9.4534027917207628336e-06
9.4414784820957992366e-06
9.4297899092517191763e-06
9.4183162626356194651e-06
9.4066863753619044548e-06
9.3949113187919768779e-06
9.3827419954801820763e-06
9.3704636801645597294e-06
9.3581240224944575224e-06
9.3461060496158984061e-06
9.3344325967190047851e-06
9.3232491612843530662e-06
9.3123994747482311918e-06
9.3017303381639482703e-06
9.2909970425421245169e-06
9.2799748745393730048e-06
9.2685590292182448203e-06
9.2567920764107327231e-06
9.2447658910127368618e-06
9.2326233625067994634e-06
9.2203858345476389036e-06
9.2082219850291529797e-06
9.1960647499011294027e-06
9.1842276720556556677e-06
9.1724982581964744667e-06
9.1612538065792055729e-06
9.1501335353959337555e-06
9.1394637954714818032e-06
9.1288046027114375005e-06
9.1182678541795016076e-06
9.1075515708348256415e-06
9.0966195805825813755e-06
9.0855284450512254152e-06
9.0742765366600767861e-06
9.0630824622179464545e-06
9.052058272311908394e-06
9.0411432999557726835e-06
9.030604751331069142e-06
9.0200005474625134561e-06
9.0097497494054173354e-06
8.9993696406843837296e-06
8.9892671749102201142e-06
8.9791412880237016632e-06
8.9693382801607479931e-06
8.9595261136983664959e-06
8.9500922614125794362e-06
8.9404386721965079161e-06
8.9311188091252743384e-06
8.921245026295998931e-06
8.91149214244903992e-06
8.9009982302982594928e-06
8.8905894914298210966e-06
8.8795725109678250224e-06
8.8691658365775831755e-06
8.8585226170915068352e-06
8.8489337432462403124e-06
8.8392841547519570173e-06
8.8304303641725776799e-06
8.8212262844342182892e-06
8.8123142321416495914e-06
8.802492719812783547e-06
8.7928443095972221987e-06
8.782037506389659979e-06
8.7716497545935378708e-06
8.7603525243365678617e-06
8.7498683815822371495e-06
8.7386769886982192465e-06
8.728560696344759667e-06
8.7177254494880145112e-06
8.7080140396115282418e-06
8.6974998230717725367e-06
8.6880454341711471752e-06
8.6777156933778156698e-06
8.6683676691123261166e-06
8.6581585448549102806e-06
8.6490209752476005113e-06
8.6391552945342626942e-06
8.6304689307534573515e-06
8.6209504835414338083e-06
8.6123935456729851435e-06
8.6028446765694660677e-06
8.5940869464995312113e-06
8.5842964771070445811e-06
8.5754615497864917524e-06
8.5654885295529691372e-06
8.5566052496130022293e-06
8.5464785839725930457e-06
8.5374817730890348631e-06
8.5272061457938858861e-06
8.5180852241819888376e-06
8.5075835640874508209e-06
8.4984205603612001149e-06
8.4879436963714508234e-06
8.4789359777348355976e-06
8.4687443718992356237e-06
8.4599986923086861409e-06
8.4499934444139110433e-06
8.4412461273422172972e-06
8.4311457427035173631e-06
8.4221579064203917682e-06
8.4116662548665621971e-06
8.4022920813605408161e-06
8.3914855764556463605e-06
8.3820198913867643617e-06
8.3713922876055790973e-06
8.3623397396967708001e-06
8.3521587071946410525e-06
8.3436203635622692627e-06
8.3338587314865639525e-06
8.3257705857009302439e-06
8.3163637113424171773e-06
8.308614350368287511e-06
8.2992856762227828159e-06
8.2914531196858993545e-06
8.2818335338043488821e-06
8.2734981364149551714e-06
8.2633373413723353273e-06
8.2543406450892381558e-06
8.2434367392277689589e-06
8.2337071644514361462e-06
8.2221621943471002303e-06
8.2119740461916754888e-06
8.2001821644360855493e-06
6.7804390666327987924e-07
7.7683470632537470983e-07
8.8733801174220053791e-07
9.6740401193295923688e-07
1.0737707517133924137e-06
1.1922399533742051558e-06
1.2866678408539859424e-06
1.3731541936524895968e-06
1.4948986748338238189e-06
1.6501040778142055021e-06
1.7887808265451148685e-06
1.8857295892176682802e-06
1.9667211127729904969e-06
2.0753188131899583746e-06
2.2103370487246514734e-06
2.3451661255985416982e-06
2.4714508709780073734e-06
2.5795893457135888744e-06
2.6482859773007923817e-06
2.6847892979446705799e-06
2.734812968207750165e-06
2.8382098038201577318e-06
2.9765007146727386077e-06
3.1004443603992752127e-06
3.179079867132074145e-06
3.2211267341902403738e-06
3.2664408378043115544e-06
3.3608208148389967046e-06
3.5486557337117739025e-06
3.7835750369200608938e-06
4.0018506961615974167e-06
4.15151530955780119e-06
4.2201594039782036919e-06
4.2334651454402422846e-06
4.2317101359088177466e-06
4.2370968632711265701e-06
4.2606674810756423876e-06
4.3241293207246462988e-06
4.4547337844999150758e-06
4.5999700148354013524e-06
4.7338539295978347552e-06
4.8334761362503264126e-06
4.8872753314989051288e-06
4.9136069169879190377e-06
4.95616663673333039e-06
5.0716676914554876062e-06
5.3964086389414177313e-06
5.7313958561615114873e-06
5.9136802509098175228e-06
5.9731279427702845265e-06
5.9772358728100758682e-06
5.9765728868149937023e-06
5.9888535548324777752e-06
6.0331894473287204044e-06
6.1134943109430787573e-06
6.2067181057258480911e-06
6.3038409531042192602e-06
6.3863521941897925281e-06
6.4358683611353088296e-06
6.4508141752547489659e-06
6.4503904435135292459e-06
6.4522289781823065954e-06
6.4823482719867527748e-06
6.629030208003345643e-06
6.9042437836516275357e-06
7.1172332631474348496e-06
7.2684962430150991893e-06
7.3648444931607665593e-06
7.4122966205880401049e-06
7.4267774480883575226e-06
7.4379678319430725782e-06
7.4758683928370281944e-06
7.620100095332096342e-06
8.018591553572836458e-06
8.3282702526128016924e-06
8.4505598907038208641e-06
8.4640072331295588382e-06
8.4421760749053050693e-06
8.4080660181133713271e-06
8.4064767479026664268e-06
8.4727145175558376693e-06
8.7745509112537847709e-06
9.1363421828698283036e-06
9.3266030783848266931e-06
9.3851929287372347333e-06
9.3816515708014115146e-06
9.3683752061121319262e-06
9.3713267336121022723e-06
9.4497255065294382721e-06
9.5834955242369194393e-06
9.6195623233231261249e-06
9.6038465668346721931e-06
9.514904058351358006e-06
9.4163686898422357637e-06
9.3891234048010697722e-06
9.3928589538216532615e-06
9.4599347253070760391e-06
9.5634185228531212616e-06
9.6333185246390368254e-06
9.6854881801710394153e-06
9.7258910052059863486e-06
9.7515184575531871326e-06
9.7585103976858147918e-06
9.7508502201936922388e-06
9.732368408219938826e-06
9.6857071002611455472e-06
9.629319518019874928e-06
9.5991951928132006095e-06
9.5881252626150036182e-06
9.5851920135585859097e-06
9.5976619490946741019e-06
9.6511972826951676803e-06
9.7059905506281051428e-06
9.7375716540369463469e-06
9.7543998222488478356e-06
9.7697143999566051962e-06
9.7980259273362464224e-06
9.8639521423666917411e-06
9.9493395498766858478e-06
1.0028033470448854649e-05
1.0092113500367718771e-05
1.0142840026561435288e-05
1.0186623426503917765e-05
1.0230101102819218583e-05
1.0276220397082662107e-05
1.0324698932058535433e-05
1.0371998118720579527e-05
1.0415685951780116113e-05
1.0455389704370765603e-05
1.0493290385118590684e-05
1.0532754095583491568e-05
1.0577785188009517924e-05
1.0629965668624146658e-05
1.0687474132034943e-05
1.0745960025734487944e-05
1.0800180734229643492e-05
1.0846717264168385703e-05
1.0884473259239839304e-05
1.0916222422444215421e-05
1.0946992989862079057e-05
1.0981699813408428584e-05
1.1023305219077765633e-05
1.107188930031873974e-05
1.1124465982352451697e-05
1.1178469598276324844e-05
1.1229111236803932821e-05
1.1273224555475280502e-05
1.1308742766455232091e-05
1.1335790052879782497e-05
1.1356790844814004251e-05
1.1376125800890601579e-05
1.1399697096058383379e-05
1.1432395832624171942e-05
1.1477093838800649076e-05
1.1532311430990419384e-05
1.1593271473306183557e-05
1.1653976153341833629e-05
1.170837521021820846e-05
1.1752781097000083733e-05
1.1786669908714357788e-05
1.1811981894589567452e-05
1.1830984082362438155e-05
1.1846528242470649362e-05
1.186116335033399385e-05
1.1877122332908114481e-05
1.1897452182858962968e-05
1.1924624343502827597e-05
1.1960011306830348922e-05
1.2003294002555150446e-05
1.2052434504488797958e-05
1.2103807880076085423e-05
1.2154447750912427954e-05
1.2202044618156909555e-05
1.2245239143459956988e-05
1.2282927719943206792e-05
1.2315086448205586771e-05
1.2342583710544009225e-05
1.2366285632268240991e-05
1.2385839405017950922e-05
1.2400909526383651049e-05
1.2411074834752386796e-05
1.2415542767490536042e-05
1.2415046106326173644e-05
1.2410907818263574025e-05
1.2404969413670328038e-05
1.2397917351451064809e-05
1.2390285600593860778e-05
1.2381728612295972368e-05
1.2370672594087311623e-05
1.1772570416779916592e-05
1.1760148387641810143e-05
1.1747471105289782967e-05
1.1734173206746921942e-05
1.171982337412616586e-05
1.1704200480144533194e-05
1.1687620106418950547e-05
1.1670912921357242184e-05
1.1654868401814596709e-05
1.1639781353360566195e-05
1.1625390667145781815e-05
1.1611243530510708389e-05
1.1596992179650855666e-05
1.1582640823713982105e-05
1.156845712572730958e-05
1.1554878456480432739e-05
1.1542094090278324383e-05
1.1530017692347910261e-05
1.1518057729856668973e-05
1.1505608948096826308e-05
1.1492099029091812676e-05
1.1477720283602854754e-05
1.1462960124575897664e-05
1.144869194320455789e-05
1.1435165251250700214e-05
1.1422489441664352116e-05
1.1410134905368603451e-05
1.1397802500395907987e-05
1.1384828825639097043e-05
1.1371117102549127071e-05
1.1356563185313898131e-05
1.1341778094463721667e-05
1.1327007987744118017e-05
1.1312709233307145212e-05
1.129867999573527657e-05
1.1285129288515502666e-05
1.1271722780827848556e-05
1.1258703294417055912e-05
1.1245704217033858566e-05
1.1232906624100236979e-05
1.1219838876276928653e-05
1.1206558386464971131e-05
1.1192432677798973606e-05
1.1177564076778567331e-05
1.1161679367229139791e-05
1.1145507405465294599e-05
1.1129240327853803664e-05
1.1113734539146562143e-05
1.1098787537165873129e-05
1.1084724366847524671e-05
1.1070808146062137133e-05
1.1057170333308948118e-05
1.1043097996742591373e-05
1.102904460488238493e-05
1.1014638296726331145e-05
1.1000650466497684449e-05
1.0986820257561718894e-05