/*--------------------------------*- C++ -*----------------------------------*\
  =========                 |
  \\      /  F ield         | OpenFOAM: The Open Source CFD Toolbox
   \\    /   O peration     | Website:  https://openfoam.org
    \\  /    A nd           | Version:  12
     \\/     M anipulation  |
\*---------------------------------------------------------------------------*/
FoamFile
{
    format      ascii;
    class       volScalarField;
    location    "0.00513";
    object      p;
}
// * * * * * * * * * * * * * * * * * * * * * * * * * * * * * * * * * * * * * //

dimensions      [1 -1 -2 0 0 0 0];

internalField   nonuniform List<scalar> 
75962
(
98371.47824666336237
98320.770275693721487
98303.294438443248509
98190.296890293742763
98178.660338539877557
98215.750763739764807
98141.069641425143345
98095.913933045914746
98181.70917443682265
98340.273773370747222
98419.208005304404651
98408.180782650699257
98421.54735151900968
98462.406657545943744
98486.243210711618303
98493.135807560785906
98513.624758082893095
98526.277217033726629
98485.456188883224968
98416.450684311756049
98403.935954971675528
98469.858394516646513
98530.20155900985992
98534.366707539054914
98523.716492167572142
98552.319506799671217
98595.890194027670077
98586.737223181437002
98529.610223577488796
98494.507123201983632
98508.935885664075613
98530.641200699377805
98526.509758387328475
98509.596978398243664
98485.702877216797788
98470.301132726206561
98483.856719738425454
98540.330828556936467
98612.363790647228598
98657.040648125679581
98671.293267100438243
98665.372113374527544
98641.347693456817069
98612.542336821265053
98597.822528713440988
98594.704764623471419
98584.682245159478043
98567.845647792419186
98557.635576097920421
98549.82719283743063
98526.659798182721715
98491.633202023149352
98470.929024362732889
98466.201442469639005
98450.813938575432985
98423.158148998903926
98414.080463693666388
98443.220112402821542
98483.998516727966489
98513.450661969793146
98533.484319732306176
98543.151510967232753
98535.440465444553411
98520.477185550000286
98528.343798546222388
98570.240776740480214
98614.464895563723985
98616.550457464167266
98563.229193027204019
98489.369613959046546
98442.175441885003238
98440.653575179472682
98458.676011696399655
98458.632308384389034
98427.961222341793473
98388.682532091668691
98365.642830613112892
98365.612619437248213
98369.718463163007982
98361.916179886873579
98350.846204151661368
98358.329082698386628
98393.138491667210474
98436.661066789674805
98460.38489713043964
98451.382575793861179
98417.717383785129641
98372.263169993981137
98327.528570226975717
98298.590301839314634
98299.548949236108456
98331.223376687354175
98373.042933760589221
98403.74413306437782
98419.585872860610834
98432.679895277498872
98455.13563831425563
98487.478655401995638
98520.992018318778719
98546.737724318809342
98563.376394686711137
98571.173154164658627
98565.25936985424778
98539.361687636817805
98495.566509041702375
98449.71913407764805
98421.407421096475446
98417.766852443019161
98429.946795185474912
98444.076050000046962
98457.354218832304468
98477.790295185055584
98510.939883878774708
98552.281412834592629
98586.777347767318133
98603.094075586355757
98600.388676198868779
98589.013547713242588
98583.161333791154902
98591.565369862117223
98611.639336897074827
98632.071793042196077
98642.254403389277286
98641.965673072219943
98641.822054121861584
98653.230236258779769
98676.260542931500822
98696.593645493907388
98697.195610783091979
98672.319154145152424
98631.773846697047702
98591.79854262941808
98563.043594109025435
98545.980435844016029
98533.513511336233933
98517.755562295875279
98494.004412443129695
98461.624199855854386
98424.511769457865739
98390.105319668495213
98365.731676177427289
98355.272936843699426
98358.162465165063622
98370.043699751156964
98384.981667088053655
98399.513137266461854
98414.75010552459571
98434.100300545527716
98457.495558127047843
98478.368854242231464
98486.906732595642097
98476.808952656647307
98451.343257982560317
98422.146057778358227
98402.399967838427983
98399.594450656193658
98412.733272814090014
98435.371180031812401
98461.351558011199813
98488.197727423292235
98516.010519191404455
98544.384045467406395
98569.469366290126345
98585.358141206816072
98588.79271373085794
98582.555102744125179
98574.175096519029466
98571.761577470038901
98579.585465872369241
98596.237288889722549
98615.998308192181867
98631.825390323458123
98638.080839722286328
98632.038884315843461
98615.06393627813668
98592.74549121625023
98573.351600038804463
98564.611150505676051
98569.986954640568001
98586.7182920655614
98607.291065814555623
98624.346752498939168
98634.630614710084046
98640.037828037078725
98644.140086619052454
98648.056321065188968
98649.496200404537376
98644.710489267046796
98648.907037952143583
98661.252409710708889
98667.43944490418653
98663.156100976761081
98646.596112119383179
98620.964757614929113
98593.85503365805198
98573.418921487173066
98564.372644901581225
98566.145052630279679
98574.096205943322275
98582.969678167966777
98590.329284918945632
98597.59710661364079
98608.048063035414089
98623.531663418063545
98642.558247847788152
98660.762846031895606
98673.347331707103876
98677.679815016643261
98674.366911302568042
98666.501850728804129
98657.894599428749643
98651.598300730474875
98649.147740668588085
98650.54467207637208
98654.875959276847425
98660.744109174309415
98667.010766748819151
98673.110730471191346
98679.254276425432181
98686.337210288358619
98695.465966946678236
98707.166635815723566
98721.135121967090527
98736.125729946739739
98750.527702725099516
98762.922759426728589
98772.516619073750917
98778.91906172313611
98781.712719812348951
98779.889237965340726
98772.1577705701784
98758.055659636826022
98739.047689917191747
98718.815673406643327
98702.016993285418721
98692.64722258792608
98692.044487542822026
98698.27881410982809
98707.041755109239602
98714.077836275333539
98716.876669910052442
98715.441051369780325
98711.913003488996765
98709.115874182942207
98709.200987614545738
98712.896588919305941
98719.410738829275942
98726.912809091256349
98733.329532299263519
98737.262579937436385
98738.697604584827786
98739.095676262426423
98740.981504990093526
98746.923845992481802
98758.246126187601476
98774.074140314594842
98791.335241871725884
98805.878835311930743
98814.41733221791219
98815.939474090570002
98811.863704225717811
98804.923598288383801
98797.614419951860327
98790.846515189507045
98783.759210666699801
98774.808753966804943
98763.181964097704622
98749.676378191303229
98736.506547226657858
98726.14075659615628
98719.840142142522382
98716.989603322464973
98715.583119597416953
98713.486279060845845
98709.774062312179012
98705.140854492332437
98701.136217867388041
98698.841905099208816
98697.79403862534673
98695.850903479746194
98689.947325063607423
98677.468282388610533
98657.594259605219122
98631.891246942133876
98603.905035498537472
98577.924977919843514
98557.46620733042073
98544.206783823858132
98537.698928017518483
98535.805726542137563
98535.612757108043297
98534.516323818301316
98531.031773378170328
98525.152235591740464
98518.060073249551351
98511.396456219474203
98506.47541290508525
98503.797238422455848
98503.089119661250152
98503.599530163890449
98504.560791919735493
98505.608852244360605
98506.872169947921066
98508.60824392203358
98510.695413183610071
98512.400520228489768
98512.510197659023106
98509.719366901917965
98503.106822139743599
98492.357808974382351
98477.794779991483665
98460.315453791554319
98441.235458322029444
98422.069824352292926
98404.333384387966362
98389.360926942317747
98378.088487832807004
98370.834326231095474
98367.253577635856345
98366.369119783383212
98366.749511713089305
98366.855049075631541
98365.341169651874225
98361.263308394889464
98354.386203061396373
98345.372604755670181
98335.647708341872203
98326.958958424904267
98320.973265886146692
98318.811564552626805
98320.706696339941118
98325.966992791567463
98333.240967720601475
98340.821655005202047
98347.098421564878663
98350.977949266103678
98351.956117917128722
98349.972939626313746
98345.288393808805267
98338.453310492768651
98330.356596519006416
98322.204598124750191
98315.379850094017456
98311.200056686982862
98310.48290772792825
98313.369095972841023
98319.295529942741268
98327.167059919447638
98335.785750941926381
98343.981218654924305
98350.898764902885887
98356.340044892742299
98360.805494359461591
98365.094796643548761
98369.913141078912304
98375.651011092617409
98382.281617077271221
98389.612697567019495
98397.548854120381293
98406.296610121367848
98416.445374100687332
98428.569743265092256
98442.860473077162169
98458.917272601014702
98475.648589825897943
98491.509841320134001
98504.834966985188657
98514.392518399792607
98519.833133466192521
98521.960265159839764
98522.523954334494192
98523.794829289414338
98528.062732149614021
98536.998165495708236
98551.157826554219355
98569.819579830786097
98591.040201874158811
98612.165948754889541
98630.446802514125011
98643.748012605021358
98651.097468554493389
98652.87725272323587
98650.528310900102952
98645.990726716685458
98641.151796154168551
98637.374713351353421
98635.22201628422772
98634.471390994207468
98634.524022429235629
98635.053568851522868
98636.242577947516111
98638.688436912168982
98643.227294591488317
98650.628697950436617
98661.186148557375418
98674.47528857945872
98689.351561924791895
98704.219353355292697
98717.530850533163175
98728.289330584259005
98736.163852568759467
98741.560519973019836
98745.40382503955334
98748.718516249922686
98752.355152885211282
98756.747189473171602
98761.789503217078163
98767.041646625482826
98771.976906172247254
98776.30364743868995
98780.21410631625622
98784.364005591138266
98789.60986497355043
98796.639799687676714
98805.481419149960857
98815.361934953078162
98824.919409627356799
98832.49469988256169
98836.656220933495206
98836.63865382008953
98832.602009930153145
98825.589139993709978
98817.297743970601005
98809.62991873989813
98804.259808882692596
98802.34055538928078
98804.359022730699508
98810.201799190181191
98819.241071778887999
98830.472964625107124
98842.658816718292655
98854.43955849041231
98864.371327679400565
98871.062523506116122
98873.424696112328093
98870.778526980851893
98862.945825113652973
98850.175240639990079
98833.183716259431094
98813.138815958300256
98791.513655832095537
98769.839772310384433
98439.53490931399574
98108.496549941730336
98052.891929951088969
98088.975406495461357
98288.624678866035538
98363.503299385527498
98228.616833545471309
98190.896852871446754
98263.286441973556066
98331.496703004464507
98369.290988649619976
98397.963686627947027
98442.231563447479857
98492.314886553795077
98539.729500667133834
98569.734567037565284
98574.961298892827472
98547.053375728748506
98495.443937190473662
98437.979906859924085
98434.508928204057156
98489.698352223655093
98528.585848058457486
98524.20130814917502
98525.255217657773755
98571.219871268054703
98609.236197742298828
98576.793659741990268
98501.581165326453629
98462.047796892715269
98481.505146811716259
98517.162311430263799
98528.764575372479158
98509.712435568959336
98469.909099652810255
98445.224829525745008
98476.807017280138098
98572.804768789806985
98659.964041541286861
98700.883093614131212
98705.608605378205539
98688.958963679659064
98650.299180521542439
98606.555512534352602
98588.856347211782122
98595.08249403903028
98589.533707539783791
98560.560086383105954
98528.81576236631372
98506.433389883532072
98482.808110432015383
98456.897613326786086
98447.777432480375865
98450.8738304261351
98440.915618569444632
98422.895547436753986
98424.983772191786557
98456.470846762371366
98496.990170464763651
98527.302899482572684
98547.549131130042952
98554.889357132196892
98540.513990172286867
98517.719649927981663
98516.624894988126471
98545.436457782052457
98572.932138415359077
98559.129942786967149
98495.646196364832576
98417.087386476472602
98375.426007825284614
98389.966920239923638
98430.834820065385429
98446.878659213485662
98417.547456013504416
98370.21019940469705
98347.382358289367403
98361.269663644881803
98387.859030052655726
98399.841829732788028
98395.166505246656016
98394.303557722829282
98411.974455582065275
98439.291310411383165
98454.151220460800687
98443.133948009301093
98408.339867106187739
98361.082028936827555
98319.118516772810835
98301.942761939659249
98317.662764674212667
98355.687636710630613
98392.140829279538593
98412.72459770970454
98420.015848010385525
98427.256763383760699
98448.145202444429742
98485.550920817055157
98528.21323039107665
98562.790296409453731
98582.103823647441459
98586.647329562969389
98577.627499322145013
98551.770397064683493
98509.72648927863338
98463.912021414202172
98433.892299945960985
98431.267003347486025
98449.298468008622876
98471.292220457093208
98488.154479074364644
98503.42465243008337
98525.018177337929956
98553.382418027889798
98578.971905482889269
98591.991399639315205
98589.735563573340187
98579.799050949135562
98575.531971021046047
98586.028231383141247
98608.785846020153258
98631.214662509635673
98641.295517712875153
98637.355340338195674
98628.265747635523439
98625.685810381983174
98634.592151263481355
98648.929418128565885
98656.677307098259917
98649.597559711488429
98629.141956028048298
98602.99987436424999
98578.222188201922108
98557.194385338123539
98537.479882052808534
98513.727395713169244
98481.849243450007634
98442.445896371034905
98401.530719497444807
98368.162074250751175
98348.930797375011025
98344.731098052187008
98352.681057543610223
98368.770644578355132
98388.666225984183257
98409.285092079313472
98429.660386460309383
98449.686860695364885
98467.183009956599562
98476.157702239870559
98469.391648657605401
98444.706781132525066
98409.755059170318418
98379.486566283376305
98367.591540246547083
98378.510667226815713
98405.444268084189389
98435.951664601758239
98460.630664952317602
98478.525531540013617
98494.885327037918614
98514.053227902986691
98534.046105219487799
98548.041363120923052
98551.175951135446667
98546.19318471410952
98542.015105614715139
98547.305469698214438
98564.929315299290465
98590.669698913989123
98616.149600040123914
98633.087699248848367
98636.195005238638259
98624.302515025541652
98600.943177266395651
98573.940926290393691
98552.983193310981733
98545.727891921967966
98553.915601615517517
98572.413407104526414
98592.199498738584225
98605.942841246709577
98612.053578432183713
98614.372520135599189
98617.924659791693557
98624.247744943044381
98630.231511584410327
98630.899395860309596
98623.679528969412786
98639.103919783286983
98655.319936361906002
98669.992736597530893
98678.443163636286044
98676.025230353698134
98661.10993382713059
98637.137996376404772
98611.624099912150996
98592.36149082663178
98583.467376208209316
98583.746700173796853
98588.479244521135115
98593.106627320492407
98596.17373812769074
98599.922435894826776
98608.336835570706171
98623.638760896996246
98643.920989940816071
98663.83011150402308
98677.556265623352374
98681.945598325793981
98677.981398217234528
98670.036918063866324
98663.529623328882735
98662.381312820551102
98667.542107119021239
98677.153712234430714
98687.773944524407852
98696.214339603233384
98700.715736743470188
98701.560883401980391
98700.739868638658663
98700.6233327928785
98703.298068047399283
98709.64526805812784
98719.336175745091168
98731.189509519419516
98743.759711668477394
98755.889874968168442
98766.849812093176297
98775.554680288973032
98780.507108217047062
98779.928997937400709
98772.163310822186759
98756.916835692201857
98736.189641191405826
98714.206771041877801
98696.021647729634424
98685.342657479544869
98683.170382331183646
98687.480649624470971
98694.235241922055138
98699.552779462668695
98701.502150297601474
98700.466269172771717
98698.529907964490121
98698.292108668902074
98701.483739222516306
98708.240250835820916
98717.115896083094412
98725.792872864520177
98732.071078422421124
98734.734486484463559
98734.143122442139429
98732.176206848729635
98731.605897846762673
98734.98397360459785
98743.487074395176023
98756.209020924128708
98770.423865982025745
98782.601471489426331
98789.937031418041443
98791.470954779535532
98788.105775399017148
98781.623379600117914
98773.512471659501898
98764.265597331512254
98753.377638637437485
98740.308367042598547
98725.522872325716889
98710.861380581220146
98698.790876019658754
98691.162343794072513
98688.013294019998284
98687.52943170547951
98687.101697552934638
98684.892288776230998
98680.809469269079273
98676.413791087936261
98673.623940955629223
98673.215952767553972
98673.90830817494134
98672.659078348660842
98665.966371497677756
98651.549763556584367
98629.510481879347935
98602.538053870666772
98575.007675823362661
98551.542126330867177
98535.40388802914822
98527.531178555189399
98526.368563261028612
98528.638400950760115
98530.606314329052111
98529.450320319374441
98524.071026894685929
98515.213248239640961
98504.897206619381905
98495.402820312170661
98488.331620171418763
98484.115459548178478
98482.15535866607388
98481.431259116274305
98481.127699964636122
98481.07494728344318
98481.754216080444166
98483.879900349857053
98487.726177662640112
98492.685427705306211
98497.288734230416594
98499.617431194434175
98497.987751124703209
98491.49532339911093
98480.241982694104081
98465.193107542378129
98447.822686643936322
98429.751725424765027
98412.416122357710265
98396.962248564275797
98384.272367700526956
98374.827511988842161
98368.70370778189681
98365.589485114600393
98364.649616475682706
98364.675345114286756
98364.408693153076456
98362.81543354819587
98359.25563927438634
98353.888595024996903
98347.685962165065575
98342.079169424119755
98338.464884672066546
98337.789445177972084
98340.196590838590055
98344.964974321701447
98350.809995848030667
98356.264864541837596
98360.00448984412651
98361.175555362133309
98359.538930962560698
98355.339119417330949
98349.076987152846414
98341.353057913816883
98332.939579528116155
98324.900866877564113
98318.46652826628997
98314.84351840162708
98314.834697179729119
98318.416487666603643
98324.847318516607629
98332.792766032609507
98340.858757597379736
98347.892485250442405
98353.198427662893664
98356.572809342367691
98358.467412726662587
98359.803461360133952
98361.449011953809531
98363.96505938199698
98367.575818127777893
98372.349798834184185
98378.40117153225583
98386.054322840820532
98395.845330239084433
98408.317563027405413
98423.622332887010998
98441.245183001999976
98460.019845338363666
98478.296975674093119
98494.343657965393504
98506.743817515060073
98514.88794876668544
98519.240839793535997
98521.344074285880197
98523.386007649329258
98527.672551673356793
98536.007533972966485
98549.191209805430844
98566.735875902202679
98586.947954079296323
98607.234587402577745
98624.864676164055709
98637.720751375192776
98644.854207648095326
98646.679953727754764
98644.795292378548766
98641.373599478742108
98638.438914890255546
98637.264737912759301
98638.247087831317913
98640.99706141675415
98644.677244776525185
98648.525683763931738
98652.341700254299212
98656.564642109573469
98661.967774242177256
98669.322634030264453
98679.117389579449082
98691.238283283004421
98705.018244790539029
98719.434597179642878
98733.379020179156214
98746.007065493104164
98756.969287367246579
98766.377889528666856
98774.628977037820732
98782.137508436411736
98789.097342740031308
98795.387066308554495
98800.708068905485561
98804.77721773313533
98807.588804762723157
98809.509831414979999
98811.185285708546871
98813.416995361942099
98816.982054534804774
98822.313480053475359
98829.203262021343107
98836.713811720968806
98843.474487445739214
98848.108618045036565
98849.651982147290255
98847.877959162680781
98843.305552950609126
98837.057233170969994
98830.614659933111398
98825.476174591560266
98822.844093346255249
98823.516722529544495
98827.730126168971765
98835.240298212083871
98845.50446636135166
98857.771059319376945
98871.096940436182194
98884.274351959131309
98895.97737182212586
98904.857784919498954
98909.65595881002082
98909.476435328222578
98903.893691131102969
98893.071295479938271
98877.724465538558434
98858.985414742070134
98838.30159787471348
98817.166554772949894
98651.545883052662248
98648.341329358983785
98287.524526808119845
98159.894491564002237
98329.203665567358257
98456.449040247694938
98421.745184837389388
98466.157105737962411
98469.275613263074774
98348.549648849555524
98293.978978944855044
98347.287983766029356
98413.833273105527041
98479.170846963650547
98564.311579963250551
98619.919491826556623
98599.159229878074257
98549.535234199982369
98509.223504113513627
98479.736090833583148
98479.706604749822873
98509.503064015909331
98530.137025836127577
98536.799688338709529
98555.149839198231348
98574.376812352740671
98560.901796560603543
98505.765488376331632
98449.241663505730685
98436.338236819516169
98471.601514480498736
98522.489152113528689
98551.500441463533207
98531.409749148064293
98486.574405202321941
98478.362394593088538
98539.091900022365735
98626.07977678917814
98680.34203972161049
98689.474952239790582
98678.866174964146921
98662.16843137658725
98626.426357498537982
98576.734463303553639
98547.250737284120987
98547.661231084392057
98546.734757798054488
98523.816783941016183
98496.226126810215646
98482.319334162442829
98472.840441159627517
98457.889024756586878
98449.422059418226127
98449.666225613647839
98452.196682470603264
98453.1774249245791
98458.168931725725997
98472.872500251658494
98492.661411768189282
98513.777077593753347
98533.606604196509579
98540.538426070837886
98524.832731316695572
98498.36736893557827
98485.517734705019393
98492.969404060859233
98497.692872102707042
98473.595399554193136
98418.945291901894961
98359.999741308929515
98336.330129885813221
98362.421931321863667
98408.955653515149606
98428.542898215047899
98403.695118835326866
98360.367096870584646
98344.821077620363212
98371.020794109484996
98415.796770123575698
98444.111501745021087
98443.54979163040116
98431.578395434989943
98426.437727856493439
98429.17956990172388
98428.509207534007146
98414.164664942523814
98384.983530331999646
98350.846235364719178
98328.261923444704735
98329.879587434508721
98355.018497956363717
98386.82261298938829
98409.728815831898828
98420.629220199625706
98425.125119708667626
98431.077892897010315
98448.111277933072415
98480.957478273849119
98522.651520129831624
98559.741750398650765
98580.281136582023464
98584.497380130298552
98576.331401218340034
98556.144216492364649
98522.06644578257692
98483.751136336941272
98458.039153595615062
98461.042700272897491
98484.619951611413853
98511.109536062998814
98528.030203602655092
98536.664623281045351
98545.403476637220592
98559.523311231765547
98574.502021381136728
98581.817832461500075
98578.01128420328314
98568.834805701466394
98566.018311915599043
98578.016593966036453
98602.472774839101476
98627.212798351800302
98638.910324365482666
98632.938230984524125
98616.12651544099208
98600.807857993189828
98595.766829887244967
98600.713308455393417
98608.489771027554525
98612.321068173390813
98608.762206490238896
98597.484958747212659
98580.243471407113248
98558.927188212823239
98533.623402680444997
98502.035655983170727
98462.890182034592726
98419.715247036030632
98380.972762480130768
98354.965871405453072
98344.983323615393601
98348.664517694676761
98361.079425322735915
98378.949101789068663
98400.931983070011484
98425.081921059463639
98448.261804381909315
98466.415552743914304
98474.700877525552642
98467.835396862894413
98442.970425639417954
98404.094419683257001
98363.557766415557126
98337.66517867987568
98338.000374294235371
98364.097145628955332
98403.308650665188907
98438.581788654890261
98459.531008194171591
98467.734200395076186
98472.643802265476552
98481.996882718682173
98495.360571544078994
98505.875961460114922
98508.618579086425598
98506.430652980066952
98508.486803173364024
98522.58648166754574
98549.201824517862406
98581.300372328449157
98608.737374805175932
98623.495915057195816
98622.07932033209363
98605.607227215965395
98579.115915063826833
98550.810466977141914
98530.246170131620602
98524.42397185099253
98534.266067477918114
98553.97869218204869
98574.24925594778324
98587.566064528204151
98592.460394909750903
98593.21450995298801
98595.769051868497627
98602.864178770134458
98612.082415365526685
98618.013153219537344
98616.600741916656261
98647.7454688300204
98663.022928480801056
98676.856020259088837
98684.825757510319818
98682.863219951454084
98669.795120267459424
98648.767372555928887
98626.312225325207692
98609.151380485738628
98600.812700529771973
98600.203658892583917
98603.128760744351894
98605.554110874581966
98606.345827486133203
98607.770373566105263
98613.655610649992013
98626.415273890001117
98644.773229402198922
98663.885560296155745
98677.851512661625748
98683.005679200286977
98680.04025203511992
98673.642395852017216
98670.036879963226966
98673.83494887658162
98685.751431326221791
98702.463791093163309
98718.457272980886046
98728.781205180217512
98731.140043051229441
98726.59095859984518
98718.458483889335184
98710.753455200319877
98706.18502736184746
98705.915339441256947
98709.701547280565137
98716.63562807677954
98726.173709597525885
98737.886246435693465
98750.766244833474047
98763.092417114283307
98772.229920576588484
98775.133530242412235
98769.593662020299234
98755.569527066792944
98735.746582414823934
98714.761992132436717
98697.451663728395943
98686.888963813835289
98683.346035540584126
98684.613309988155379
98687.341752135369461
98688.71996023945394
98687.848484675690997
98685.906657968749641
98685.169554438238265
98687.79027148654859
98694.636189034135896
98704.840101405585301
98716.136718011257472
98725.721784481400391
98731.310470079086372
98731.995096696919063
98728.696594447916141
98723.877584274596302
98720.562516955949832
98721.198859506883309
98726.771850834862562
98736.417951710667694
98747.787220416954369
98757.970946995017584
98764.547088271996472
98766.402192593770451
98763.777307018754072
98757.57863507354341
98748.452519519734778
98736.530979601942818
98721.74704638608091
98704.629360466235084
98686.880003450452932
98671.233095277464599
98660.28160621241841
98655.166005495193531
98654.806917317473562
98656.391657960266457
98656.875630543523584
98654.658671704877634
98650.288313533601467
98645.906377465784317
98643.613920420044451
98643.886062123157899
98644.956092859763885
98643.474492478984757
98636.065959481784375
98621.028225776186446
98599.266163283478818
98574.103442571809865
98550.086300782699254
98531.459246961254394
98520.779239705952932
98518.102328375985962
98521.003630601393525
98525.549226045186515
98527.806429918913636
98525.307459203409962
98517.741479645555955
98506.68144542646769
98494.703438633150654
98484.206705776668969
98476.528685286015389
98471.632717011409113
98468.451967563960352
98465.774983918032376
98463.046832397885737
98460.687075107969576
98459.834942219807999
98461.705015588813694
98466.871746328222798
98474.729930398694705
98483.518614665779751
98490.764859917588183
98494.104896274802741
98492.099436662261724
98484.574070879592909
98472.459538721537683
98457.283364150338457
98440.689675652203732
98424.131974492178415
98408.747845993479132
98395.432541625908925
98384.907515980870812
98377.586692529468564
98373.437113382577081
98371.904695266988711
98371.886361042794306
98372.101373646160937
98371.499639380795998
98369.427817566058366
98365.954314385351609
98361.873143347314908
98358.530283819229226
98357.043470333810546
98358.014213876609574
98361.231419234361965
98365.739056562655605
98370.137548306942335
98373.169945835921681
98373.980145054549212
98372.193706433943589
98368.009530205599731
98362.011624426449998
98354.914840875833761
98347.330913408863125
98339.85755599278491
98333.175979812265723
98328.130525252883672
98325.574359914535307
98326.109027331272955
98329.703135442920029
98335.673992183350492
98342.76460446427518
98349.532676261063898
98354.862877746563754
98358.147421038520406
98359.223568868241273
98358.358704260448576
98356.430254069040529
98354.537942729846691
98353.623422761957045
98354.289173921730253
98356.86610865345574
98361.573341457362403
98368.608427102371934
98378.229094540336519
98390.72620409814408
98406.175890122132841
98424.18062415040913
98443.782176356515265
98463.563528385013342
98481.914620426949114
98497.427407010807656
98509.171851042177877
98517.034895528122433
98521.901097275171196
98525.487142258600215
98529.871261571432115
98536.978183415296371
98547.960073096721317
98562.866732939219219
98580.555256220846786
98598.921159780453308
98615.473105626224424
98628.143763875123113
98635.98069647308148
98639.361617412650958
98639.736165524431271
98639.030975095622125
98639.061604267917573
98640.978044765084633
98645.064175463252468
98650.825468581315363
98657.348315663286485
98663.71910045009281
98669.476446578570176
98674.820543904294027
98680.438311959180282
98687.077855838972027
98695.332840357965324
98705.486360681301448
98717.354790255441912
98730.478024108713726
98744.29114567337092
98758.277183593920199
98772.073073675055639
98785.458997332010767
98798.258222740507335
98810.201835363375721
98820.875575286045205
98829.750392896923586
98836.386513482342707
98840.667329325282481
98842.915171621847549
98843.906124576096772
98844.625357150784112
98845.960842278844211
98848.36985859478591
98851.857037154593854
98855.971081807816518
98859.855475788921467
98862.480173615185777
98863.052012047599419
98861.312517110127374
98857.646818321547471
98852.924861344901728
98848.28617922567355
98844.798834439163329
98843.302543103462085
98844.303144951685681
98847.964279355001054
98854.133463260208373
98862.483035936049419
98872.560135292020277
98883.920405066062813
98896.017065077423467
98908.163285674294457
98919.445650124267559
98928.778205132985022
98934.952806231405702
98936.882572252579848
98933.875279293977655
98925.804869168743608
98913.261748208038625
98897.327534007970826
98879.289048165184795
98860.529498540272471
98842.251245500272489
98503.423643179223291
98658.634224958077539
98544.298270104642143
98436.572289393589017
98442.163928761787247
98474.194489352958044
98537.228245780963334