/*--------------------------------*- C++ -*----------------------------------*\
  =========                 |
  \\      /  F ield         | OpenFOAM: The Open Source CFD Toolbox
   \\    /   O peration     | Website:  https://openfoam.org
    \\  /    A nd           | Version:  12
     \\/     M anipulation  |
\*---------------------------------------------------------------------------*/
FoamFile
{
    format      ascii;
    class       volScalarField;
    location    "0.00513";
    object      rho;
}
// * * * * * * * * * * * * * * * * * * * * * * * * * * * * * * * * * * * * * //

dimensions      [1 -3 0 0 0 0 0];

internalField   nonuniform List<scalar> 
75962
(
1.1391140293888464274
1.1391197179234648917
1.1396047635604156234
1.1388920949529608428
1.1387905962483404476
1.1392219746249605539
1.1387853202544275799
1.138237400129868071
1.1382790627228935865
1.1388041627721432469
1.1390373480236613002
1.1390062163111749349
1.1393926809982179993
1.1399182738899755751
1.1400688242773513448
1.1398328517758173906
1.1395401409004706217
1.1392026172609985846
1.1386996457235276647
1.138390277324500488
1.1388762473439231204
1.1400388550921554121
1.1408817775319757271
1.1408588438205296001
1.1403943039664796721
1.1401421970065572786
1.1401180599809073168
1.139900170622789366
1.1395391754894672598
1.1395034022758026016
1.1398441071403988545
1.1400480840598417043
1.1397718055952799077
1.1392019018863508428
1.1386020185567500285
1.138345191673390433
1.1387314272053903341
1.1397954612229550531
1.1410375489029764839
1.1417767098859570307
1.1418058744750825273
1.1413004263884920508
1.1405892458142949941
1.1401092637485414905
1.1401478583100177477
1.1405447380433473281
1.1408271178062474593
1.1406956757090638277
1.1401800784903111108
1.1394522457523696968
1.1387379716412653341
1.138362530522535554
1.1385769339643725395
1.1391649571753215131
1.1395738386326814684
1.1395573054520291567
1.1393554641018650564
1.1393047883800835329
1.1394070104435574109
1.1395920641622638847
1.1398379708280830247
1.140002405231149929
1.1399070316302177819
1.1396085768337524957
1.139427137741284346
1.1395686666084434702
1.139854134619272541
1.1399249597824663294
1.1396138749546889102
1.1391327719429413801
1.1388309766986630667
1.1388825750524558256
1.139126222985865633
1.1392928259654675482
1.139265493626281156
1.1391547092095180016
1.1390714306388280974
1.1390019088781535572
1.1387774279146209988
1.1383120428727075968
1.1377620414041047514
1.1374025725812113574
1.1373880251708314848
1.1376212412899844306
1.1378942068131581156
1.1380984985886053451
1.1382698968956361796
1.1384509554855242186
1.1386477873149363216
1.1388662563554656781
1.1391133570910794148
1.1393329457795606796
1.1393645738703004344
1.1391150832141823113
1.1386839146942755452
1.1383109032646958614
1.1382078517027831577
1.1384365408744530068
1.1389160489240042207
1.1395017195195040749
1.1400701936538357728
1.1405013534250085794
1.1406551766382606594
1.1404256625019544291
1.1398306131781881234
1.1390517501268182521
1.1383375968021358648
1.1378503581773860009
1.1376160779056923023
1.1375963225734493367
1.1378085486124238646
1.1383215566511304395
1.1391526437250678594
1.1402159692872506636
1.1413305456932820725
1.142346351932810089
1.1432066081056029283
1.1439565944720222479
1.1446832362932508609
1.1454373250544072071
1.1461840810122692069
1.1468243686019974348
1.1472727838843770343
1.1475370746092716789
1.147720143595925224
1.1479344582305908151
1.1481994954020497968
1.1484143343871995313
1.1484520451746960124
1.1482736603811474208
1.1479628396160672654
1.1476517359160776088
1.147424577218355779
1.147282872949075383
1.147169007759904602
1.1470223573566358244
1.1468104095331737025
1.1465335985141273945
1.1462271448063836576
1.145951911025859582
1.1457645995421965601
1.1456915634313844521
1.1457223173776187597
1.1458169618763458519
1.1459258362865063496
1.1460232288936440526
1.1461236693963965383
1.1462611645903109103
1.1464396081344809808
1.1466067013088074855
1.1466807427334970715
1.14660693648190537
1.1464082854699599867
1.1461766555200147977
1.1460172878532248752
1.1459897137435854919
1.1460851870153905274
1.1462519910283837099
1.1464424352711399813
1.1466399439098764468
1.1468487844362376116
1.1470677634761521357
1.147265746794726482
1.1473933277441086265
1.1474221251014717904
1.1473731896459973267
1.1473066197811976341
1.147287350163000319
1.1473488638561235575
1.1474781063780199464
1.1476269225743234159
1.1477367179765285421
1.1477610304922449824
1.1476780403508621831
1.1475003430038988039
1.1472759930054476918
1.147075440929640644
1.1469644711147348737
1.1469730550952668136
1.1470791432892475381
1.1472209873376062461
1.1473379362978657348
1.1474031050519379882
1.1474319477342544982
1.1474535195143475974
1.1474764301996773774
1.1474810640947408213
1.1474357769690575193
1.1474507460794451941
1.1475529724739119697
1.1476038353692787908
1.1475675239323630539
1.147429356398884881
1.1472163245379916052
1.14699165002959802
1.1468228900198127462
1.1467488496645295015
1.1467644173917483919
1.1468308718541622149
1.1469045712763352718
1.1469653778474193651
1.1470251757746428023
1.1471112319607734698
1.1472390514401273887
1.1473965144273092776
1.1475476459036617616
1.1476527409979613292
1.1476898215749116172
1.1476635668154075987
1.1475992449493106484
1.1475282028660509503
1.1474757447924686105
1.1474548058583251553
1.1474657191660186939
1.1475012236913637587
1.1475499097361987477
1.1476023669833033125
1.1476537858293214267
1.1477056894581807445
1.1477652288072519582
1.1478413326511591741
1.1479381891653035463
1.1480532436890051873
1.1481762845889087465
1.1482942141163718919
1.1483955598094954809
1.1484739867979005812
1.148526393381679167
1.1485493396570685132
1.1485344281057168203
1.1484709263897401321
1.1483550061618292837
1.1481987687093886397
1.1480325956553585343
1.1478948439912519675
1.1478183212922659084
1.1478138563067168398
1.1478653398484732762
1.1479371332473209399
1.1479941825583017678
1.1480159508805236612
1.1480027002923036683
1.147972358688847283
1.1479484318905672779
1.1479487949434579175
1.1479794577682258527
1.148033758415746286
1.1480963764802782912
1.1481499706898699031
1.1481828351055090032
1.1481948178029675045
1.1481980872254475834
1.1482136827365350129
1.1482630007921061921
1.1483570556271316399
1.1484885875726389415
1.1486321067072071678
1.1487532173240906364
1.1488246987709958002
1.1488381890634180582
1.1488054101001994312
1.1487488970459671656
1.1486891681678430555
1.1486336471470894871
1.1485751732182754026
1.1485010060296116929
1.1484044832193576191
1.1482922314728396529
1.1481825372988927469
1.1480957679247678627
1.1480423647185540315
1.1480173556215269581
1.1480043646736661778
1.1479859888255588007
1.1479547622252384009
1.1479164685663578727
1.147883820463104998
1.1478655676014550835
1.1478576498167283315
1.1478421630098694095
1.1477936209503416531
1.1476903204313571027
1.1475254770497798074
1.1473121085565065602
1.1470796810120149622
1.1468638719217003619
1.1466939692503774761
1.1465840063639125557
1.146530321901569005
1.1465151497254579827
1.1465141899105149026
1.1465056768362231754
1.1464771334557328775
1.1464283882005747994
1.146369214675059256
1.1463132909258768599
1.1462716674347463996
1.1462486828998237343
1.1462422471862354634
1.1462462365969987577
1.1462542979726579873
1.1462633148957694917
1.1462741827260252148
1.1462888648273712455
1.1463062532127732407
1.1463202952100290943
1.1463210771742979865
1.1462979704878792919
1.1462434813055486504
1.1461550210586433085
1.1460351324774487036
1.1458910160075626017
1.1457333212807301326
1.1455744276993964359
1.1454268617626066629
1.1453018266092802602
1.1452073421638513384
1.1451463374958366082
1.1451161888757364071
1.1451088986084496657
1.1451125401496131673
1.1451141662063131221
1.1451024041435691192
1.145069222067650605
1.145012556118660374
1.1449378975133945868
1.1448571539714615941
1.1447849510581800114
1.1447352547989015914
1.1447174656141678728
1.1447335497402590931
1.1447777314040046281
1.1448387104783319668
1.1449022017857535261
1.1449546993373445058
1.1449870074566461664
1.1449948749665137537
1.1449778262170728915
1.1449381206819313483
1.1448805044712806467
1.1448125475381518701
1.1447444381057616525
1.1446877522359850676
1.1446534372709571414
1.1446481865503330688
1.144673012947492019
1.1447230514431254722
1.1447890267679297072
1.144860869537907444
1.1449288171893954313
1.1449857980167874594
1.1450302472900524275
1.1450664347632102391
1.1451011238558275185
1.1451402892645949905
1.1451872732779364572
1.1452419251583885185
1.1453026722166403939
1.145368714452400738
1.1454417087668884445
1.1455264680115782028
1.1456276640989944138
1.1457467815493411756
1.1458804149101997627
1.1460194336210451915
1.1461509931872042589
1.1462612649951360311
1.1463400623715840343
1.1463845570222555015
1.1464015065998287568
1.1464055322943358384
1.1464155659767276685
1.1464506611517737422
1.1465246730742828518
1.1466421422061368052
1.1467969689132968547
1.1469729140266764489
1.147147884628174408
1.1472990353777818839
1.1474086714089886119
1.1474687740026856542
1.1474825817635139202
1.1474621104409901129
1.1474235038268623121
1.1473824452171978994
1.1473502785318598907
1.1473317402098248685
1.1473250764022191461
1.1473254191255228829
1.1473301474609409745
1.1473408178837170013
1.1473623475648280223
1.1474015219266704424
1.1474644902181951878
1.1475534241266509561
1.1476645701576169145
1.14778830679098931
1.1479113976455295187
1.1480211358677541167
1.1481094841327159628
1.148173962723997743
1.1482181706469154481
1.1482499147449278798
1.1482776935455401013
1.148308448131013737
1.1483456040146806654
1.1483880958054839549
1.1484321221845787964
1.148473235823350036
1.1485090092397376438
1.1485410732052476757
1.1485749161867302437
1.1486176805185746019
1.1486751162491892764
1.1487475032802902941
1.1488285160289619657
1.1489069966203617756
1.1489693464439107995
1.149003833795641194
1.1490042049580488914
1.1489717928633862432
1.148915151736161544
1.1488481848104488137
1.1487864212682969978
1.1487434914802234776
1.1487287695319465808
1.1487461868548820565
1.148794796928293005
1.1488694708900795138
1.1489620188782798671
1.1490623296407305176
1.1491592919112545435
1.1492410581669956215
1.1492961636206837639
1.149315591445039475
1.149293697727491681
1.1492289671058033562
1.1491234166418411444
1.1489829491243541693
1.1488171942502753975
1.1486383137578599634
1.1484589256653761069
1.139342303676040391
1.1372542812915771293
1.1375422363389220415
1.1380942549309174261
1.1397115843876604036
1.1404359982434373322
1.1395047655252146246
1.1390218726774976599
1.1389453158250522069
1.1387072450314719152
1.1385929770860458987
1.1389236453749720379
1.1396382039442041201
1.140294589608155329
1.1406243411219061379
1.1405060147844456875
1.1400147360259498264
1.1393107580183854388
1.138719996541805779
1.1385159118948147139
1.1390865541543033768
1.140178570915159062
1.1408718470914096521
1.1407983416971338997
1.140422757228547912
1.1402776161664174293
1.1401658027925272165
1.1397374785099410044
1.1392477151448967554
1.139229242120018526
1.139675862025325781
1.1400421853750488665
1.1399090810418828212
1.1393052145172983813
1.1385427846598623614
1.1381768104969731681
1.1386849853720977244
1.1400607949569550037
1.1414297374907018678
1.1421464836956445321
1.1420897852194231703
1.1414570886707506858
1.1405654328266461306
1.1399183272204309603
1.1399425348221887688
1.140489379321161012
1.1409125152963743854
1.1407633294732266727
1.1400928702411938787
1.1392059161279390889
1.1384149268522756326
1.1380459537448794904
1.1383213547460588888
1.1389833136603657593
1.1394736081112790682
1.139566394057237142
1.1394513852009975352
1.1393772733098097572
1.1394220230772345026
1.1395806973892572689
1.1398364096966271397
1.1400239598642114558
1.1399246879405038335
1.1395984025035754694
1.1393606709906682894
1.1394051771108542059
1.1395718899821130066
1.1395432236095512923
1.139181582585907293
1.1386786518699854032
1.1384080366403566131
1.1385419709016311174
1.1388965629565988014
1.1391102119315499319
1.1390246933371743765
1.1388155670051951507
1.1387477985862741736
1.1388452949627678734
1.1388799619070713032
1.1386550608078023217
1.1382272395987522717
1.1378541682508553912
1.1377334520178972177
1.1378409487251681664
1.1380160593135877356
1.1381476758708004571
1.1382330687539714553
1.1383201211557048005
1.1384776069213977667
1.1387625653283943716
1.1391376478394303895
1.139447222537331772
1.1394910599594161305
1.139217541025657976
1.138763947246317132
1.1383704170260549038
1.1382598292574572785
1.138517655055787392
1.1390502837740974496
1.1396846933944426716
1.1402534881808672473
1.1406381376646379522
1.1407468103642155466
1.1404982035155237785
1.1399007828947906873
1.1391100443945363363
1.1383730774598812552
1.1378843208155742239
1.1376825882725378758
1.1377064165524821693
1.1379280513811667053
1.138389423207293083
1.1391350752752613662
1.1401211715260488599
1.1412049830360189162
1.142237089226907587
1.1431326323850115045
1.1439057663167226941
1.1446352935471277856
1.1453809647023422968
1.1461192183025890046
1.1467512674738957745
1.1471877053204013741
1.1474268587816667253
1.1475549198275936114
1.1476808798696211955
1.1478579460388373956
1.1480473276832949825
1.1481596087715881804
1.1481343139855364477
1.1479876801103907624
1.1477840974377155892
1.147580662732269996
1.147396045192295766
1.1472111426436890635
1.14698571139436023
1.1466922175421270236
1.1463423789603497394
1.145991239588627586
1.145716302821473187
1.1455714913845342906
1.1455605279673177765
1.1456534406268024107
1.1458099144255524671
1.1459879204384773033
1.1461585169902692716
1.1463138402433035168
1.1464563130321638873
1.1465730408873737733
1.1466199453763212812
1.1465418664375293112
1.1463235534047120368
1.1460287541980369586
1.1457792856618018718
1.1456847691554132851
1.1457776260665366586
1.145998059746471176
1.1462416800979795539
1.1464316334649966578
1.1465626480786998975
1.146681287030081986
1.1468261001296025103
1.1469822725720126844
1.1470938331155617895
1.1471199011539616741
1.1470815437044885599
1.1470502815089826942
1.1470953089758364474
1.1472381186796691832
1.147442174732925757
1.1476371825026152607
1.1477543019738321028
1.147750159684175042
1.1476161824249588861
1.1473832973291606674
1.1471182941630293506
1.14690335317987957
1.1468034967113507339
1.1468342643991946694
1.1469538717647844717
1.1470881287026037931
1.1471767339914429318
1.1472066969286716098
1.1472096298099043743
1.1472266025816177937
1.1472696052818849299
1.1473121311787950471
1.1473123446589323926
1.1472484475252817671
1.1473707076887087464
1.1475043778248932291
1.147625402072066203
1.1476947497366363216
1.1476738673004189817
1.1475494956693306214
1.1473505050831347418
1.1471393558165798865
1.1469805143381905932
1.1469077792396948912
1.1469109005417876812
1.1469505328049083293
1.1469888624795632204
1.1470139548892488435
1.147044563090177105
1.1471138696429992176
1.1472404543653806908
1.1474086797082487799
1.1475742966642061837
1.147689139619611387
1.1477268639702706832
1.1476952695716504671
1.1476302532815301216
1.1475765174820320436
1.1475665961545742366
1.1476085935743132183
1.1476874485421288963
1.1477749451254428692
1.147844857961144438
1.1478826272635100914
1.1478904453271507879
1.1478845277955760373
1.1478842374302991036
1.1479066128835293537
1.147958821526600115
1.1480381564651322979
1.1481349826972653272
1.1482375869327079432
1.1483366938389514278
1.1484265210855171269
1.1484982339145017871
1.1485394420587469178
1.1485353313379735862
1.1484720606963443323
1.1483470679307510309
1.1481767722981019997
1.147995996628065507
1.1478463890499179811
1.1477584522765862385
1.1477403255338993748
1.1477752487969805628
1.14782993940511302
1.1478725212072635742
1.1478873056306662104
1.1478777116512575152
1.1478611243988265933
1.1478590475863439391
1.1478857060276217439
1.1479420770033510468
1.148016048232746833
1.1480883176005234336
1.1481405970121159044
1.1481627892124615098
1.1481578948600470458
1.1481415276818061066
1.1481367066719676551
1.1481646173398143418
1.1482350378443244576
1.1483404813696405089
1.148458406811703636
1.1485596449762471849
1.1486210340370075489
1.148634635908054813
1.1486078508846093715
1.1485552771613798395
1.1484890573610424536
1.1484131439939264663
1.1483233319724133192
1.148215193918852961
1.1480926215633879828
1.1479708226757874279
1.1478701234597727954
1.1478057749373642427
1.1477781418705419458
1.1477724265779374324
1.1477673640417422884
1.1477480608047809785
1.1477139347936080593
1.1476778744522995179
1.1476555528898824132
1.1476531006432075799
1.147659638553559347
1.1476498130039318735
1.1475945700372143232
1.1474750476611415007
1.1472921561910689459
1.1470682822101496701
1.1468398066909675226
1.1466451739090530726
1.1465115245204684502
1.1464466629228393657
1.1464376288955906436
1.1464571081177861167
1.1464739675441018019
1.1464646594526517465
1.1464199795095981749
1.1463460999161929621
1.146259835041680164
1.1461802001819976216
1.1461206133148684749
1.146084794518803962
1.1460678935935129097
1.1460615302220018563
1.1460589626852708545
1.1460587318932085044
1.1460647154267007419
1.1460827075337260972
1.146114885195956834
1.1461561946942897539
1.1461945296181554887
1.1462141045311593501
1.1462010613770523548
1.1461479177656896944
1.1460554215185918547
1.1459313930075523125
1.1457878492444957264
1.1456380884577368473
1.1454939891099562566
1.1453651578048824611
1.1452591081763896508
1.1451800487703096554
1.1451287786841068961
1.1451027927334769263
1.1450951313221775507
1.1450956633908155879
1.1450938320416554905
1.1450809720229253585
1.1450517404929245746
1.1450074813760142689
1.1449563131349647094
1.1449101615517580655
1.14488063923144745
1.1448755897954066008
1.1448961737170124664
1.1449363440793591806
1.1449853703804178107
1.1450310068310027845
1.1450621851432705167
1.1450717530777874131
1.1450576871109532373
1.1450220389982042057
1.1449690682508266715
1.1449039235667679559
1.1448332071360125539
1.1447659329342823042
1.1447124333461626833
1.1446827513484041372
1.1446834720795742157
1.1447142439257189661
1.1447687153135952531
1.1448355932774498811
1.144903132201164464
1.1449616605094221633
1.1450054081675602458
1.14503275357481904
1.1450475697987747559
1.1450576578490778701
1.1450703803268345027
1.1450905276549006029
1.1451200358923574463
1.1451594969584633077
1.1452098243700432612
1.1452736436922332786
1.1453553051994340706
1.1454592168105537375
1.1455865535027196511
1.1457329822237787287
1.1458887856111805714
1.146040265673983205
1.1461730545880912668
1.1462754407630499909
1.1463424272146001126
1.146377960524593842
1.1463949157581077021
1.1464115221911321818
1.1464469492362616698
1.146516146567319705
1.1466256869363071758
1.146771402136105733
1.1469391193284013131
1.1471072300080951134
1.147253042608217477
1.1473590054627438306
1.1474172855376889579
1.1474313737124093304
1.1474145827066710712
1.1473850098361122463
1.147359516731226714
1.1473487474757155802
1.1473560914364440144
1.1473784474051000881
1.1474089818298489618
1.1474414278591678062
1.147474099984496565
1.1475105389380009235
1.1475569676248742468
1.1476195421843491395
1.1477020658577206103
1.1478034084651007607
1.1479179574261257901
1.1480372907727705023
1.1481523837567395585
1.1482564618436292836
1.1483468489815056301
1.1484246332047352013
1.1484931516607752577
1.1485557985412377935
1.1486140502285964171
1.1486667362840010664
1.1487112385865110298
1.1487451186050445795
1.1487683075995287485
1.1487838847798557129
1.1487972574705000994
1.1488151296239978993
1.1488439750785337523
1.1488873987635428442
1.1489436978266100997
1.1490051519611927944
1.1490605055181435379
1.1490984949498603829
1.1491112753000545244
1.1490970691681732241
1.1490601968107965192
1.149009883059103565
1.1489582438077869941
1.1489174684580081287
1.1488972778094941329
1.1489040705969386647
1.1489396651576662123
1.1490020199710389015
1.1490867048017714414
1.1491876363683075635
1.1492971795370545696
1.1494055081833949306
1.1495017840957246769
1.1495749258777454571
1.1496145213924708894
1.1496131355720102807
1.1495671934067008824
1.1494779954799165811
1.1493513943481934447
1.1491967072922022464
1.1490258497990275544
1.1488510976928196783
1.1416209938235217791
1.141618856909584423
1.1392600528969549778
1.1385155087189176015
1.1400213615539676049
1.1412266397001935569
1.1410416224038346655
1.1411558813016109415
1.140527997864922094
1.1388111388991775108
1.1379748819869568432
1.1384955574928938837
1.1393976532913412392
1.140236248869657798
1.1409438962952136443
1.1410485631864211165
1.1402854756955387305
1.1393192035840118415
1.1387672832298414427
1.1387914962253626872
1.139418183452715283
1.1403165707615985358
1.1408344980657132428
1.1407943581328976457
1.1405093480224182123
1.1401373740312057414
1.1396493251105093147
1.1391130836771117263
1.1388569938671078141
1.1391182578455638641
1.1397231221289385594
1.1402023846591100575
1.1401632101056191626
1.1394868492609411259
1.1386379210597461498
1.1384051329780724426
1.1391909068347159106
1.1405373613732727733
1.1416422568443649332
1.1420443655976091346
1.1417719782493960246
1.1410620377771685252
1.140170915064604662
1.1395156041705845062
1.1395268033384775563
1.1401129942861827349
1.1406258104171602685
1.1405277673021072538
1.1398622981995993886
1.1390235005808948543
1.1383607713451320276
1.1381216731800005704
1.1384390866729710012
1.1390771843104923189
1.1396179782985653706
1.1397796535237685323
1.1396055589507834149
1.1393521086275140153
1.139238062663069373
1.1393681351071329733
1.1396737386200925801
1.1398955443138452104
1.1398010158848075335
1.1394468125051007146
1.1391164197839040995
1.1390021372368015484
1.1390117091265785643
1.1389310373748406935
1.1386615602538181502
1.1383139959221526549
1.1381564156521808417
1.1383293822404754181
1.1386679969605513207
1.1388571567269514251
1.1387735855905525284
1.1385824840712008843
1.1385765887086676251
1.138791666095758881
1.1390056550437843708
1.1389587741809830135
1.1386208435131632832
1.1382183159247569737
1.1379659509936224104
1.1379066973808549257
1.1379569145525167961
1.138028771042648879
1.1381007431187020185
1.1382251167934087643
1.1384783958644861812
1.1388749072020976083
1.1393115859609046492
1.1395818390351590832
1.1395500483554115156
1.1392497184495207208
1.138833615317965231
1.1384860019508638018
1.1383840090261112543
1.1386188109051449402
1.1391293442682226544
1.1397467315339131488
1.1402750387455786729
1.1406041804462507816
1.1406730822435997563
1.1404370007393136444
1.1398893130086431569
1.1391674238444104983
1.1384969597550309572
1.1381040757530591634
1.1380052839287790878
1.138117396667235548
1.1383728302885447459
1.1387889769432091303
1.1394164116547733645
1.1402605281209348131
1.1412336837050751637
1.1422092816245836833
1.1431025977965483253
1.1439101648077731888
1.1446880195295132676
1.1454783263783159253
1.1462479164067100879
1.1468956575859210467
1.147321710537964945
1.1475056789290918324
1.1475257969875380937
1.1475060040994089494
1.1475378631153971831
1.1476329099640010245
1.1477401464541006071
1.1478063132885727438
1.1478018761598893782
1.1477216578707092332
1.1475786436114010503
1.1473895366072111024
1.1471591714295135134
1.1468748458726116812
1.1465324694562948338
1.14616565593861508
1.1458457552939365076
1.1456399536206058887
1.1455719895906650851
1.1456179027856256969
1.1457324194673044193
1.1458846881869590995
1.14606160082387043
1.1462475080869105604
1.1464193612722397564
1.1465479106835898548
1.1465973476978568169
1.1465269737561318841
1.1463143479123161228
1.1459918542466820401
1.1456597731272621932
1.1454502016224672456
1.1454556724188968975
1.1456692047396410672
1.1459843337198285518
1.1462602923845071068
1.1464136879099549038
1.1464612862268250826
1.1464847660478598712
1.1465503784709702995
1.1466552610213445185
1.1467420100654091009
1.1467681484267606695
1.146754665892265157
1.1467745899855978919
1.1468897771362165372
1.1471021313064109215
1.1473523589607550477
1.1475562936422580851
1.1476481444221082739
1.1476001956843433494
1.1474234929461670784
1.1471618578099602725
1.1468853520868125262
1.1466748754372300123
1.146589619798364712
1.146637866700064512
1.1467718985888339933
1.146914738527092803
1.1470042632724564147
1.1470282632391957112
1.1470219235513956502
1.1470339002033502762
1.1470861669527694371
1.1471579757896932517
1.1472038985313854909
1.1471898573217613748
1.147441823243192438
1.1475674055845479504
1.1476813156482901235
1.1477467106796646057
1.1477298074131634387
1.1476210306280263396
1.1474466944627965681
1.1472610744561198004
1.1471197614174537538
1.1470516638060930248
1.1470473785307448988
1.1470719393346868742
1.1470919344667258599
1.1470981783993408065
1.1471097381114714331
1.14715856524864801
1.1472647845652683696
1.1474178253488775958
1.1475774431657337349
1.1476945427049249915
1.1477384806521016003
1.1477147078640925759
1.1476618618106875225
1.1476314971630159345
1.1476619939656556024
1.1477595820425365858
1.1478970913297092959
1.1480291315491690796
1.14811482340924087
1.1481350815044168989
1.1480984217238130451
1.1480320442344997822
1.147968834606015065
1.1479310154520130371
1.1479281461490769001
1.1479583061630100893
1.1480142137244191414
1.1480916772559648376
1.1481874295606999681
1.1482933528273617796
1.1483953086186242665
1.1484714570167253722
1.1484964526950671715
1.148451798952589531
1.1483369412505695095
1.1481739236601111731
1.148000981342585991
1.1478580318720099651
1.1477704530648362713
1.1477404835429854124
1.1477499046601633559
1.1477711886411245956
1.1477813438033290794
1.1477732085292675634
1.1477567324769069046
1.1477507785159997145
1.14777304316256612
1.1478304725120400676
1.1479156514453960902
1.1480096712408189852
1.1480892628140353384
1.1481355453439743286
1.1481410805312388668
1.1481135685464278762
1.1480734471086941895
1.1480457679520583714
1.1480507829830146616
1.1480966549765041496
1.1481762776957433747
1.1482702911810598323
1.1483547474043978021
1.1484097057740181302
1.1484259510201912935
1.1484053521618935445
1.1483552031792159109
1.1482806469535820071
1.1481826498794895919
1.1480606359232543578
1.1479190197916453453
1.1477719144665725626
1.1476419227902809883
1.1475504350272867082
1.1475068576030780232
1.1475023488349329615
1.1475138718275030847
1.1475165470293611225
1.1474974026980029329
1.1474610807166192306
1.147425224793033216
1.1474069946081772997
1.1474100450814410657
1.1474195187427718157
1.1474075619854162689
1.1473462212882643563
1.1472214723474067899
1.1470409157597740712
1.1468322085568973812
1.1466331413088506341
1.1464789810873163844
1.1463909438790185202
1.1463694321809154708
1.1463942113258149824
1.1464325018214056584
1.1464515416612748311
1.1464307731026215365
1.1463676118901220402
1.1462751775321025072
1.1461749502116700405
1.1460869370795641053
1.1460223153029021059
1.1459808506255131366
1.1459537600206892716
1.1459310562878581852
1.1459081835237321378
1.1458886391410447736
1.1458818395198975271
1.1458977828093948048
1.1459411449941383498
1.1460068335581883314
1.1460802212916323395
1.1461408320272481465
1.1461691111715033298
1.146153132141764619
1.1460913967400268021
1.1459915187357561095
1.1458660462664063129
1.1457285373191954392
1.1455910362140822034
1.1454630326379229288
1.1453520599565254479
1.1452642159870316529
1.1452030119372011985
1.1451682130223410638
1.145155236841675972
1.1451549360269792643
1.1451566949248723759
1.1451518380605796299
1.1451349860650672507
1.1451067362086704282
1.1450736564206807078
1.1450468479738065142
1.1450354709437595702
1.1450443968413912543
1.1450717822181453176
1.1451096508940330487
1.1451463770408101261
1.1451715426644990536
1.1451780565466569417
1.1451628080141811328
1.1451274304226362055
1.1450767759919158184
1.145016832162881748
1.1449527874823937079
1.1448897677854559252
1.1448336024493488416
1.1447914545518913521
1.144770489807704017
1.1447756845260252945
1.1448066456544085945
1.1448575112517127561
1.1449176128512990047
1.1449747487874599727
1.1450194940110112185
1.1450467436799307563
1.1450551990079036457
1.1450472080496292282
1.1450302263171301398
1.1450135647884254197
1.1450051855092229225
1.1450101760315163357
1.1450313034194379291
1.1450703472930778837
1.1451288662435061827
1.1452089053303220467
1.1453127905423547972
1.1454410814437443467
1.1455904308630036059
1.1457528707857924655
1.1459166455809211005
1.1460684285650499792
1.1461965825833861921
1.1462934646183380316
1.1463582259066611435
1.1463982976683415593
1.1464279697692845161
1.1464644957771987777
1.1465237948203510499
1.1466153311025097938
1.1467393863435815238
1.1468863356339971116
1.1470386137020534001
1.1471755195555835005
1.1472799286911068428
1.1473440025296290923
1.1473709363303083997
1.1473728201350255063
1.1473657037735767172
1.1473647406519604797
1.1473795701995981311
1.1474126563827935499
1.1474600121207767511
1.1475141566920989966
1.1475675564965868158
1.1476163398808838512
1.1476620286861498599
1.1477101289287190422
1.1477666151585024235
1.1478362068986573963
1.1479211163019926722
1.1480197867228882913
1.1481284828362159356
1.1482426854007288242
1.1483583047609273731
1.1484725002484785783
1.1485835413421523477
1.1486899479842898053
1.1487893987364443671
1.1488783217766296296
1.1489521957180799383
1.1490072845312453431
1.149042589914960999
1.1490608183690380617
1.1490684787946028322
1.1490738239872271276
1.1490842694978156135
1.1491036257960047795
1.1491319183242647561
1.1491653969995629936
1.1491969868981528613
1.1492182127450147888
1.1492226115110881768
1.1492081770747077929
1.1491782107301165006
1.1491399615179154203
1.1491028223060322233
1.1490755056766674969
1.1490647574146812815
1.1490745379374955881
1.1491059889959513995
1.1491577125527945302
1.1492269471483091969
1.1493100108833704809
1.1494033775384071561
1.1495027108064983512
1.1496025013832136263
1.1496953116575439058
1.1497722323111034815
1.1498232758266919706
1.1498394198601811222
1.1498148677626069958
1.1497485146754844454
1.1496451770825291128
1.149513764503020008
1.1493648709138928332
1.14920986302571837
1.149058675892847381
1.1403353768360000586
1.1416156536910986308
1.1413285847558523045
1.1407357057111360277
1.1409099548080419151
1.1414004967005881852
1.1420587083536781758
1.1427492386306965511