/*--------------------------------*- C++ -*----------------------------------*\
  =========                 |
  \\      /  F ield         | OpenFOAM: The Open Source CFD Toolbox
   \\    /   O peration     | Website:  https://openfoam.org
    \\  /    A nd           | Version:  12
     \\/     M anipulation  |
\*---------------------------------------------------------------------------*/
FoamFile
{
    format      ascii;
    class       volScalarField;
    location    "0.00513";
    object      rho_0;
}
// * * * * * * * * * * * * * * * * * * * * * * * * * * * * * * * * * * * * * //

dimensions      [1 -3 0 0 0 0 0];

internalField   nonuniform List<scalar> 
75962
(
1.1390757342212081138
1.1390877781089416843
1.1395685837770632709
1.1388409555750442781
1.138773598764595274
1.1391960966591720972
1.1387528287289470086
1.1382317764964133833
1.1383064002553060501
1.1388327347284867841
1.1390398435118038734
1.1389996120827621251
1.1393929845331600692
1.1399156536972474552
1.1400577786795111912
1.139822668628942548
1.1395348003648728685
1.1391897323104562822
1.1386752514956561821
1.1383705198752778198
1.1388787574025847071
1.1400537823822805006
1.1408871374523268383
1.140854456845086462
1.1403954718803746005
1.1401546044071748653
1.140126447004732535
1.1398929840053295681
1.1395276184739817626
1.1395019969538255911
1.1398486190371677207
1.1400458833813944537
1.1397605162926311984
1.1391877549516240542
1.1385876753140211637
1.1383371802124804262
1.138734781786248762
1.1398099850961453949
1.1410520871833020884
1.1417837852429775225
1.1418065520119580203
1.1412961557211791508
1.1405825459370557695
1.1401061953198947663
1.1401506273979105099
1.1405483050214839658
1.1408267399329954372
1.1406927979613108448
1.1401771093865256113
1.1394467294607961705
1.1387292574338265805
1.1383561524274019572
1.138577890184434338
1.1391682718579252409
1.1395736411792054543
1.1395580849247664013
1.1393657126716854044
1.1393238413180277746
1.1394263224018426062
1.1396088671539399417
1.1398517149908629076
1.1400110690401308311
1.1399103097115916849
1.1396124046889166692
1.1394385640145785477
1.1395853766678953889
1.1398643810015871569
1.1399198395783063376
1.1395965313385183482
1.1391146520546751031
1.1388237189017720308
1.1388855604261458598
1.1391302842341901602
1.1392905143293186043
1.139257361435864313
1.1391470559501324367
1.1390687630196296709
1.1390024072652960019
1.1387758636723241956
1.1383076890785606139
1.1377601439933249239
1.1374079294992336386
1.137399099412556458
1.1376306537891951454
1.1378962870367035354
1.1380923409111540767
1.1382586355955526258
1.1384377385895305679
1.1386365026775986387
1.1388617848939941446
1.1391177721919343302
1.1393433419326548517
1.1393744589791323651
1.139120675594127885
1.1386869919624418301
1.1383157012352531634
1.1382167813924717326
1.1384479548581640795
1.1389269811750402095
1.1395100549702503745
1.140075577899548831
1.1405027446950484205
1.1406505907281208057
1.1404142519866178329
1.139815168096881326
1.1390379787222497665
1.1383299203008321321
1.1378488352182531962
1.1376175163219024444
1.1375985336261935643
1.1378126399544430392
1.1383298981439464725
1.1391652684503374982
1.1402295430564004519
1.1413408611710353924
1.1423514299013470819
1.1432078849175129065
1.1439578473441036621
1.1446880207520353512
1.1454466153170062004
1.1461957999388747709
1.1468351277966479795
1.1472808558468783335
1.1475440328870554207
1.1477294364815475713
1.1479479718650873465
1.1482150307820928603
1.1484268345206871675
1.1484578578892963296
1.1482733079129832099
1.1479603856132503115
1.1476512388468749215
1.1474276658607722723
1.1472883727157139333
1.1471744059568425023
1.1470255599084491216
1.1468103678156189584
1.1465305856900129822
1.1462227955544748159
1.1459484838312012922
1.1457637889524048269
1.1456938069135158553
1.145726772979915653
1.1458219080747429341
1.1459297514480293323
1.1460258727007572865
1.1461260831762394297
1.1462643092805917533
1.1464427146459201801
1.1466073227251569744
1.1466763159749155943
1.1465969475946979905
1.1463951498690529984
1.1461644420553114276
1.1460094153665110195
1.1459872737315244251
1.146086944891463677
1.1462557867859037852
1.1464467630019983257
1.1466442609778431105
1.1468529529884814444
1.1470710420395573426
1.1472664698022958518
1.1473899269104179677
1.1474145395360946242
1.1473631943514146503
1.1472968773101273054
1.147280007822352843
1.1473444594777981731
1.1474754975462835294
1.1476239951958229213
1.1477313676784055563
1.147751862635696174
1.147664808780568757
1.1474841942129427874
1.1472592017175955448
1.1470606413881621055
1.1469535427624688584
1.146966216048011189
1.1470748741424579009
1.1472170285590643779
1.1473326765992437615
1.1473965258809319945
1.147425065364066965
1.1474471196079851776
1.1474701601399162065
1.1474737812711430784
1.1474266378853501536
1.147456107057521324
1.147557212095539958
1.1476055468809920335
1.1475656189010934316
1.1474240053788153926
1.1472093231877718011
1.1469856179488124859
1.1468199066212338977
1.1467495050685192481
1.1467677544113228372
1.1468352080349235589
1.1469086839274187373
1.1469692686478747401
1.1470298346897023212
1.1471175900310937035
1.1472470500602274246
1.147404918358045256
1.1475546262125819741
1.1476568547352878902
1.1476907160618581294
1.1476620174602993885
1.1475966434828523965
1.1475259188958171208
1.147474702520741241
1.1474553544511751912
1.1474677007965199405
1.1475041697318355549
1.1475532460202209073
1.1476056628247719438
1.1476568483288351885
1.1477086379476582056
1.1477683986143536465
1.1478450948949445731
1.1479426707592867984
1.1480582735058195709
1.1481813171561245923
1.1482986155734844491
1.1483988022395772433
1.1484757106408862715
1.1485263441162145703
1.1485472255881028492
1.148529873467228235
1.1484636802971630587
1.1483453336637809983
1.1481877028157738696
1.1480216937766154484
1.1478857533061748164
1.1478120542134717663
1.1478103098604106602
1.1478633049888580242
1.147934983144923704
1.1479906719178827323
1.1480106265750182892
1.1479960095121717334
1.1479653159904954496
1.1479420508068594042
1.1479437050498249029
1.1479757295696104702
1.1480309674576039125
1.148093824749041536
1.1481469928374914424
1.1481791295362162586
1.148190615064515141
1.1481941142809291012
1.1482108989898140994
1.1482621459795760988
1.1483581939958360518
1.1484909185524183606
1.148634177272791268
1.14875354233194793
1.1488224347060556063
1.148833430052511817
1.148798992784438644
1.1487418764553245509
1.148682249743657513
1.1486268630033455995
1.1485680656510428577
1.148493114781602209
1.1483957979796171056
1.1482833256703823821
1.1481743426451143097
1.1480890510795367376
1.1480373139605584143
1.1480135302465377389
1.1480010141289787029
1.1479825342186040782
1.1479511365327912387
1.1479130345088617293
1.1478809792230757481
1.1478633013895265247
1.1478553198210792452
1.1478386636465487403
1.1477878150340610208
1.1476815647966238654
1.1475139900335720178
1.1472989768148782463
1.1470665356589839767
1.1468523354320094843
1.1466851633836074864
1.1465782772673305256
1.1465272525678864568
1.1465137833647993659
1.1465134189716559288
1.146504630183253326
1.1464754474380915994
1.1464262370671303159
1.1463671181350594264
1.1463118245959640351
1.1462712158939234453
1.1462493418674144507
1.1462438621842261366
1.1462485059233855633
1.1462569361920131872
1.1462661521709227586
1.1462771325762366459
1.1462918176508927193
1.1463089931341978733
1.1463224914790317577
1.1463223764709480346
1.1462981177556428314
1.1462424033889688779
1.1461528356593726485
1.1460321006197526916
1.1458874837595696139
1.1457297059966751185
1.1455711741609642118
1.145424385454447247
1.1453004418358221361
1.1452071767388729562
1.1451472876173689475
1.1451179300966072283
1.1451109105161580981
1.145114203856463897
1.1451149221259337985
1.1451018809734772042
1.1450673284620409564
1.1450095453326833983
1.1449343059377585785
1.1448536758897234211
1.1447822694713580827
1.1447338922554293195
1.1447176232992690714
1.1447350691548927593
1.1447801631019982604
1.144841442358694561
1.1449046043715325194
1.1449562416275098631
1.1449873635213643208
1.14499391339147083
1.1449756121235858952
1.14493486420417101
1.1448765730159600196
1.1448083927118759551
1.1447405671024262208
1.1446846544415441027
1.1446515008128290702
1.1446475783288727612
1.1446736719409775773
1.1447246464267257782
1.1447910576489617185
1.1448627876433687955
1.1449301766520580959
1.1449863726518414442
1.1450301275514358501
1.1450659728800574033
1.1451007437381477416
1.1451403508967761269
1.1451879664946302828
1.1452432296382824006
1.1453043895401717744
1.1453706517670860787
1.1454437885456323354
1.1455287480272087208
1.1456302431230893646
1.1457496524164183516
1.1458833585098211483
1.1460220357454198314
1.1461528246121748253
1.1462620020267522136
1.1463396192821970754
1.1463832013370303109
1.1463998470990668377
1.1464043938744639117
1.1464158163514555078
1.1464529871163493535
1.1465293880313587316
1.146649056969138547
1.1468054086519818835
1.1469818112913838792
1.1471560273908034677
1.1473053794270451355
1.1474125857143964158
1.1474701316772142334
1.1474817472046268119
1.1474597547617275684
1.1474204363790929673
1.1473793707871653424
1.1473476107839550853
1.1473296005296951261
1.147323413740931608
1.1473241803274893957
1.1473293945312479369
1.1473407758678717538
1.1473633722387392986
1.1474039551951431548
1.1474685498835619502
1.1475590573700316099
1.1476713308246557776
1.1477954460651553781
1.147918082336443435
1.1480266682673796463
1.1481134745126915231
1.1481764229059743254
1.1482194997105741319
1.1482507364870497835
1.1482786103689590629
1.1483098234201623011
1.1483474958585688785
1.1483903127152634838
1.1484343858102876723
1.1484753346516649586
1.1485109427253166192
1.1485430898855757409
1.1485774289528853931
1.1486210800668434917
1.1486795931458160247
1.1487529072582922662
1.1488343260241788979
1.1489124501266330114
1.148973653477852519
1.149006442289483676
1.1490049407394402614
1.1489708951263519765
1.1489132106003872025
1.1488460379385474486
1.1487849173184168095
1.148743364524659194
1.1487305160237788471
1.1487499517973216445
1.1488004294912539383
1.1488765842279806684
1.1489700727954927917
1.1490706893491753338
1.1491672546148883338
1.1492479285150547508
1.149301294718121369
1.1493184553455633168
1.1492939418341985292
1.1492265558914920298
1.1491186056526689896
1.148976296961707666
1.1488094244486832807
1.1486301708692470136
1.1484510736222566241
1.1392807448797983572
1.1371734673528635096
1.1375148404895218945
1.1381089296361885932
1.1397447416615542615
1.1404105468194556394
1.1394644712776027529
1.1390176096506838821
1.1389562342763348557
1.1387153739443049982
1.1385966984718598471
1.1389291790601048238
1.1396452615083658699
1.1402990738526104231
1.1406236389590682645
1.14049781980738274
1.1399986415088438907
1.1392887081170952612
1.1386948734658890459
1.1384990007849040694
1.1390889772741876751
1.1401880465174250023
1.1408718750340773873
1.1407937089278814558
1.1404280261245065553
1.1402908486399969679
1.1401680963335960595
1.1397225798159327237
1.1392313579568149606
1.139226701507682904
1.139683183866684324
1.1400461928739427098
1.1399046002486610263
1.1392926210237774853
1.1385294334477835676
1.1381743375812711783
1.1387028911581853485
1.1400890487589208089
1.1414499848068437871
1.1421546449182624627
1.1420891220882087858
1.141449640210341343
1.1405537954823463664
1.139911355874990706
1.1399448104303424589
1.1404932338180995277
1.1409088917268808139
1.1407531410285749462
1.1400826728036976832
1.1391969174870570924
1.1384070927506566573
1.1380425193350398594
1.1383251946093237983
1.1389884218729353638
1.1394757422088381826
1.1395701837399330181
1.1394630398060900944
1.1393951996770566026
1.1394396843322696089
1.1395954261165945898
1.1398477870435728132
1.1400294249720710482
1.139923975767287212
1.1395977713904101858
1.1393665088950846176
1.139414521169029193
1.1395744819559590066
1.1395319426705770027
1.1391604278653457705
1.1386604165794724786
1.1384040665684405091
1.1385512640275716745
1.1389067731147026752
1.1391101627057669265
1.1390153493490704495
1.1388067933017782529
1.1387479254040662191
1.1388522469265291992
1.1388858806370842913
1.1386556385044666051
1.1382254922113361761
1.1378557468833903066
1.1377393691108734775
1.1378463889480858739
1.1380159727661676161
1.1381404491569127035
1.1382204826453801161
1.1383065199503652476
1.1384684531263713492
1.1387621203590416741
1.1391457081592413214
1.139457877367777483
1.1394982198699372677
1.139219730936875008
1.1387642845742977915
1.1383739074619005915
1.1382691828184448024
1.1385313952188023112
1.1390644371976481608
1.1396950882589991227
1.1402590363404401241
1.140638593999742989
1.1407418174553409784
1.1404873346438972881
1.1398855972861254848
1.1390961108163253357
1.1383652553430476662
1.1378840776373182475
1.1376866438198405262
1.1377109939814005202
1.1379324862192725654
1.1383956477129204554
1.1391443712428508395
1.1401321909948975986
1.1412145354589924295
1.1422431515338251629
1.1431357315022403487
1.1439090002437604099
1.1446420951323166282
1.1453923741245777279
1.1461329589485493852
1.1467635356227545707
1.1471964819007833825
1.1474333483026817326
1.147562272763705371
1.1476917008520657326
1.1478721268436709035
1.1480620838595632094
1.1481715657384212737
1.1481420973998810453
1.1479924341601894788
1.1477878320107566257
1.1475846565161131885
1.1474002409127697089
1.1472143039110167528
1.1469862259633107904
1.1466893815697563053
1.1463370541635562461
1.1459857251810392498
1.1457130847598326895
1.1455716784556149168
1.1455637218221019769
1.1456585750142946889
1.1458157155631363278
1.1459932728138626512
1.1461629352393829517
1.1463174256073311863
1.146459056090961548
1.1465739547057682834
1.1466171213123155237
1.1465338416905059837
1.1463111531564249557
1.1460155828724558624
1.1457699379641184123
1.145682111183905949
1.1457811780385918077
1.1460045452584755044
1.1462473737168936694
1.1464347341689244963
1.1465638500897630259
1.1466822420026963059
1.1468272733551749809
1.1469822379627823139
1.1470906423847890832
1.1471132007644173623
1.1470733009890559106
1.1470434000441696032
1.1470916757492528593
1.1472374856237195218
1.1474424536495093641
1.1476356324923391306
1.1477487120783973484
1.1477394690828126578
1.1476007710693501007
1.147365051759208221
1.1471001289173192728
1.1468881684706573321
1.1467929053187186916
1.1468277902299077731
1.1469493017432474957
1.147082954324385895
1.1471697148779540498
1.1471984102224896951
1.1472016382856451422
1.1472199823878244107
1.1472639852227690671
1.1473060322424171176
1.1473044540717785011
1.1472387010122473416
1.1473761770009938132
1.1475101093365629445
1.1476301457412283469
1.1476968740312312178
1.1476722367587979257
1.147544355995414378
1.1473436877158620373
1.1471334201511826922
1.1469774088232758125
1.1469079023589896504
1.146913169131859922
1.1469533726093059656
1.1469913486853893225
1.1470163835828008914
1.1470481450195433304
1.1471197100354197929
1.1472484889811500608
1.1474174308103488595
1.1475816018773232763
1.147693317906292032
1.1477275732550711318
1.147693600609144271
1.1476281193605397668
1.1475757320865258571
1.1475681170188103408
1.1476122560985437815
1.1476922190092313514
1.1477794811380201967
1.14784811408464682
1.1478841853080776758
1.147890638737675495
1.1478840888887826832
1.1478840264970640028
1.1479072449877398832
1.1479604903330777876
1.1480406633965860586
1.1481378802586899024
1.1482403494880766281
1.148338953636427906
1.1484278414274480262
1.1484980375257358709
1.1485371250346063654
1.148530279054102099
1.1484639741628297482
1.1483363150126910668
1.1481645304935677032
1.1479840399937353279
1.1478363299814160481
1.1477511575515297881
1.1477356102074927069
1.1477719713762888354
1.1478266066462572415
1.1478680736167643506
1.1478814992513197701
1.1478710582748532509
1.1478545807197686468
1.1478535020422602209
1.1478815814736968992
1.1479391863181025446
1.1480137161819889968
1.1480856969070114548
1.1481370161451878165
1.1481580421342987286
1.148152377507155375
1.1481361261565929954
1.1481324565630752765
1.148162243258002535
1.1482345710446069109
1.1483411693781819807
1.1484589988599647192
1.1485588921550367036
1.1486182257337076429
1.148629804282254252
1.1486015595180387727
1.1485481792701912607
1.148481553426615065
1.1484052282926697774
1.1483147856804603038
1.1482059884725526189
1.1480832083313379233
1.147962061547383561
1.1478629026549727055
1.1478005306170626643
1.1477745963092573778
1.1477697773888853039
1.1477647873145822022
1.1477451823781095186
1.1477109963828024952
1.1476754540101015145
1.1476540363392233601
1.1476522316740991325
1.1476584241425140664
1.1476468739904435168
1.1475887390134049681
1.1474659321241207355
1.1472803935212800841
1.1470553651184338673
1.1468276118234512762
1.1466353527451105254
1.1465049972625116492
1.1464433831351645843
1.1464366904331142472
1.1464571328201973444
1.1464736255005321119
1.1464631358612733525
1.1464171751773351016
1.1463425663232231777
1.1462564456549984016
1.1461777507493655648
1.1461195481802897156
1.1460851251412751406
1.1460693396839947145
1.1460637307260979068
1.1460616545936781474
1.1460618459087896781
1.1460683116825463035
1.1460867951390378838
1.1461192732001757033
1.1461604651806605037
1.1461981102816540812
1.1462164512333359312
1.1462018501422326366
1.1461471361376642797
1.1460533352975021959
1.1459284376806833095
1.1457845176014702648
1.1456348413026176125
1.1454911913045910943
1.1453630760737514294
1.1452579003062219876
1.1451797465041382296
1.145129289483841406
1.1451038952641325874
1.1450964408616921553
1.1450967268050780135
1.1450942549053504393
1.1450805130264694043
1.145050408701332012
1.1450055694177714294
1.1449543357921809772
1.1449086843622551246
1.1448801430450255001
1.1448762718056264553
1.1448978876658162385
1.1449386599486952587
1.1449877511494954696
1.1450329346015448717
1.1450632561758915529
1.1450717527741514079
1.1450565811221800061
1.1450199346339979822
1.1449661836544862137
1.1449005800675779998
1.1448298191553105685
1.1447629532146950115
1.1447102978759444714
1.1446818215066176805
1.1446838583696155034
1.1447157747687179974
1.1447709367411318393
1.1448378753612058478
1.1449049107343953757
1.1449625272262673459
1.1450051942007215544
1.1450315818310299321
1.1450458632305655637
1.1450559196772218673
1.1450690318315803751
1.1450898595972651695
1.1451201671929489567
1.1451604170248437242
1.1452114476150763167
1.1452759279375084311
1.1453582626984064596
1.1454628397336759082
1.1455907343585947089
1.14573742213203289
1.1458929852193413534
1.1460436675754752667
1.1461752467304586744
1.1462762948411189257
1.1463421324330644868
1.1463770632031926588
1.1463942005314688988
1.1464118320237937088
1.146448998098281491
1.1465203043187854881
1.1466318629689455921
1.1467790185225439359
1.1469472411487633412
1.147114704058016299
1.147258827328741182
1.1473624711089305261
1.1474183392351360311
1.1474304342018528668
1.1474124061364483484
1.1473824471117533008
1.1473572771805946591
1.1473472317936590503
1.147355357897179795
1.1473783120141070047
1.1474092261645463253
1.1474419524932342185
1.1474750059255018897
1.1475121078267112029
1.147559525187230367
1.1476233171831093927
1.1477070849483455017
1.1478094427965404023
1.1479245375197943968
1.1480438349926400665
1.1481583598645666022
1.1482615104135420747
1.1483508552483578935
1.1484277128535822499
1.148495527796693505
1.1485576976374913816
1.1486155861154860869
1.1486678880404277425
1.1487119340034541715
1.1487453510818641522
1.1487682284838161006
1.1487837966186842387
1.148797557754738019
1.1488162318742622947
1.1488461674134953228
1.1488906875824007603
1.148947747353787463
1.1490093690668354842
1.1490641822958476137
1.1491009868731982824
1.1491122181495412313
1.1490964987345051451
1.1490584964200531992
1.1490076908919726328
1.1489562890342046586
1.1489164284606134814
1.1488976908916543884
1.1489062802243388273
1.1489437844633028085
1.1490079518986653362
1.1490941559802425598
1.1491961816404698826
1.1493062717105329007
1.1494144581530660876
1.149509831861321496
1.1495813081493360119
1.1496185875262689979
1.1496144631984817064
1.1495656319055385097
1.1494737433097197421
1.1493449703188021171
1.1491888624450545819
1.1490174420749972306
1.1488429037263594434
1.1416230409623333575
1.141567669657883366
1.1391927899547018566
1.1385206174485733577
1.1400650624572532532
1.1412305924943964008
1.1410347618010634463
1.1411591760673456264
1.1404975288366250297
1.1387723265019364938
1.1379660316281174914
1.1385053686134420925
1.1394081724775655395
1.1402511320219508306
1.14095767953424998
1.1410432917356536642
1.1402626842922096717
1.1392971885605900351
1.1387503460493422214
1.1387822264698992392
1.1394190561540531448
1.140320478038787444
1.1408350102494508871
1.140795829356414659
1.1405144885448972314
1.1401383472051569434
1.1396396030950668443
1.1390974278336900571
1.1388486212851192114
1.1391233229585613351
1.1397366140210081209
1.140213475526750786
1.140163037120710543
1.1394754241267956996
1.1386275991800844931
1.1384125339888100381
1.1392139694570408981
1.1405600409545499918
1.1416524649494386168
1.1420438031700175241
1.1417669833240127186
1.1410531025420693751
1.1401571518936983729
1.1395036088820478248
1.1395238779037049071
1.1401148234633249334
1.1406225925151982636
1.1405188291153995905
1.1398541894731955004
1.1390189565320638643
1.1383575892419062203
1.1381208500765367386
1.1384422801221556476
1.1390823291274370099
1.1396230303653405169
1.1397841793439893454
1.1396118996735067341
1.1393603077826568448
1.139247232808215049
1.1393777887631617585
1.1396815561725279764
1.1398976757315359976
1.1397969248351973448
1.1394413909088689785
1.139114828233289467
1.1390025041720137633
1.1390074246318511175
1.1389183770310984389
1.1386447430211870113
1.1383023787778563385
1.1381573412849361748
1.138341165493653051
1.1386790858457911391
1.1388579294388492258
1.1387654826872775082
1.1385761662881570544
1.1385804164836150765
1.1388039526059074991
1.1390173890384478472
1.1389628415070403022
1.1386182943113032362
1.1382150036900786638
1.1379648363043726178
1.1379062825317789454
1.1379537427185464349
1.1380214890129163319
1.1380908110697498525
1.1382167670276139848
1.1384756286676993575
1.1388792017498625686
1.1393202134880391352
1.1395890438612461537
1.1395531167367318748
1.1392496919367420816
1.1388334109704554287
1.1384886938005633894
1.1383917521631967684
1.1386316177308906106
1.1391436849581888513
1.1397579022708679286
1.1402807439985604976
1.1406050063815069695
1.1406694964901389344
1.1404282758601194114
1.1398772447765463944
1.1391554137548955961
1.1384915528020544961
1.1381064531949411922
1.1380118352331216602
1.1381235838831371687
1.1383770545603189017
1.1387929445764799485
1.1394222700138314508
1.140268491478863444
1.1412417428871353131
1.1422154250857348146
1.1431069209529503006
1.1439150685678651787
1.1446965180680479524
1.1454913650794074087
1.1462632975505535615
1.1469095137466935874
1.1473313469324457614
1.1475115572715299805
1.1475309679950520536
1.1475137773701651334
1.1475495894123868279
1.1476474030789141079
1.1477551416384963456
1.1478199742547754436
1.1478130597679145897
1.1477300559535443814
1.1475845499476773348
1.1473932284748027399
1.1471603207257294876
1.1468728183027687706
1.1465275090723747731
1.1461595946732483497
1.1458412381379894374
1.1456387292325103111
1.1455741257831477675
1.1456222168021112928
1.1457376800485610246
1.1458904170211043905
1.1460675312290484751
1.1462530344653825143
1.146423563370015053
1.1465496452155981011
1.1465952558627443558
1.1465199233523684086
1.146302572181677526
1.1459779039833231096
1.1456481762191217388
1.1454453103157831162
1.1454590931285297817
1.1456785885494802368
1.1459945828657374101
1.1462667559628785252
1.1464149018222726806
1.1464592169603793348
1.1464824444911385637
1.1465491977744555196
1.1466540927876793798
1.1467389219765076191
1.1467627602897672023
1.1467489015980998346
1.1467711893261733902
1.1468899899335407433
1.1471048016471645514
1.1473545977897328108
1.1475551377618073978
1.1476417713057227576
1.1475882662367906661
1.1474070287956477099
1.1471430209815773882
1.1468671026928958234
1.1466600269876816576
1.1465795718337330467
1.1466319226055139424
1.1467676891374005699
1.1469096246854231236
1.146996930065662168
1.1470193520019464906
1.1470132322639345901
1.1470268711620834612
1.147080799031506837
1.1471528876708936284
1.14719746598178296
1.1471814307920358278
1.147446659255129342
1.1475724929529391716
1.1476854475785494003
1.1477484104768562734
1.1477281457588428548
1.147616303715871533
1.1474405171004187221
1.1472556567580707299
1.147116781477319325
1.1470514668065296959
1.14704902784337337
1.1470740638251621935
1.1470937433200887323
1.1470999807902146905
1.1471126342931932118
1.1471636019936921613
1.1472720471534767483
1.1474260717282469546
1.1475846262175020129
1.1476989121826632889
1.1477395642661225583
1.1477135860284768398
1.1476606406464775478
1.1476322513718060225
1.1476657327817538778
1.1477657954889846081
1.1479040492938890061
1.1480347378812458814
1.1481175731082136071
1.1481346105317518091
1.1480954498012878595
1.1480279385731679831
1.147964847417370482
1.1479279634810566346
1.1479263200394336231
1.1479575987737213882
1.1480144489433212751
1.1480927408918417676
1.1481889864974577087
1.1482948218610606883
1.1483958628299468785
1.148470025050542187
1.1484920579325221812
1.1484440323005695728
1.1483263059052191135
1.1481617752778408015
1.147989070321850491
1.1478478091516326476
1.147762525438738912
1.1477344784931877708
1.1477448010671484901
1.1477658607689122938
1.147775148124779987
1.1477662750901906907
1.147749797965329055
1.1477447540214857913
1.1477685644136219612
1.1478275913204900593
1.1479138077258219663
1.1480079011525001764
1.1480865598414244921
1.1481312445181586224
1.1481351243561186415
1.148106595427918819
1.1480665419285820406
1.148040027767592397
1.1480468944944650644
1.1480946311429875983
1.1481754474813676836
1.1482696022286356108
1.1483531577309356031
1.1484065621236265731
1.148421135236248114
1.1483991370949544475
1.1483479105637242057
1.1482724204543737212
1.1481734845016837721
1.1480505962397280495
1.1479085286875909677
1.1477618446626884907
1.1476333605058075538
1.1475441713970748747
1.1475029841370378847
1.1475001667584763254
1.1475122822040373372
1.1475146600264043428
1.1474950012646767394
1.1474586290676724865
1.1474234460831882476
1.1474062359908561159
1.1474098846746780822
1.1474188029131597855
1.1474048753671675094
1.1473405320240843697
1.1472126666484698809
1.1470299135599471008
1.1468206756261278834
1.1466229135959400409
1.146471504129958463
1.1463868171491400361
1.1463682468147342597
1.1463947328583850016
1.1464331623266288407
1.1464510421326579159
1.146428547610482962
1.1463639205066964433
1.146270891631806732
1.1461711216911711908
1.1460843632298944872
1.1460212974976673461
1.145981193651529173
1.1459550129724032086
1.1459328457665332035
1.1459104168294904635
1.1458915096692623425
1.1458856453684254095
1.145902683735919636
1.1459469620708928606
1.1460130180026466551
1.1460859634773994387
1.1461452934147629001
1.1461717246307490115
1.1461537561189096834
1.1460902952768061702
1.145989207132827481
1.1458630784780121648
1.1457254019257763211
1.1455881069886306722
1.1454605591221824756
1.145350256596773697
1.145263235501058352
1.1452028879894149416
1.145168862615515204
1.1451563996350335728
1.1451562004035278353
1.145157640395829457
1.1451521943418043747
1.1451346754293945107
1.1451059547033941577
1.1450728370922920174
1.1450464723289610625
1.1450358969232110606
1.1450457262089297483
1.1450737941633741812
1.1451118812329679209
1.1451483128767847575
1.1451728123413729143
1.145178454962273884
1.145162329937928769
1.1451261945911139772
1.1450749759252139004
1.1450146805218477386
1.1449505027095692178
1.1448876058649135601
1.1448318689945828908
1.1447904517108749012
1.1447704752442868781
1.1447767466259177738
1.1448085734196478125
1.1448598403295437986
1.1449197101852597314
1.1449760323348447955
1.1450195924254853441
1.1450455593646018393
1.1450528806644773017
1.1450441653982073031
1.1450270412407088649
1.1450107988146926985
1.1450032519544373066
1.1450093212258223296
1.1450316271799627632
1.1450718339244096988
1.1451314321518146766
1.145212441868198594
1.1453171678975528902
1.1454461127721462521
1.1455958259523859599
1.1457582081515995664
1.1459213950832005668
1.1460721272297553774
1.1461989847645581708
1.1462946157262308144
1.1463584692934953857
1.1463982499688807337
1.1464283557834864524
1.1464660265377484283
1.1465269429125037881
1.1466201881647102301
1.1467456017969133164
1.1468931694362256568
1.1470451090974100872
1.1471807496281034577
1.147283273606899634
1.1473453475551274039
1.147370671528190833
1.1473716675825753608
1.1473644248397527612
1.1473639362958050203
1.1473795503041848143
1.1474134115230163466
1.1474612963083441475
1.1475156487327526911
1.1475690564661642501
1.1476178708281934426
1.1476638113784409789
1.1477124860220582203
1.1477698077756590678
1.147840367643987225
1.1479261924196211275
1.1480255555083767049
1.1481346315705014405
1.1482488981271061768
1.1483643269016186039
1.148478137953312217
1.1485886479965914386
1.1486943606973931686
1.1487929229467801484
1.1488807448244982012
1.1489533591398055634
1.1490072016997683324
1.1490415040752848252
1.1490591873936271128
1.1490668700783497336
1.1490727770701540944
1.1490841220765106723
1.1491044742503446763
1.1491336023870086791
1.1491674847992605635
1.149198903571744701
1.1492194294270894339
1.1492228017857513134
1.1492072974909319782
1.1491765045814601454
1.1491378857588747664
1.1491009221230883419
1.149074289009124783
1.1490646082123276983
1.1490756982510588191
1.149108538421820036
1.1491616457002058471
1.1492321882495832863
1.1493164329139557989
1.1494107638082520229
1.1495107445173593508
1.1496107351138387109
1.1497031432627577985
1.1497789424007949233
1.1498281516562427473
1.1498418819797635582
1.1498146275701612851
1.149745630775796279
1.1496400579282153309
1.1495070457787976981
1.1493573101205087905
1.1492022371887979926
1.1490516194692987906
1.1402895793607066288
1.141630794978315766
1.1413099450026513715
1.1407329383572466508
1.1409196561037304729
1.141408672230300958
1.1420841622785995462
1.1427574012709138529