/*--------------------------------*- C++ -*----------------------------------*\
  =========                 |
  \\      /  F ield         | OpenFOAM: The Open Source CFD Toolbox
   \\    /   O peration     | Website:  https://openfoam.org
    \\  /    A nd           | Version:  12
     \\/     M anipulation  |
\*---------------------------------------------------------------------------*/
FoamFile
{
    format      ascii;
    class       volScalarField;
    location    "0.00513";
    object      T;
}
// * * * * * * * * * * * * * * * * * * * * * * * * * * * * * * * * * * * * * //

dimensions      [0 0 0 1 0 0 0];

internalField   nonuniform List<scalar> 
75962
(
300.16869348710980603
300.01246602424606635
299.83147041515263709
299.67422619777897808
299.66541809595355517
299.66511286736783859
299.55206986175261363
299.55837371481698028
299.80939532198283359
300.15512627000066459
300.3345526076214469
300.30911003160974815
300.2480262408654994
300.23417732355284215
300.26720371922397135
300.35038483357311634
300.49003128035798227
300.61766509754801291
300.62584423739866679
300.49684633597348693
300.3304261316523025
300.22514137131850021
300.18716936073360557
300.20589377753151439
300.29572134722781129
300.44932233944871314
300.58851665521575569
300.61806355095598065
300.53904537417480469
300.44140412970432408
300.39560018186801926
300.40803041383014715
300.46824941281317933
300.5669600647257198
300.65237388100331373
300.67317703139286778
300.61257167844155447
300.50416152639371603
300.39647411650418007
300.33801220411896793
300.37372843433922753
300.48872197038991771
300.60286999195858471
300.64160342065196119
300.58655156504522665
300.47245376109248127
300.36754364552126617
300.35085131724258645
300.45554635124284459
300.62364507277436587
300.74149558951586414
300.73373256557522382
300.6138958183230443
300.44429755046957098
300.2895633474247461
300.20956459780313708
300.23505432421978867
300.33730986668734886
300.43476344574361292
300.47580903509185646
300.47207636881938697
300.45821143635214412
300.45983718086733916
300.49288649259199246
300.56473353749066746
300.65519743292151134
300.71475751139820431
300.70243298798499154
300.62188485973956631
300.52348006580172068
300.45907700401448892
300.44081963184356709
300.43155098668728442
300.38748444171903884
300.30111442125149779
300.21046922930514711
300.16211239806978028
300.18034133016442411
300.25204642819710443
300.35097632838539994
300.46234908312499101
300.58017574855961129
300.69039812237133447
300.76173374640455904
300.76205305729200745
300.68057144263428881
300.53249413862005213
300.34591879218908161
300.15744150642257182
300.01154137389784182
299.94938694530264911
299.98820849221647222
300.10746026649638907
300.26687116027591173
300.42892617133730937
300.56735630422326722
300.663144745718796
300.70149706733087669
300.67717505541196488
300.60116895749791865
300.50200826397144738
300.4121671933018547
300.35363425041521168
300.33514856909226864
300.35838704323094817
300.42386131276504102
300.52588807066439358
300.64345509499679565
300.74258406979924985
300.79097795708759122
300.77543711530620385
300.70228810684346854
300.5840544720537082
300.42976706047176094
300.24143548500114775
300.02410007267258152
299.79010807508274183
299.55900057381143142
299.3510708872022974
299.17949803411272569
299.04545360284441813
298.94042047356418834
298.85442868940646122
298.78472458648963084
298.7366314884288272
298.71540180459516023
298.71616791139439329
298.72182729925174272
298.71384030239659069
298.68494362173754553
298.64304967520581613
298.60293300890634782
298.5749414695270616
298.56012388701111604
298.55198403041890742
298.5424028767810114
298.52559061871738777
298.49949962265287695
298.46676469100196982
298.43408951918121375
298.40893648223720902
298.39622924064474319
298.39698575927121738
298.40838023330951501
298.42533890578005185
298.44405149739327499
298.46410678059129395
298.48698233743414221
298.51145442905902883
298.5312289655204836
298.53783313069925498
298.52643898922150356
298.50095693418836618
298.47273800242328434
298.45435440742681976
298.45302630033944524
298.46801169382501939
298.49322494330004929
298.52240920300050675
298.55236892405235949
298.5822977052467877
298.61127541350373349
298.63574510359541136
298.65067204067821649
298.65358097358063105
298.64742223673789567
298.63936259075933322
298.6370663835334085
298.64475762935779812
298.66156139527078039
298.68268414519673115
298.70204300866043923
298.71465968062693719
298.71796141362165145
298.71280123553970043
298.70359702096260435
298.69705429667499175
298.69946561758195003
298.71352136228796326
298.736593840709304
298.76198934741870517
298.78320666057533117
298.79739001800714959
298.80625908157492177
298.81306818566179118
298.81896486944640401
298.82211972430229707
298.81941655775636946
298.82823052437532851
298.83900367602052484
298.84449817381562298
298.84098041205550089
298.82680068904915061
298.80463259389154018
298.78100900022951691
298.76303677227627986
298.75490670020377593
298.75622320613263128
298.76301015541673678
298.77070422680907313
298.77716807210293837
298.78361583000560131
298.79286861779507944
298.80649037986466965
298.82312190335727564
298.83890793075050851
298.84965640871843107
298.85312217672827728
298.84992533183759633
298.84285375589854539
298.83528334595752085
298.82987252477801121
298.82790238471250177
298.82929183772824899
298.83316564158468509
298.83826164242884715
298.84358216835613575
298.84866774610611628
298.85375862483800802
298.8597056527555651
298.86753425194132205
298.8777462342071658
298.89008485271335758
298.90343618603083087
298.91633342899251602
298.92747045404513528
298.93609321609079643
298.94182911596857366
298.94431119302299749
298.94267392338855416
298.93580374953495493
298.92329508854322739
298.9064284982071058
298.88843802945706329
298.87343871872889167
298.86499008799319199
298.86432743683116087
298.86980116971398047
298.87764302421089724
298.88409404355343213
298.88690077611454399
298.88600391872296314
298.88322131549955429
298.88098154899444125
298.88114473879295474
298.88435114266360415
298.88993696953264134
298.89634784593016548
298.90182149990522475
298.90517246847480237
298.90639723224114732
298.90675117265152494
298.9084000730747448
298.91354977978841134
298.92333810987906872
298.93700662630902798
298.95188880391270914
298.96437658408626703
298.97160857548101376
298.9727032042176802
298.96890201493863515
298.96261060242591157
298.95603872455023975
298.95000894662916835
298.94378056856533021
298.93599755836663689
298.9259322409085371
298.91427258773580888
298.90296127414967486
298.89416888284148399
298.88899642266807177
298.88687698123072778
298.88600073951141667
298.88443620889228214
298.88132630043901372
298.87726750006470411
298.87364185758707436
298.87144697395166304
298.87033547132267586
298.86848370451428991
298.86324550379441689
298.85235163393383573
298.8350834621174954
298.81278934287223592
298.78853289247319935
298.76601758317087842
298.74827016131632718
298.7367256109854452
298.73098399777819623
298.72919760953368495
298.72886267105144498
298.72775673892476789
298.72462964579551681
298.71950495175809692
298.71342040171805365
298.70778783565367576
298.70371232633948466
298.7015806617704925
298.70111045556637919
298.70161861741718212
298.70243281193279472
298.70326119358929873
298.70425996901121835
298.70569831453656207
298.70749601657848871
298.70900718135135321
298.70913598000242928
298.706694744129436
298.70084253577590516
298.69129844185818001
298.67837605901132747
298.66291963747977434
298.64614261219668379
298.62941364459925353
298.61406389776720971
298.60122444810372144
298.5916468371767678
298.58553492747216751
298.58252713564507985
298.5817433558785865
298.58194848401404897
298.58184484619658861
298.58031650416216962
298.57659044407506599
298.5704902565859129
298.56259530402201108
298.55412659303129885
298.54657541181859415
298.54136124986547429
298.53943677220757991
298.54099650971340907
298.54544633714249358
298.55162918089456525
298.55808741157346731
298.56345325670059765
298.56680587669444549
298.56772379240283044
298.56614903562490326
298.56228145649686212
298.55655524597960948
298.54969462140576297
298.54270508919989879
298.53676567290739285
298.5330229369483277
298.53221465163193216
298.53450398041042035
298.53944953516958094
298.54614436675552724
298.55357676228760511
298.56073909195185934
298.56688086812550864
298.57180833224799699
298.57592753253925366
298.57990248694693491
298.58431585890093629
298.58948129782999104
298.59535659883749759
298.60176807934368526
298.60863461230690064
298.61615077056700329
298.62485008464346947
298.63525752559723969
298.64756393941257784
298.66144152517466637
298.67595815333908149
298.68977653564576258
298.70144868205551347
298.70989635506703053
298.7147986128883872
298.71683153190446092
298.71749165346568589
298.71873043497004119
298.72252570081315071
298.7303313480819611
298.74265039119461562
298.75888035082726901
298.77735937208399264
298.79579908182057579
298.81181813436541006
298.8235600028849035
298.83017079276089589
298.83196613248333051
298.83018208362864243
298.82649100830025191
298.82252538339918146
298.81946048257862003
298.81776709128985203
298.81722861177246386
298.81729879965746477
298.81767160043074227
298.81849465922226727
298.82029707012884501
298.82384454683989361
298.82986641632544433
298.83868535834193381
298.84999229954991051
298.86282505369865703
298.8757974961415016
298.8875315322478059
298.89710280783043572
298.90415604440283914
298.90898454920034055
298.91235509485983357
298.91515755777265895
298.9181597656915983
298.92178199871824518
298.92598327886872767
298.93041987864836528
298.9346552392328249
298.93843864174067448
298.94192749470772696
298.94567772465791222
298.95042230402248151
298.9567467172457782
298.96466118016275004
298.97347313887149767
298.98196548403853967
298.9886577806241803
298.99227271628558356
298.99212299039623986
298.98834580080728074
298.98186944775267193
298.97421142145435624
298.96708507541080735
298.96200891635385233
298.96003301872315205
298.96160764382631214
298.96663567823605945
298.97455155058861465
298.98444839182047872
298.99520939843421274
299.00561444899051367
299.0143793280801674
299.02027893621237808
299.02236825706700074
299.02006160043174532
299.01321379968470637
299.00205059926719287
298.98720247920573456
298.96969328696587809
298.95081321210017222
298.93191191503569826
300.31617791530004524
299.85578917740036786
299.60997908533630607
299.57485998887125334
299.75862882160708978
299.79643801951510795
299.6299907728425751
299.64191281666916211
299.88297475815028292
300.15388135832154148
300.29938195057258099
300.29970072412214677
300.24642733933075078
300.22626204040238918
300.28395581365793987
300.40655506203700043
300.55194861644383764
300.65251615403337837
300.6509585084227183
300.52941501973145932
300.36826883570643076
300.24883493263484979
300.18485971592798478
300.19084247374701135
300.29291889117871506
300.47125436322488667
300.61661609420860941
300.63065036543025599
300.53041676749654698
300.41467087690199378
300.35628587900481534
300.36848903420599299
300.43894052733685385
300.54005678276826075
300.61979865385609401
300.64107811594243458
300.60331289018859025
300.53323126588441028
300.43821139134809073
300.37420148980550039
300.40349517557137915
300.51930529474293508
300.63642567193829791
300.67370576189023268
300.61335309763256873
300.48818973319089309
300.3598414013782758
300.31083993065635696
300.39066418558093119
300.55624842128361252
300.6929458499026282
300.71129846329381508
300.6106970418252331
300.44543627390157781
300.28578345823342488
300.20636929926172343
300.24304026861130978
300.35862667571620932
300.47043676816122115
300.5210572594019709
300.51537777388318773
300.48831865348870451
300.47065359290434117
300.48715858118259803
300.54651646828762068
300.62266941176471846
300.66255607048640286
300.62801967203938602
300.52975460000862995
300.42268797001298708
300.36689906387459814
300.37595704149487119
300.40716315681879678
300.39977546110338835
300.33282199354425757
300.24349181274715193
300.1916809041362626
300.20836697455229114
300.28037969753381731
300.37626828834993375
300.47489228802447769
300.57077371429875257
300.65665103215110321
300.71169405767017224
300.71080944688696945
300.64238852165425442
300.51358152162367787
300.34629775027747201
300.17663263275596819
300.04909197332551685
299.99826185892987951
300.03275016271987852
300.13240330000292033
300.26726637190949987
300.40912438850330091
300.53508386521770035
300.62806876989350258
300.67418812884272938
300.66377672815275446
300.60186605970329765
300.51079027258720089
300.42329653923746946
300.36719332840675634
300.35386357631580267
300.38307530874772056
300.45179507387268814
300.55464221779305944
300.67572033516069041
300.7841258673156517
300.84502051690873259
300.83793155123851193
300.76263128738673913
300.63164768606503685
300.45810353901703138
300.25069623823225129
300.01901356131293142
299.77711602670331104
299.54431199318025847
299.34044134163508488
299.17741618875214726
299.05372371808010712
298.95687880160414807
298.87368721575614927
298.79945833010077649
298.73858211120983697
298.69798141022238269
298.67887448729260313
298.67301250314585559
298.66726009390521313
298.65240682309149634
298.62861872929312312
298.60241969194402145
298.58030543339816631
298.56464673705551149
298.5530362619990683
298.53973413765504574
298.51951536955124311
298.49114057629623176
298.45850175557728789
298.42888899429181038
298.40826218687584515
298.39837529739810407
298.39829502091271252
298.40635375877644719
298.42034719512429319
298.43845899604605165
298.45980343122062095
298.4834301492591635
298.50608286389262958
298.52107787539034689
298.52089497163905207
298.5028979904644757
298.47367604591073587
298.4468388313883338
298.43537197781387249
298.44431059533837924
298.46859553187243819
298.49767028084806952
298.52303623678955091
298.54317410842776326
298.56187647746816083
298.5822714103439921
298.60220397607071163
298.61557119870684573
298.61828329102655744
298.61317013445392377
298.60864796805589094
298.61295713171745092
298.62918161902632619
298.65404832640967925
298.68047212878724395
298.70128957608511655
298.71177783057828492
298.7106309727879534
298.70049596065194919
298.68768149371567233
298.68014283751273297
298.68415980052748182
298.70096221545486515
298.72587090083862904
298.75086273955668048
298.76942932203309056
298.7801406543635494
298.78640284976677322
298.79274469942993164
298.80070213215770991
298.80775515703896872
298.80972296356344486
298.80449111810946761
298.81937843880047012
298.83368907877826359
298.84661542995365835
298.85415076318093952
298.8522655442026803
298.83947753559237981
298.81868435085903002
298.79637876508826366
298.77938366652693958
298.77137689441343582
298.77141032140752941
298.77542855656542997
298.77946714100113468
298.78222541478663743
298.78561220203687299
298.79305658070376239
298.8064494587430886
298.82408184532187079
298.84125821756407504
298.85292557555345638
298.85639566321663096
298.85261691443611198
298.84548597337391129
298.83976975078672922
298.83887525832960819
298.84357004989470852
298.85214675777842785
298.86152664038081639
298.86888255662751135
298.87267928409619344
298.87320286492285959
298.87225751884631109
298.87198024244912631
298.87425362711366006
298.87987945295947156
298.8885661926064472
298.89924471184866661
298.91058735331540674
298.92150641117461873
298.93129720704104102
298.93897660270528149
298.94323877252924149
298.94255915616383845
298.93552526851891571
298.92191442525938783
298.903502699446733
298.88401213016481961
298.86790039864183655
298.85845826198624309
298.85659964171463798
298.8605593687954638
298.86677388879405726
298.87178906064951889
298.87384249441004158
298.87320375251920268
298.87165909476550496
298.87147975323085802
298.87420323156476343
298.879984811331326
298.88759973980194218
298.89505527823916964
298.90045197125613186
298.90273770876649451
298.90222160501599546
298.90052795060455537
298.9000564762749832
298.90301706964106643
298.91042562515912095
298.92148649996323684
298.93381475712652673
298.94431856559913285
298.95053953323957785
298.95164121510157429
298.94842906928067805
298.94249541797887559
298.93518447242610137
298.9269576881000603
298.91738034760783194
298.9059689570124192
298.8931173512161763
298.88043708540305943
298.87010624181579033
298.8637602824469468
298.86141909639781034
298.86144195672028445
298.86146482633193955
298.85980015633492712
298.8563215431692015
298.85239889153751847
298.84976194959455142
298.84916485265603114
298.84955929681103726
298.84833436041287769
298.84244926498331552
298.82990704823754413
298.81077311234895433
298.78735979949016155
298.76344504714415962
298.74302546512222989
298.72892392415099039
298.72195589706512919
298.72078493397424381
298.7225912029229562
298.72416465125792229
298.72308521817791416
298.71841782854897929
298.71081167642461196
298.70201004341799944
298.69397103680398686
298.68805514349372743
298.68460323887234154
298.68306318378284914
298.6825254780370642
298.68227396088690284
298.68217411616944901
298.68267485102472847
298.68443272534869948
298.68771179384856396
298.69198613611246174
298.69595592980721221
298.69791655669575903
298.69637355389528466
298.69053397241299308
298.68051056146202882
298.66719124806945729
298.65191311898081494
298.63612632882421849
298.62109088200548968
298.60778168047886538
298.59691853267560191
298.58886548810886552
298.58364610638324166
298.580968923073101
298.58011370273970897
298.5800530652403495
298.57972117719691596
298.57823811977533524
298.5750544385110743
298.57030296353974563
298.5648160974828329
298.55982947214329215
298.55655524318422067
298.55582136697631768
298.55776169428770572
298.56176287985351792
298.56672289969031908
298.57138206032880134
298.57460415241752116
298.57566411049049293
298.574363794695671
298.57091025235285997
298.56571288309459078
298.55925173218838609
298.55214929678732005
298.54528618686151731
298.53970149330416461
298.53644132986198656
298.5362265753588531
298.5390773511199427
298.54439797835129866
298.55108129004736384
298.55795742739223897
298.56404865634021917
298.56874844437572847
298.57186138990539348
298.57374924646973113
298.57517441749979525
298.57685213293490278
298.57923615878581813
298.5825021721362873
298.58670363718442786
298.5919486871347317
298.59853699510091474
298.60696080236289163
298.61771903496838831
298.63096323918733788
298.64626049286010812
298.66260428439983343
298.67856138547625733
298.69262118503218062
298.70354293606311558
298.71078234603146484
298.71472161931615119
298.71668062109068842
298.7185445890024198
298.72230991809601619
298.72954969390758606
298.74097607737428461
298.75619433240979106
298.77376107606716005
298.79144610056550846
298.80688499709913231
298.81823593652268301
298.82466760728442523
298.82652929599879599
298.82519304144886974
298.82252938675929954
298.82027842268814766
298.81952606782925841
298.82058938265890902
298.82309781757237488
298.82629410054749997
298.82950205776063513
298.83255273961037801
298.83585488541507402
298.84013007452534794
298.84611179517230539
298.85428761741661674
298.86460642779394448
298.87650859426241823
298.88908956024016561
298.90134311680571955
298.91247682384101836
298.9221301822653345
298.93036027629119644
298.93749784814178838
298.94391562053328926
298.94981619667788664
298.95513694662543003
298.95965585073571447
298.96315102947158948
298.9656232889053058
298.96738184032221852
298.96897103396588591
298.97107225195736646
298.97435182882503568
298.97918151754436167
298.98537479894810076
298.99210392393337088
298.99815142670826162
299.00228411069628009
299.00362704200682629
299.00195739497871728
298.997720734524421
298.9919116949928366
298.98585941063134896
298.98092481004294996
298.97821599450907115
298.97848327134312285
298.98196755460071472
298.98846137196085238
298.99747471830693257
299.00831610405424499
299.02011870710879293
299.0317860526973277
299.0421284513627711
299.04995280282895465
299.05416011484146566
299.05397782331965573
299.04904927270064263
299.03952958272475371
299.02605691686846967
299.00962889816327106
298.99152120994182269
298.97305646484130648
300.36224824158676938
300.35305361375947086
299.87407785870431098
299.6805312797129659
299.80089896162542118
299.87182683552856588
299.81473463254820899
299.9199906445741135
300.09460654037548011
300.17854713204911832
300.23245507595112258
300.25790219401341119
300.22318324860970051
300.2015552853843019
300.27474133375119436
300.4165906796322929
300.55434933322197821
300.6578591995138936
300.68053363027974001
300.58413779139954158
300.41872466003150066
300.27286711019081622
300.19941336309591406
300.23027652959194711
300.36122800730367999
300.51783808645433282
300.60543522261446014
300.57870434369129953
300.4737796104200811
300.36549094520808012
300.31362762571944813
300.34252573418672227
300.44128810795609752
300.55833562741145215
300.64555445621624585
300.68195874475111395
300.65985514649435117
300.57001471921421398
300.44432742046694784
300.36633878073843107
300.40569976655825712
300.54174056908289003
300.66767327202978777
300.68900539596478438
300.59611680827674718
300.44281630140005745
300.3049163687862233
300.26088671301698696
300.35204933297023899
300.5307957718703733
300.67681552116130206
300.69431989775688407
300.58463067674648528
300.41699177076611704
300.28214994702176455
300.24254645716939649
300.30363814019369784
300.41529785536323516
300.50574849906928421
300.53585972445307561
300.51574872489021573
300.47841021637407266
300.45543499105696128
300.46810096034425897
300.51604059804134295
300.56893318091891842
300.58082168324597205
300.52856981373412282
300.4328688222651067
300.34460911359030888
300.31390675749202046
300.34794559723997054
300.40067640746491406
300.41056261176174758
300.35676616417561036
300.27490657601771318
300.22900215712559202
300.25226744203513363
300.33249949259760569
300.43127228984502608
300.51872239255646946
300.58844194528251137
300.63940102223796202
300.66343133547178468
300.64811567748722609
300.58532001640372755
300.47718938657669696
300.34010910728227373
300.20434019530091518
300.10475802373389342
300.06642802300007133
300.09227352288013435
300.17051413850106201
300.28290263210351441
300.40634104478812105
300.51623815303190668
300.59517139880381364
300.63345355034141448
300.62593870461881806
300.57620673890755825
300.49955473885086121
300.42568877748317391
300.38265826900794764
300.38331308870039038
300.42372612562508039
300.49719525332778858
300.59565936791688046
300.70860084936600742
300.8067190122918646
300.85798794122064237
300.84214495777376897
300.75856288717318421
300.61960468785412104
300.44010249671066504
300.22953131144021199
299.99535837166956753
299.74934216218116489
299.5098444063416423
299.29776486508228572
299.12767642909608412
299.00100296307925873
298.90711283349787664
298.8315532156694303
298.76555461052691953
298.70939386568983309
298.66814499685506235
298.64458392117677477
298.63483174778332341
298.63048007798192884
298.62486733081397006
298.61524450286765386
298.6019626836314842
298.58695298244822425
298.57158965305410447
298.55487693660944615
298.53315871043167817
298.50363156964164091
298.46823070938415867
298.43403446547790736
298.40874002437806212
298.39615507309389386
298.3953651303696688
298.40320408573217037
298.41775631815971792
298.43836231611601306
298.46319130029746702
298.48873028568414156
298.5102989441170962
298.5225449566631255
298.52005456335911049
298.50003012263380242
298.46611754795850402
298.42964499801269085
298.40567460388018617
298.40526653862571038
298.42882463795348258
298.46569292810062279
298.50079892664638237
298.52437510667391507
298.53685172816580007
298.5456224866628645
298.55689262426363939
298.57009364784522631
298.57938034645513881
298.58088771636516867
298.57776645819569694
298.57881114248095855
298.59155534243154761
298.61692734889732037
298.64904314412882513
298.6790743753280708
298.69986894245101894
298.70805854023683423
298.70416084623252573
298.69201885746758762
298.67824592339013634
298.67073376347639169
298.67529177247752159
298.69255936675341445
298.7173979356974769
298.74162732976327561
298.75866537782570731
298.76724568351068001
298.77118222217427501
298.77580368501196517
298.78368948445444175
298.79291757129067264
298.79892616120378079
298.79830389430088644
298.82703563441634742
298.84060786490158534
298.85284215133015095
298.85995022791200881
298.8584082151230632
298.84715524472460402
298.82886260499299169
298.80917873810983565
298.79399007530696508
298.78646033426053918
298.78573101243983956
298.78819716381030958
298.79033813417191823
298.79111075894974192
298.79241629777942535
298.79753079102425772
298.80852463334883851
298.82428171588344412
298.84060678288898316
298.85241281905865662
298.8565812303749567
298.85379065696099588
298.84817500770913057
298.84516194880603734
298.84872377103636154
298.85940201731710886
298.87420650608112282
298.88825478355408904
298.89720192454274184
298.89906923393789384
298.89484098386139976
298.88750013695653251
298.88062790999003937
298.87664174351942847
298.87657219887717019
298.88018403807319601
298.88662323893464645
298.89533361331888273
298.9058644083049785
298.91727969804964005
298.92804934507717007
298.93588399581744852
298.93816564115076062
298.93302206589856951
298.92047235579889275
298.90290301121916627
298.8843954262583793
298.86919923736479632
298.860016257441373
298.85709045430860442
298.85847517433234088
298.86119593380374226
298.86272539487021049
298.86220455617291236
298.86061409206484996
298.85993217496252328
298.86207132464051028
298.86784923198484876
298.87656957470392172
298.88629531622939339
298.89459397826192344
298.89946443188262037
298.900096068471953
298.89727245690630753
298.89312807076890977
298.89029749550178394
298.89091846040219025
298.89584859011097251
298.90432262217797188
298.91426544782115116
298.92310603422833992
298.92870462757269934
298.9300908111345052
298.92750797767422455
298.92179993446131903
298.91358356258365347
298.90300592999045648
298.89001299552029423
298.87505446114943197
298.85960859840224657
298.8460701061478062
298.83672395247555187
298.83257702896389674
298.83266349793314021
298.83446295703691931
298.83523225555541103
298.83350252810788561
298.82972325614457532
298.82578729601522127
298.82359048964468684
298.82362044888310493
298.82439464947390206
298.82302035312045518
298.81655231625882152
298.80348409526266096
298.7845735749490359
298.76268386203435057
298.74174728518454458
298.72544423474386122
298.716002994960661
298.71349184584659042
298.71583194970253317
298.71963672403853707
298.72151920297721972
298.71935415344938747
298.71287204685472716
298.70342239852192279
298.69321825067879672
298.68432159359326761
298.6778764470684564
298.67383348032160484
298.67124645311969289
298.66904397137165006
298.66673025139812125
298.66466639439141773
298.66385383618467131
298.66537093985573392
298.66974123072554903
298.67645570363458773
298.6839849557389357
298.69016529838330598
298.6929247746851388
298.69100714983011358
298.68427350171009493
298.6735609115971215
298.66023030869843069
298.64573382653856015
298.63134101015572242
298.6180299429068441
298.60655416144356877
298.59751447872787367
298.59125284133602918
298.58773131339557949
298.58646340123607388
298.5864861857820074
298.58668019634694701
298.58612013569677401
298.58422550383983207
298.58104808783457429
298.57728534468878934
298.57412831363916439
298.57258156500859059
298.5732008851616115
298.57582608714716343
298.57963470545837481
298.58340968271772908
298.58605223771581905
298.58681298576709651
298.58536654001886745
298.58189057994479754
298.57689227844838342
298.57098000935337723
298.56465760435611401
298.55840289128627774
298.55276394922879035
298.54843655169105432
298.54614272577964584
298.54641139917674764
298.54924970828619735
298.55411322166946775
298.55996731933248611
298.56561497889805423
298.57012817439425589
298.57299330197446352
298.57405527372924325
298.5735135814375667
298.57208764120747446
298.57068786837641028
298.57009665320731528
298.57081633509284302
298.5731298666403859
298.57723814955045327
298.58333406555215106
298.59166603196507594
298.60250940771373962
298.6159479857341239
298.63164642178713848
298.64877291234381573
298.66609201352974878
298.68219363577793501
298.69584146079017728
298.70620869058944891
298.71317537285864319
298.71748828622185101
298.72062938810915966
298.72440408176504434
298.73049960101786837
298.73994211422257194
298.75280758410025328
298.76813733019503161
298.78412775940779511
298.7986217046138222
298.80981709109079247
298.81687187060157385
298.82009956623164726
298.82074361273316754
298.82046067494206909
298.82080430013900241
298.82274778840138652
298.82650925185498636
298.8316286896634324
298.83728652959041483
298.84267720181793493
298.84741155725583894
298.85169975431779221
298.85618850661580836
298.86158762278392942
298.86846573539224892
298.87710357914829729
298.88734972363960196
298.89878289375110398
298.91086883466675772
298.92310695922896002
298.93513775358167095
298.94674651491141049
298.95778388068322329
298.9680406398337027
298.97719337100295434
298.98481864871916969
298.99055887941875653
298.99432164559885905
298.99637810859496767
298.99738238567573489
298.99816715648438503
298.99948888966940785
299.00173925401071529
299.00492553799961115
299.00865832650555376
299.01218774000415124
299.01460357263135847
299.01518861174349695
299.01368310489539226
299.01039280438743617
299.00606261660300333
299.00169520780065113
298.99825432418123228
298.99652491680205912
298.99700671199963153
298.99989752555939049
299.00509954153881154
299.01233964635235907
299.02120548343833661
299.03127000892862952
299.04200739292065236
299.0527738074199533
299.06274240565716127
299.07094806292536759
299.07633712745723642
299.0779715430289798
299.07526679041035322
299.06812860246168384
299.05708757450258872
299.04309437312826958
299.02728232400863817
299.01087613944537225
298.99492724483491202
300.24938434824429123
300.38523506894620141
300.11258306185152378
299.94031622356982325
299.91154224079247115
299.88019028010813827
299.89920194986240176
300.07842673934987943