/*--------------------------------*- C++ -*----------------------------------*\
  =========                 |
  \\      /  F ield         | OpenFOAM: The Open Source CFD Toolbox
   \\    /   O peration     | Website:  https://openfoam.org
    \\  /    A nd           | Version:  12
     \\/     M anipulation  |
\*---------------------------------------------------------------------------*/
FoamFile
{
    format      ascii;
    class       volScalarField;
    location    "0.00513";
    object      alphat;
}
// * * * * * * * * * * * * * * * * * * * * * * * * * * * * * * * * * * * * * //

dimensions      [1 -1 -1 0 0 0 0];

internalField   nonuniform List<scalar> 
106891
(
7.3146140471840984289e-06
7.3072836096257426773e-06
7.2984858235472328461e-06
7.2912903127254383807e-06
7.2825723359818040112e-06
7.2754640615809172392e-06
7.2665559072564869257e-06
7.2594324722418680966e-06
7.2503160459241531083e-06
7.2431683830774414013e-06
7.2331508088352455444e-06
1.1140092321335289376e-05
1.1121081253477195275e-05
1.1096429512220947359e-05
1.107361708820127313e-05
1.105237718809652882e-05
1.1033809003665017291e-05
1.1016594823815341285e-05
1.1001182769066149335e-05
1.0985786702305353008e-05
1.0971153164716605991e-05
1.0956008670735738019e-05
1.094133866058506325e-05
1.0926121956140305829e-05
1.0911790227050299028e-05
1.0897436185098608529e-05
1.0884563980873581643e-05
1.0871948654251238159e-05
1.0860531688290558767e-05
1.0848931193333871142e-05
1.0838084700905403283e-05
1.0826914358665228589e-05
1.0816249416745860358e-05
1.0804983208923694472e-05
1.0793963790224906364e-05
1.078182875427489836e-05
1.076968859076276153e-05
1.0756973649015904004e-05
1.0745005508426000511e-05
1.0732449042945290212e-05
1.0720119273330819729e-05
1.0706781050475044242e-05
1.0693741727322805162e-05
1.0680385097550725463e-05
1.0668105762376733065e-05
1.0655788789984269645e-05
1.0644587132437832204e-05
1.0632904403878045647e-05
1.062174576198936727e-05
7.7820016942689717053e-06
7.771010334367365192e-06
7.7618903850048165697e-06
7.7511945101327328102e-06
7.7424453444314488644e-06
7.7321413800855425132e-06
7.7237734834801822478e-06
7.7137532942743081599e-06
7.7056518406173493501e-06
7.6958888809749948309e-06
7.688001112346314216e-06
7.6784853614431904984e-06
7.6708235459135365382e-06
7.6614463649395747678e-06
7.6539036818970246318e-06
7.6443083389992542813e-06
7.6367470235216673518e-06
7.6269678917772743665e-06
7.6193462598816895452e-06
7.6084208150868900002e-06
1.1707328537654363644e-05
1.1681099817395616407e-05
1.1656066333718538726e-05
1.1633887720029872351e-05
1.1613396678345440019e-05
1.1595481900874609135e-05
1.1578360924115384622e-05
1.1562742861865299003e-05
1.1546826051221434616e-05
1.1531384054152726186e-05
1.1515134298415986126e-05
1.1499443436015587927e-05
1.1483385876708505834e-05
1.1468828599015678873e-05
1.1454928172745369012e-05
1.1442875457941883242e-05
1.1431063491459900284e-05
1.1420058783167660247e-05
1.1408445779759927521e-05
1.1397011841542077759e-05
1.1384869394410880206e-05
1.1373247334750658153e-05
1.1360797022156428487e-05
1.1348421346935717068e-05
1.1335122216589231081e-05
1.1322497602651279396e-05
1.1309471449249479974e-05
1.129714136509726292e-05
1.1283911775171761888e-05
1.1270791514860636372e-05
1.1256850407004706909e-05
1.1243588883280460896e-05
1.1229995907869977934e-05
1.1217619023927448608e-05
1.1205017049586723404e-05
1.1193278921147477889e-05
8.1900342641169643771e-06
8.1782103328360381428e-06
8.1684654711811460591e-06
8.1569748671122365146e-06
8.1476271785605899574e-06
8.136542060499947268e-06
8.1275756386047847497e-06
8.1167623793154951599e-06
8.1080197921318914264e-06
8.097455906858781196e-06
8.0890216860287559968e-06
8.0787937342856118672e-06
8.0706663002660774181e-06
8.0606565523436612877e-06
8.0527359966023697276e-06
8.0425344585787309512e-06
8.0345873016574404039e-06
8.0241583237385202837e-06
8.0160795091050196943e-06
8.0042297738600305201e-06
1.2353485989528918996e-05
1.232498494943025132e-05
1.229504600916530732e-05
1.2268097233072076501e-05
1.2243213652901686813e-05
1.2221351207201027313e-05
1.220088435543977828e-05
1.2182509400708634584e-05
1.2164336604743682173e-05
1.2146871113541172994e-05
1.2128675154613480442e-05
1.2111167376064735769e-05
1.2093444681371678793e-05
1.2077670094445822811e-05
1.2063028560602065731e-05
1.2050819345589891605e-05
1.2038980706374159389e-05
1.2027736214189697607e-05
1.201529838128727284e-05
1.200254841371188125e-05
1.1988789709102320029e-05
1.1975619399860826792e-05
1.1961883378909511194e-05
1.1948657487459524791e-05
1.1934777931640124134e-05
1.1921582926683912642e-05
1.1907853317109258687e-05
1.1894755759709398722e-05
1.1880841787155995405e-05
1.1867155252145952622e-05
1.1852695387487990431e-05
1.1838841411725395232e-05
1.1824456195813251214e-05
1.1811161857110411284e-05
1.1797645047489132685e-05
1.1785187820394053826e-05
8.6067885036262451544e-06
8.5965292732393007577e-06
8.5842922484718057791e-06
8.5743733800790417413e-06
8.5624554126673215772e-06
8.552817368710808013e-06
8.5411139091916681043e-06
8.531732760123264707e-06
8.5203637853623767981e-06
8.5113262284178947133e-06
8.5003963795829480424e-06
8.4918614337563912408e-06
8.4812914376275139536e-06
8.4730604794126157167e-06
8.4623238280675439933e-06
8.4540775927594651019e-06
8.4430450742914201173e-06
8.4345259925267500323e-06
8.421730366350685634e-06
1.2979970582114840343e-05
1.2947654184575394949e-05
1.2917046850749547572e-05
1.2889945691839143547e-05
1.2865019293225874109e-05
1.2843267941572961873e-05
1.2822766744647762447e-05
1.2803898680778618739e-05
1.2784713861079886172e-05
1.2766134429056188676e-05
1.274683360754730877e-05
1.2728977746735836973e-05
1.2712044582570106272e-05
1.26980487482014503e-05
1.2685467149277463513e-05
1.2674548298995345897e-05
1.2662822188209736936e-05
1.2650345240149572917e-05
1.2635901000943470862e-05
1.2621291000534617697e-05
1.2606015293239201662e-05
1.2591900428872127943e-05
1.2577717942028759256e-05
1.256449837318454187e-05
1.2550475654100474559e-05
1.2536841598493919623e-05
1.2522314318675975493e-05
1.2508148593615503398e-05
1.2493154167795349915e-05
1.2478684912959575633e-05
1.2463495397550971539e-05
1.2449278465944666716e-05
1.2434617023942759473e-05
1.2420969137856201572e-05
9.0706758743374974981e-06
9.0575258510645252364e-06
9.0468946440474780953e-06
9.0339973693637416909e-06
9.0235976946792092394e-06
9.0108692593502946766e-06
9.0005756717052279905e-06
8.9879950129855155016e-06
8.9778903438781006987e-06
8.9656541755673213671e-06
8.9560458649203095839e-06
8.944442367991705669e-06
8.9354794137417797926e-06
8.9243728573521215034e-06
8.9158795712907764122e-06
8.9046805429010088392e-06
8.896181462652198786e-06
8.8845468358968647212e-06
8.8755808867293975434e-06
8.8618021169449864404e-06
1.3673522346836014735e-05
1.3638669757071899386e-05
1.3606519906455962155e-05
1.3576551976109163091e-05
1.3550524641214114712e-05
1.3526673175640599385e-05
1.3505531091742741098e-05
1.348484820710239623e-05
1.3465186354203592523e-05
1.3444629197883419707e-05
1.3425002456101924126e-05
1.3405524058652301388e-05
1.3388558108305165741e-05
1.3373305527381450878e-05
1.3360852357684547596e-05
1.3348891578774440474e-05
1.333697009954451218e-05
1.3322865574817842297e-05
1.3307642855423555008e-05
1.3290599977881834657e-05
1.3274332572557321529e-05
1.3258403135119024244e-05
1.3244496855707361575e-05
1.3230474359677110146e-05
1.3216951770233676064e-05
1.3202030151948727487e-05
1.3186957465715189183e-05
1.3170751072090567868e-05
1.3155212098281800562e-05
1.3139079386729482233e-05
1.312403799361494773e-05
1.3108481915733348084e-05
1.3093876740413831517e-05
9.5311533111980016256e-06
9.5202503425753257446e-06
9.5068009951464296407e-06
9.4960152364362058845e-06
9.4825950676747587897e-06
9.4717415915460026043e-06
9.4583290872529705075e-06
9.4476145202896532103e-06
9.4346043313053180992e-06
9.4244810128926620642e-06
9.4121993516015993702e-06
9.4028652217435900531e-06
9.3912374216959257432e-06
9.3824796577327349142e-06
9.3707447785903069296e-06
9.3619264687107114393e-06
9.34963412851385714e-06
9.3401557580990645041e-06
9.3254766640531648288e-06
1.4354597784690068606e-05
1.4321072621093041999e-05
1.4289765830965122783e-05
1.4262772740312174686e-05
1.4238344611649329371e-05
1.42167368762129891e-05
1.4195638973997735255e-05
1.4175759267497441721e-05
1.415517622486604519e-05
1.4135730043956815045e-05
1.4116362602477061379e-05
1.4099352216818741563e-05
1.4083587509048261014e-05
1.4070330208380708365e-05
1.4057409466361224512e-05
1.4044626637997520343e-05
1.4029623263116841104e-05
1.4013262068661189882e-05
1.3994750233845686617e-05
1.3976975421757991002e-05
1.3959788770175866353e-05
1.394503739524461858e-05
1.3930449020571073011e-05
1.3916263320593743832e-05
1.3900347371488967264e-05
1.3883942498983103671e-05
1.3866229319395987539e-05
1.3849272621481373277e-05
1.3832071050112266491e-05
1.3816440023835984668e-05
1.3800552576274417049e-05
1.3785693311539548106e-05
1.0028423093897508706e-05
1.0017311828674412634e-05
1.0003355837588729835e-05
9.992290719160559255e-06
9.978358281634302113e-06
9.9672056900828128649e-06
9.9532084845329138689e-06
9.9421453944196169322e-06
9.9284849629873797187e-06
9.9179717547837286496e-06
9.9050909713004584733e-06
9.8954564178563114935e-06
9.8832736889849275236e-06
9.8741705687674815293e-06
9.8617488879834433148e-06
9.852377063349298828e-06
9.8391937309564531729e-06
9.8290434466538930113e-06
9.813682950365008455e-06
1.5103399789370297471e-05
1.5068960498744639071e-05
1.5037857660940252087e-05
1.501111178193836979e-05
1.4986310272861343547e-05
1.4963854210449553967e-05
1.4941485884899912415e-05
1.4920783899418895566e-05
1.4899990909884869503e-05
1.4880780485239415706e-05
1.4861784295639232097e-05
1.484477639365074065e-05
1.4828425831904801845e-05
1.4813499578457273785e-05
1.4797941521947787064e-05
1.4782038915058587486e-05
1.4763630674861632911e-05
1.4744610349019500808e-05
1.4724484808343145923e-05
1.4706115077293917108e-05
1.4688337297265659733e-05
1.4672245726800094574e-05
1.4655552248513460699e-05
1.463886373654312546e-05
1.4620471074879541149e-05
1.460229644184228707e-05
1.4583406412157239772e-05
1.4566117344999296852e-05
1.4548829422677849704e-05
1.4533001045370361664e-05
1.0539791076908632255e-05
1.0525435335206582033e-05
1.0514246899333155039e-05
1.0500007877347018322e-05
1.0488832403136733322e-05
1.0474579385718596198e-05
1.0463482750197706131e-05
1.0449444802586711723e-05
1.0438745964736373151e-05
1.0425338469424074296e-05
1.0415338138190845951e-05
1.0402340460454692514e-05
1.0392569631349161258e-05
1.0379157624044111884e-05
1.0368908146353798523e-05
1.0354578678568445381e-05
1.0343553211617797193e-05
1.0327327919485293498e-05
1.5873272978451256958e-05
1.5843346195064559543e-05
1.5815882219203676308e-05
1.5791785521399142716e-05
1.5768321109992778197e-05
1.5747100977059765817e-05
1.5725982129735264987e-05
1.5706550275271395959e-05
1.5686701033052241524e-05
1.5667723314204729147e-05
1.5648044864013688102e-05
1.5629467896640658066e-05
1.5611096210876078486e-05
1.559429557849217673e-05
1.5576534491350878882e-05
1.555878990084723476e-05
1.5538831144510159148e-05
1.5518810459010317184e-05
1.5497536074909524129e-05
1.5477470089208588495e-05
1.5457647851540207195e-05
1.5439612584302967873e-05
1.542109298535854217e-05
1.5403394688660096147e-05
1.5384606944537011943e-05
1.536666746738323203e-05
1.5347868051919638373e-05
1.5330128436160724719e-05
1.109886931929834272e-05
1.1084646626352708836e-05
1.1073557941766917136e-05
1.1059516366347977253e-05
1.10486325519905216e-05
1.103465019481795341e-05
1.1023870011137958989e-05
1.1009974154156320448e-05
1.0999292162934552655e-05
1.0985573314588010992e-05
1.0975052463617665952e-05
1.0961116935256710371e-05
1.0950303333098814146e-05
1.0935659510226471247e-05
1.0924208321860193679e-05
1.0908754030172792987e-05
1.0896818542511114221e-05
1.0880260012298790062e-05
1.6654178507998100214e-05
1.6627239749962963703e-05
1.6603198127749788695e-05
1.6580167296237271758e-05
1.6559631316569261531e-05
1.6539523390098661692e-05
1.652090626216624772e-05
1.6501287283886119725e-05
1.6481597020223440176e-05
1.6460385660658293736e-05
1.6439798775592137891e-05
1.6419670648395151812e-05
1.64017322811904288e-05
1.6383953042818371769e-05
1.6366915984977753332e-05
1.6347917822328438149e-05
1.6328091339698283399e-05
1.630611366061520388e-05
1.6284417059127259545e-05
1.6262972245008017153e-05
1.6244113453996755791e-05
1.622637905129095212e-05
1.6210607074050868877e-05
1.6194010880361120594e-05
1.6177298203020542709e-05
1.6158220011516336462e-05
1.6138646058464827063e-05
1.1640799100373039362e-05
1.1626525595216678836e-05
1.1613739351434195437e-05
1.1599746115175866673e-05
1.1587030778677530462e-05
1.1573083921127741682e-05
1.1560243980591627694e-05
1.1545923252863543238e-05
1.1532512304800733141e-05
1.1517518900189379418e-05
1.1503104594249776853e-05
1.148741953427943134e-05
1.1472106734162743722e-05
1.1455781322941708657e-05
1.143996964591733462e-05
1.1423356189579920232e-05
1.1407542363008353527e-05
1.7223927283382180773e-05
1.719555569302360623e-05
1.7169959775252012019e-05
1.7145708742704572766e-05
1.7124065228862452915e-05
1.7103351241366465479e-05
1.7084692635907316018e-05
1.7065485433039346706e-05
1.704636628212856885e-05
1.702523981181276936e-05
1.7004041446216364353e-05
1.6982392601349468827e-05
1.6962934391958525953e-05
1.6944513482005730734e-05
1.6928378583055717316e-05
1.6911462585044096437e-05
1.6894374862300988135e-05
1.6874603780719789038e-05
1.6853892887061182711e-05
1.6831939511726492126e-05
1.6811833097485951073e-05
1.6792975984777788962e-05
1.6777418654516993958e-05
1.6762753783569247221e-05
1.6748819378606373353e-05
1.6732203521649557416e-05
1.671366258683262002e-05
1.1966075769545223424e-05
1.1953524853812279435e-05
1.1935717963576000157e-05
1.1923316186421751997e-05
1.1905334694986202188e-05
1.1892557068891528412e-05
1.1873798092585946895e-05
1.1859976046820141859e-05
1.1839848333235544205e-05
1.182501836259212323e-05
1.1803894727632354783e-05
1.1788470909701965968e-05
1.1766964493668846019e-05
1.1751557798688706263e-05
1.1727091811125582764e-05
1.1720395148399266158e-05
1.3506087164854636528e-05
1.3486336428418719256e-05
1.3467883809306393283e-05
1.3451794937097869847e-05
1.3436801153999811527e-05
1.3423362244477981468e-05
1.3409879842078705102e-05
1.3396950253040873234e-05
1.3382893836286336413e-05
1.3368907142297488866e-05
1.3353814597953284188e-05
1.3340024131695550998e-05
1.3326828326137016558e-05
1.3315837887919703669e-05
1.3304826998473044152e-05
1.3294556887040318493e-05
1.3282649984241393109e-05
1.3270299948853798248e-05
1.3256507124084851581e-05
1.3243028325792635888e-05
1.322951186499298771e-05
1.3217930235624938148e-05
1.3206950936013537107e-05
1.3197506532677326336e-05
1.3187491110879569697e-05
1.3176558858997450562e-05
1.3162824985354375606e-05
1.3147560967177052425e-05
9.2921983814122429969e-06
9.2780433022416971428e-06
9.2681060764295480426e-06
9.2536011718697562176e-06
9.2431728018463703414e-06
9.2279038840976200108e-06
9.2165809517464952413e-06
9.200310416403204109e-06
9.1883484441998114186e-06
9.1715872499286752828e-06
9.1594960954136502913e-06
9.1428377401339464529e-06
9.1310548808254051611e-06
9.1122472931438839048e-06
9.1098894096892440796e-06
1.2759114273510517717e-05
1.273887501789761058e-05
1.2721232830021417376e-05
1.2704432913784248464e-05
1.2689113389593636641e-05
1.2673467204719001287e-05
1.2658296765713934864e-05
1.264210276776142844e-05
1.2626471448673698582e-05
1.2610370676783878524e-05
1.259570660395073591e-05
1.258162501936732195e-05
1.2569390746182927337e-05
1.2557059776056371956e-05
1.2545413272999426094e-05
1.2532453732212600351e-05
1.2519491665011036726e-05
1.2505433059063564223e-05
1.2491856557829274533e-05
1.2478102831960982395e-05
1.2465797913136782786e-05
1.2453537648125614617e-05
1.2442250037805188879e-05
1.2429988177427606999e-05
1.2417111837658127382e-05
1.2402096840853274514e-05
1.2386414518659471948e-05
8.8342319049431455174e-06
8.8252205968147707068e-06
8.8123666035199306164e-06
8.8028199916727508501e-06
8.7892037360213092921e-06
8.778857811290049793e-06
8.76442736875214203e-06
8.7536115231837628557e-06
8.7389237462969568805e-06
8.7281885017901066504e-06
8.7137952227867522992e-06
8.7034950017714849665e-06
8.6877014230296643969e-06
8.6810460582679364032e-06
1.226292442144293842e-05
1.2246145057568078547e-05
1.2229990965324946352e-05
1.2214941982219227129e-05
1.2199212762820085807e-05
1.218379062065799255e-05
1.216759336716727583e-05
1.2152440151135360483e-05
1.2137395464505968033e-05
1.2123975590482879142e-05
1.2110965969897651923e-05
1.2099320823624498095e-05
1.2087288109985499374e-05
1.2075843686015925847e-05
1.2063304596469814792e-05
1.2050973392454924821e-05
1.2037727417987683398e-05
1.2024955833967768433e-05
1.2011809516446943845e-05
1.1999587822608036181e-05
1.198674873985928086e-05
1.1974312980830567404e-05
1.1960710102417534842e-05
1.1946745042051364101e-05
1.193126619374601589e-05
1.191590356973773716e-05
8.4968588197077203031e-06
8.4844071917590405883e-06
8.4750784507920113155e-06
8.4618155005719470653e-06
8.4517286988602682933e-06
8.4379023497610591858e-06
8.427597798455194929e-06
8.4138727328444281147e-06
8.4039347329733021731e-06
8.3906571615959477242e-06
8.3812024679490445758e-06
8.3669241871441659168e-06
8.3601536267020439209e-06
1.1783901678844686139e-05
1.1768454680254416501e-05
1.175381104415403787e-05
1.1738303518156656383e-05
1.1723054235234497413e-05
1.1707273926233214626e-05
1.1692905598317995306e-05
1.1679079908872981887e-05
1.1667079928583083608e-05
1.1655357137339425672e-05
1.164457288647211115e-05
1.163305629846133917e-05
1.162194154687819804e-05
1.1609840635406460955e-05
1.1598023124568648991e-05
1.1585317422327067108e-05
1.1572965383454966265e-05
1.1560027952274524259e-05
1.1547641578640867706e-05
1.1534286057323013021e-05
1.1521043822125353503e-05
1.150668349380800043e-05
1.1492222028311044606e-05
1.14767784567047879e-05
1.1461948466182127069e-05
8.1598612306560615082e-06
8.150752515008200731e-06
8.137864249870955548e-06
8.1280626168480884217e-06
8.1148171178133421568e-06
8.1050281754131010793e-06
8.0921131828723945491e-06
8.0828468759197361467e-06
8.0704642920383084652e-06
8.0616928915902896167e-06
8.0483038112817299791e-06
8.0420292832889270294e-06
1.1326584844047402271e-05
1.1312170642679571887e-05
1.1296922948115872433e-05
1.1281932268081611715e-05
1.126659616045531694e-05
1.1252952263841532984e-05
1.1240179230185449197e-05
1.1229351226470103608e-05
1.1218684669606705161e-05
1.1208677036377744573e-05
1.119772113845379682e-05
1.1187032643224821747e-05
1.117542018662007887e-05
1.1164096505626144436e-05
1.1151812936739335271e-05
1.1139684624249130562e-05
1.1126754854176620614e-05
1.1114185236010302939e-05
1.1100543336929232765e-05
1.1086933358018108488e-05
1.1072286968978543295e-05
1.1057787330784558998e-05
1.1042696135828735572e-05
1.1028523727786441867e-05
1.0882606874457601874e-05
1.0868328867637546014e-05
1.0854247796788762519e-05
1.0839841884080643318e-05
1.0827123530490159837e-05
1.0815340949685311295e-05
1.0805531848050415022e-05
1.0795859994852568926e-05
1.0786710910905377819e-05
1.0776486950028288741e-05
1.0766421599319120567e-05
1.0755493187312028874e-05
1.0744842120342958905e-05
1.0733122624092361852e-05
1.0721273338623612558e-05
1.0708317882597709537e-05
1.0695523328275393542e-05
1.0681692312279366506e-05
1.0668023283292093426e-05
1.0653513486071069185e-05
1.0639249701115715191e-05
1.0624488657765264964e-05
1.0610673652945287537e-05
1.0445026357584576135e-05
1.0430737853136127428e-05
1.0418210506474018527e-05
1.0406765528724377001e-05
1.0397344241943453499e-05
1.0388079290625766509e-05
1.0379355679413859395e-05
1.0369651926401648095e-05
1.0360141143317418803e-05
1.034981774037211425e-05
1.0339688053004986531e-05
1.0328386332483309427e-05
1.0316743125592478682e-05
1.0303754705237003043e-05
1.0290748033514284169e-05
1.0276791510000109613e-05
1.0263228323068891503e-05
1.0249087133304794287e-05
1.0235256925559306433e-05
1.0220893482108951006e-05
1.0207383504242325298e-05
1.0001242645135180172e-05
9.9924195830332365417e-06
9.9841463077301011029e-06
9.9749784290426013049e-06
9.966013041337358971e-06
9.9562665996493790135e-06
9.9466245801652302896e-06
9.9356889685128498766e-06
9.9242168858548044145e-06
9.911263143220963901e-06
9.8982431048827286378e-06
9.8844260701616321903e-06
9.8711805158763667319e-06
9.8575248292223302955e-06
9.8442092377570366115e-06
9.8303659093700244796e-06
9.817316727137737951e-06
9.5918473352603674258e-06
9.5822601854498867531e-06
9.5727193458679377521e-06
9.5618616463951085585e-06
9.5504146207688655275e-06
9.5374683809272560968e-06
9.5244760060356071764e-06
9.5108394876249166045e-06
9.4979008784510096311e-06
9.4846268674468598011e-06
9.4716453287896254753e-06
9.45811069044050345e-06
9.4453360288037443196e-06
9.2205355084033423875e-06
9.2111525150571990915e-06
9.2004161432127118289e-06
9.1891583572798135951e-06
9.1765761226271100949e-06
9.1640238098336829919e-06
9.1509112755543231912e-06
9.1384706908220980176e-06
9.1256816909897554613e-06
9.1130983862198413779e-06
9.0999131360388713042e-06
9.0874237917866513848e-06
5.0834908961142458137e-06
5.0664489264522886178e-06
5.0592006829813608568e-06
5.0568179328097091318e-06
5.0584038949625424823e-06
5.0750847854347981981e-06
5.1202753804736116672e-06
5.1585381587279616772e-06
5.1827520651267227237e-06
5.1938396513677987363e-06
5.1954697165385514923e-06
5.192004078006907746e-06
5.1856185544231388275e-06
5.168421465984621354e-06
5.144768518493949594e-06
5.1301696308741775741e-06
5.1233832924704885795e-06
5.1201974546239566484e-06
5.1225303598368374135e-06
5.1424562165062909585e-06
6.8581355396400848953e-06
6.8549028564404270521e-06
6.8531886416868925463e-06
6.8528405589645966845e-06
6.8552890051362266822e-06
6.8571001462574220596e-06
6.8598779827883506365e-06
6.8636347094538405049e-06
6.8656413223165638852e-06
6.864571179303970532e-06
6.8601253705506079369e-06
6.8534992658416423104e-06
6.8396603681732717536e-06
6.798399141747075598e-06
6.7164844025145936326e-06
6.6465674199175625217e-06
6.595525518915558998e-06
6.562744931592712478e-06
6.5453426728088813486e-06
6.5373326822821625987e-06
6.532819974040165648e-06
6.5321927329180119856e-06
1.109163385641581845e-05
1.1049904406950162561e-05
1.102174153834542044e-05
1.1001810405651060658e-05
1.0986214946164524881e-05
1.0975500311010134068e-05
1.0967300980613930081e-05
1.0960300123098157179e-05
1.0955034971730639662e-05
1.095283898594548173e-05
1.0950388197018157499e-05
1.0942769732863541165e-05
1.0931784916325455482e-05
1.0911801614186158785e-05
1.0857615550143196744e-05
1.0734267720875478519e-05
1.061174731775431925e-05
1.0509703034383657786e-05
1.0432806792801346905e-05
1.038160021647724101e-05
1.0350595301234509808e-05
1.0333350507707965557e-05
1.0322131009787567811e-05
1.0312760086918505608e-05
1.0303140185703460075e-05
1.0292604221794153841e-05
2.3720775990500731471e-05
2.3702739909904170306e-05
2.369369480919143194e-05
2.3689860456113285246e-05
2.3686943931260490126e-05
2.3683326464937179455e-05
2.367800940035188833e-05
2.3670756692614260288e-05
2.3660800679764494808e-05
2.3648361706851876523e-05
2.3630278822423786872e-05
2.3605134720440571595e-05
2.3565006865329260688e-05
2.3483745018227434036e-05
2.3361108376960941659e-05
2.323912221910708043e-05
2.3121479709763754807e-05
2.3018391369247182904e-05
2.2937578441938042854e-05
2.2880157815564135682e-05
2.2843362300551560477e-05
2.2821508712755477367e-05
2.2804832314989977249e-05
2.2789120530632097267e-05
2.2770192389777534249e-05
2.2748002973571970244e-05
2.2720999317307722602e-05
2.2693925524427948514e-05
5.7107879712817275104e-05
5.7062760737488787564e-05
5.7028845105850063462e-05
5.6998985115158635291e-05
5.696625978566406673e-05
5.6926757060392758859e-05
5.6881721825683873484e-05
5.6836798113650685224e-05
5.6796266098197766903e-05
5.6755725802460472128e-05
5.671024702718245261e-05
5.6647631281240038792e-05
5.654556826056941364e-05
5.6393684616001374984e-05
5.6229876577334366437e-05
5.6069927883642819652e-05
5.5925086799055590946e-05
5.5802318572841973839e-05
5.5700028874187375381e-05
5.5616762207488704801e-05
5.5552137821264613413e-05
5.5498471283235150677e-05
5.5447139452683551501e-05
5.5395336103556702971e-05
5.5335314234309001863e-05
5.5272723337418786275e-05
5.520168153177863968e-05
5.5126388941502303274e-05
5.5041475129305694703e-05
5.4950555142982230054e-05
9.85590061188517931e-05
9.8381286311533420129e-05
9.8209021944008873754e-05
9.8044560602769973909e-05
9.7879149066828450036e-05
9.7701715691732540672e-05
9.7510589410742550378e-05
9.7315302218203193914e-05
9.7129533427548956194e-05
9.6961697154610931816e-05
9.6808011491046218246e-05
9.6656726376474842288e-05
9.6495316023061550748e-05
9.6321373849570524344e-05
9.6143863272715089857e-05
9.5976817947920404464e-05
9.5828462264788572683e-05
9.569500565711424689e-05
9.5563408950277687237e-05
9.5422014492579996636e-05
9.5267152216665386931e-05
9.5104515786960020407e-05
9.4940634977060090697e-05
9.4780013163983883959e-05
9.4620727965018708349e-05
9.4458806470540233489e-05
9.428964987140376567e-05
9.4112949717745713013e-05
9.3928830883301708517e-05
9.3743279823241496018e-05
9.3560917279495109736e-05
9.3387977109439087513e-05
0.00012646226237152517779
0.00012620826928704667667
0.00012597462084137429255
0.00012576351362938927329
0.00012555872278931839363
0.00012534166613646530197
0.00012511026055184241686
0.00012488068674738713099
0.00012467307406237047103
0.000124496353881109104
0.00012433892286208759917
0.0001241778318341561901
0.00012399363735850750068
0.00012378230785358337982
0.00012355755014388340729
0.00012333897508274226876
0.00012313771191211755137
0.00012294775948590050776
0.00012275195437131178723
0.00012253790742821127607
0.00012230701969527947148
0.00012207213675355707951
0.00012184644446423395709
0.00012163583908731382842
0.00012143622941197909941
0.00012123835411107696186
0.00012103275628200254764
0.00012081334636784434207
0.00012057849128808204432
0.00012033432161059400836
0.00012008977731258095524
0.00011985444315929737983
0.00011962884400797231738
0.00016184581713973641569
0.00016098806680869706762
0.00016022103679899201822
0.00015951996053878580062
0.00015886122716553269111
0.00015824625873575603498
0.00014100921296166543748
0.00014073872165092175248
0.00014049390548050917399
0.00014027631702467696032
0.0001400634697482425054
0.00013983184694488256356
0.00013957928050729924581
0.00013932759517018417626
0.00013910234432348329717
0.00013891467224409637256
0.00013875101526477639515
0.0001385798341299077259
0.00013837730241397951233
0.00013814010571309965313
0.00013788645649471617419
0.00013764126296267030773
0.00013741768261151400109
0.00013720835762910730919
0.0001369920052271545439
0.00013675313424840504603
0.00013649436717929542997
0.00013623203452606843893
0.00013598240798190445859
0.0001357518969534843409
0.00013553514512119749832
0.00013532014571880914239
0.0001350949339545467478
0.00013485116637243578009
0.00013458804273643694069
0.0001343131428811110493
0.00013403991833056024528
0.00013377832260262203048
0.00013353337767556532501
0.00013329824991531281984
0.00015355590251957422824
0.00015267133288365838484
0.00015189206975009384554
0.00015122441610037088908
0.00015062733985574708025
0.00015007277922642029582
0.00014956299099783967269
0.00013168759360053400331
0.00013144500352396738569
0.00013123537909683129178
0.00013104734458393941989
0.00013085070538973561823
0.00013062695871634221433
0.00013038477866737674285
0.00013015282869987212133
0.00012995311207656201429
0.0001297823657992966406
0.00012961431996399611728
0.0001294150471091417762
0.00012916951233040105417
0.00012889059655644491626
0.00012860821957047668149
0.00012834801390853114479
0.00012811403771118774265
0.00012788918729935124853
0.00012765013004843869197
0.00012738956039315949866
0.0001271204187168230304
0.00012686374772411348252
0.00012663278816852697496
0.00012642561139601760458
0.00012623048086877965319
0.00012603270626864566083
0.00012582318208438514492
0.00012560087108334100098
0.0001253749369771800981
0.00012516044470032777823
0.00012497227834322351949
0.0001248169075204256758
0.0001246909741754362018
0.00012458544609725578835
0.00012449176848036274399
6.1413478664443794374e-08
6.142302757310186892e-08
6.143863974427272246e-08
6.1419121351252140089e-08
6.1412439907895399778e-08
6.138838911424177058e-08
6.1359290556191367011e-08
6.13930227962969836e-08
6.1374316852045700486e-08
6.146112172594286323e-08
6.1552406081699263839e-08
4.1837257989156982551e-07
3.8463087650375545318e-07
3.526610375105599474e-07
3.2273551969914791759e-07
2.9502441549016137523e-07
2.6962721826046827557e-07
2.4660083981413775839e-07
2.2595776134642538197e-07
2.0767322102619533147e-07
1.9168742608881217012e-07
1.7790489493771196994e-07
1.6620557862558431336e-07
1.5644761416454700437e-07
1.484518931376084635e-07
1.4198754588321322291e-07
1.3679395033309049643e-07
1.3260231170324362689e-07
1.2916960649346735092e-07
1.2629219563384467681e-07
1.2386046658451866487e-07
1.217963894546781763e-07
1.2006127305977767262e-07
1.1859941191556402464e-07
1.1739808842516046371e-07
1.163943405666775676e-07
1.1552233961452001361e-07
1.1466967435521257296e-07
1.1384869708564086947e-07
1.1309106038040467634e-07
1.1250067385757383652e-07
1.1202657916974572953e-07
1.1156433363502820655e-07
1.1092582758702021413e-07
1.1007567052534867358e-07
1.0904638375043636582e-07
1.0799750446561342815e-07
6.4548291835744129029e-08
6.4538110736141637704e-08
6.4522114470051633526e-08
6.450202146506129652e-08
6.4478075849618751053e-08
6.4456652066529343548e-08
6.4443916628233515052e-08
6.4436544240524676885e-08
6.4436517474639323956e-08
6.4433312474871616858e-08
6.4420312061524486941e-08
6.4387736541698840686e-08
6.4353346333635403855e-08
6.4306604128942701468e-08
6.4263180509337152638e-08
6.4220727630192915234e-08
6.4179053374135421117e-08
6.4187043601842202333e-08
6.4154835172863229753e-08
6.422786723698819023e-08
6.4273994615496823742e-08
4.4098423205622447989e-07
4.0464284551468538187e-07
3.7030671072039735467e-07
3.3829343784576945948e-07