/*--------------------------------*- C++ -*----------------------------------*\
  =========                 |
  \\      /  F ield         | OpenFOAM: The Open Source CFD Toolbox
   \\    /   O peration     | Website:  https://openfoam.org
    \\  /    A nd           | Version:  12
     \\/     M anipulation  |
\*---------------------------------------------------------------------------*/
FoamFile
{
    format      ascii;
    class       volScalarField;
    location    "0.00513";
    object      k;
}
// * * * * * * * * * * * * * * * * * * * * * * * * * * * * * * * * * * * * * //

dimensions      [0 2 -2 0 0 0 0];

internalField   nonuniform List<scalar> 
106891
(
0.012305171799660893223
0.012297999645784433304
0.012285772822637123711
0.012278861195149487137
0.012266907423537804292
0.012260399506204432488
0.01224801571755508578
0.01224168059229117575
0.012228678529293489016
0.012222284285831674228
0.012205931891576952616
0.017842759102259232035
0.017810962304412637086
0.017760306637606519675
0.017713442916469319954
0.017669098893110749687
0.017631405322865487117
0.017597350952260271822
0.01756944704609850888
0.017542672891575399052
0.017519739922553356076
0.017496736798278678116
0.017476813612151732846
0.017456292982439215039
0.017438926907074984995
0.017420852127519807773
0.017406185681547718669
0.017390874510679520115
0.017378224609366277331
0.017364190355735765331
0.017351944902226378031
0.017338083175093572247
0.017325441439780243924
0.017311034023256659936
0.017298278503066959882
0.017283149549569883779
0.017268898216146983532
0.01725300416894267469
0.017239242317633012014
0.017223431719243301186
0.017208673775695279562
0.017191295881305190818
0.017175166959743005946
0.017157441070568650587
0.017141795275063688442
0.017124409050982680042
0.017109368098883914744
0.017092129503671046886
0.017076344202275640927
0.013040538803786194677
0.013025298067169416988
0.013015850968570266341
0.013000646154446742972
0.012991553165803963743
0.012976865389527162883
0.012968356456464286836
0.012954019477216357353
0.012945837588315457084
0.012931811681872545927
0.012923812301513711367
0.012910159162409220665
0.012902556222873139136
0.012889195036537471825
0.012881982109059917502
0.012868018586755309435
0.012860939166547850215
0.012846476531789340764
0.012839294693110818099
0.012820772017928309255
0.018752283001534381796
0.018697824795860729791
0.018645599427244533702
0.018600269648514099197
0.018558483280342839838
0.018524016595310777156
0.018492145655147479433
0.018465861272355162809
0.018439909796717106338
0.018417125398830100358
0.018393536094806536146
0.01837310594233401706
0.018351837347540429779
0.018334299574173134467
0.018316714881898347317
0.018302705449798159498
0.018287859670009478513
0.01827500787937201901
0.018260270495477175234
0.018246374650718794053
0.018230510371699159416
0.018216758513353605714
0.018201099739706124575
0.018186596234069232064
0.018169834108706470199
0.018155373967712402222
0.018139339436939221767
0.018125401084307234123
0.018108968990087209727
0.018093574946315353624
0.018075902707631718441
0.018059967170658639685
0.018041753454071104285
0.018025913020549403504
0.018008021573303084617
0.017991982208655540876
0.013711576275126625968
0.013694638244629941601
0.013684183201350759787
0.013667422379665389656
0.013657427013931593487
0.013641275777218353493
0.013631959378123212345
0.013616187639093760633
0.013607088052677622503
0.013591552516851158894
0.01358280635268689987
0.013567713928840782409
0.013559346497360968281
0.013544531575618176666
0.013536630011428284551
0.013521181519312364117
0.013513369385525986904
0.013497341942207814747
0.013489325669127713234
0.013468540828700610937
0.019835091555277996334
0.019774679837696901297
0.019708927919494970832
0.019651087517345684763
0.019597946200736904299
0.01955307765180275964
0.01951215750867707141
0.019478297502544601738
0.019446261411374989037
0.019418290275590419786
0.01939001048683228895
0.019365422650450533903
0.019340228839960119794
0.019319499893343840269
0.019299244532350764286
0.019283516878894214897
0.019267069222413217566
0.01925254212550496502
0.019235605329346660425
0.019219383795196973846
0.019201090496278005321
0.01918508148207404701
0.019167284831467085865
0.019151168896126377628
0.019133081689025763228
0.019117338866288215854
0.019099999893742367757
0.019084905594195469836
0.019067719761248991261
0.019051881639511266536
0.019033736242683313433
0.019017012832396939376
0.018997504273256554663
0.01898022143512532664
0.018961030159770384668
0.018944260073792150434
0.014398751136749409971
0.014387526581291604569
0.014369296873222817124
0.014358543525906332025
0.014340863263177107412
0.014330622007796172887
0.014313243127523753509
0.014303332513058500397
0.014286354842087189282
0.014276664337773591756
0.014260086794994214499
0.014250981578751466261
0.014234729858920706913
0.01422609068350380937
0.014209129544286767596
0.014200635770778891748
0.014183061455707000192
0.014174232254821944946
0.01415117472303776755
0.0208344334848131231
0.020764037252133233508
0.020698125270890259386
0.020641274839750131664
0.020589124133230420066
0.020545720229089611819
0.02050618070322153888
0.020472983600719044106
0.020440762595565525189
0.02041264802678158935
0.020383627614905103914
0.020358905241197863822
0.020334666349045075334
0.02031577918647822778
0.020297446664128825089
0.020282438798379397171
0.020265728094507499263
0.020249672859560821636
0.020230775917977273509
0.020213478588560769567
0.02019419549432387509
0.020177374516537723709
0.020158849063523061329
0.020142671445818070841
0.020124206367808279011
0.020107957285370712391
0.020089933422349354197
0.020073864011365221555
0.020055446817134354315
0.020038448675968479479
0.020018293592292318861
0.020000059886521131397
0.019979277845857359996
0.019960926321890920532
0.015158669335271785644
0.015138802903924360524
0.015127101809513479255
0.015107616007051703766
0.015096353280114077622
0.015077234161702993132
0.015066161315109285676
0.015047232647284174839
0.015036249970920595453
0.015017591344439550072
0.015007001119475919457
0.014988928036407993261
0.014978868064641459937
0.014961064122210248478
0.014951648782892384276
0.014933220508851470162
0.014924072960382915587
0.014904922670085822903
0.014895314940499001372
0.014870014076462699862
0.021962710143958300013
0.02188766831926893322
0.021820856238209798694
0.021758470369592913807
0.021705453973636108789
0.021656996962123503669
0.02161652446531751523
0.021578482763615347562
0.021545680356099630032
0.021512039791585512577
0.021482457103049093505
0.021452669193078026388
0.021428163042035413416
0.021404894614829118871
0.021386478751367166834
0.021367683921867993563
0.0213505102248849922
0.021330725457576873993
0.021312348616527351797
0.021291171625001964474
0.021272310735006832311
0.021251873607905896746
0.02123477356431897542
0.021215627957166478812
0.021198572816919798029
0.021179057206260256535
0.021161287827858119709
0.021141084380421736738
0.021122879303966887038
0.021101714635510977758
0.021082622215267986243
0.02106042295158575689
0.021040226751175353237
0.015916507950401871663
0.015904442730908616155
0.015883815938306334453
0.015872109374015123257
0.015851685729021215698
0.015839873961204196939
0.015819350997526557268
0.015807432177691652792
0.015787143379962353257
0.015775587517195346215
0.015755803671949689115
0.015744850113557227328
0.015725491017600116972
0.015715300806605894679
0.015695258344747182316
0.015685407957540462021
0.015664707757259151155
0.015654369978494328541
0.015627378009994120911
0.023034259355408277098
0.022966506986814547858
0.02290306747385175215
0.022849513541589459159
0.022801029608674160121
0.022760382997538613353
0.022721967459864499811
0.022688880806773861071
0.022654874646064776522
0.022625071461427177788
0.022594823474208224762
0.022569982521004377379
0.022545848545986804656
0.022526345452416031423
0.022506157955965593737
0.022487833750506981689
0.022466948558469621716
0.022447260791384836265
0.022424264041889366283
0.022403469497542564948
0.022381154735158309554
0.022362435929053334216
0.022341897352331326759
0.022323279732214765941
0.022301829286968243016
0.022281710889010902799
0.02225888314470176807
0.02223812280678032563
0.022214815806221550193
0.02219433829299659322
0.022171323494124921261
0.022150786774384586403
0.016733984248115219701
0.016721528955628651991
0.01669960946932184595
0.016687418570055755074
0.01666577488702195714
0.016653483321970287412
0.016631543489637232169
0.016618954935707880988
0.016596915202206585088
0.016584367533092198022
0.016562842736315155912
0.016551151942729467464
0.016530288735202080391
0.016519449268702007111
0.016497834644223070139
0.016487115777843498049
0.01646465742778025626
0.016453496494820050999
0.016425837777082209767
0.02426712221218529919
0.024195663870949391666
0.024131125304781821106
0.024077379712029615272
0.024028261137647853596
0.023986453067667019151
0.023945312866594469642
0.0239098249007845369
0.023874110436279204206
0.023843261773240989609
0.023812423242489107883
0.023786574070576233658
0.023760979280298643451
0.02373859065476386157
0.023714710588905684591
0.023692912669576338819
0.023667661328634449075
0.023643861513539556757
0.02361684408735352167
0.023592775015119318849
0.023566970681847189406
0.023544307239249745445
0.023519902842739384002
0.023497551224263894115
0.023472045603495035604
0.023448461281567505726
0.023422219237604242903
0.023399565826619648373
0.023375049771519919306
0.023353798139583759746
0.017582372945025310368
0.017559069680789636536
0.017546356270926342924
0.017523498038507747537
0.017510817850485499436
0.017487667014232224916
0.017474659090343593743
0.017451204117227423623
0.017438083954223301125
0.017415129614899403643
0.017402892390915226939
0.017380369773212521467
0.017368684803816532985
0.017345428231926900836
0.017333648950456463644
0.017309363414967905009
0.01729729700509520865
0.01726870842235692094
0.025500001007072416875
0.025441121484652575585
0.025387331626941959245
0.025342354677321942552
0.025298325132650376773
0.025260846284247004401
0.02522315142206001462
0.02519065628071310084
0.025157369094716205971
0.025128079560169991336
0.025097524195110229583
0.025070374066036581889
0.025042784326771348052
0.025019351214200527544
0.024993319882166808305
0.024969479668442668557
0.024941339705877578481
0.02491490390022596535
0.024884466097619285102
0.024856271142131222684
0.024826726296109550424
0.024801460438731423586
0.02477418638764981168
0.024749595184480097099
0.024721701292996459132
0.02469699826612038393
0.024670181071277798995
0.024647169403742404115
0.018521385824584606777
0.018497905672528697912
0.01848471290159137484
0.018461526032951917908
0.018448784829762632925
0.018425596873892131217
0.01841292459991790767
0.018389603865397431692
0.018376734125240865025
0.018353558672511937483
0.018341059015967248191
0.018317515987351550705
0.018305013833205360796
0.018280602364679262445
0.018267816367276756839
0.018242555761284966198
0.018229915854968050531
0.018202244324278631094
0.026695096004486971314
0.026644750852574873579
0.026601508349514923352
0.026559845862022642832
0.026525080024605324214
0.026491134590580382724
0.026462305071620166597
0.026431856300348898631
0.02640365850886837798
0.026372837157791668289
0.026344798076528338354
0.026317015411041155132
0.026293801321184560177
0.026269055892638719374
0.026246664873136153068
0.026220392439963005615
0.026195089317846548954
0.026165777298724626071
0.026137966429588998379
0.026108822774179682447
0.026083819131502157529
0.02605787864087700384
0.026035347544033859979
0.02601015049547486177
0.025987173512286677185
0.025960600967167749009
0.025936260097414610276
0.019378649219260454806
0.019353979939235776281
0.019333984677074565056
0.019309815445167029246
0.019289883770411398595
0.019266012580385790537
0.019246206403736563356
0.019222017413747276987
0.019201629737569135548
0.019176825268619190901
0.019154923415498105455
0.019129689633148119071
0.019106549110568079447
0.019080718859204939819
0.01905702630879249973
0.019030943000752875011
0.019007395390662103207
0.027075213857567639181
0.027022575698653558685
0.026977226186621138665
0.026934327723804135646
0.026898173442723320725
0.026864279711890967639
0.026837259707308363382
0.026810129828079922593
0.026785828355556647734
0.02675795423060226344
0.02673168365300503807
0.026703938465552065629
0.026680979731998091115
0.026658044421288218384
0.026639620801773025716
0.026618253513303991031
0.026598617928105767333
0.026574585593749869977
0.026551277010311152837
0.026525094297103455482
0.02650204076394256647
0.026477267800321835356
0.026456570274852476282
0.026434566798614136246
0.026414985776387924638
0.026391322109674607982
0.02636830763825478291
0.019473264112658761338
0.019453929215160550847
0.019417367272093515734
0.019398601706024500707
0.019362241522676487682
0.019343742486682930642
0.01930697284305301839
0.01928760672207772281
0.019248995793872257509
0.019228745355627463454
0.019188860772292388318
0.019168037108583429323
0.019127641466144637561
0.019106956185584604568
0.019056573949789053224
0.019063460224100745727
0.021964507338620320454
0.021928099615215673052
0.021895074482490308604
0.021868864530610473973
0.021845687329920995823
0.021827687862297322219
0.021810594354451498522
0.021797287297527997291
0.021782756734128487508
0.021770452782822767579
0.021755192688531054673
0.021743067659047210505
0.021730455546364858821
0.021722369027255897245
0.021712537775957330144
0.021705171348809889492
0.021694130004313572774
0.021684098017241030393
0.021671362082572708657
0.021660021309089897562
0.021646636974106882312
0.02163584109835696781
0.02162292208376776978
0.021612419800239278389
0.021600324732129052435
0.021588565949926554616
0.021572713192103607632
0.02155663171615151974
0.015513418231216899099
0.015483469251062068409
0.015467799547007825278
0.015437449174610175934
0.015421605913576438146
0.015390712769120839035
0.015374137513093537669
0.01534204757477952881
0.015325072088626597727
0.015292473938866601654
0.015275506640631184713
0.015243114242135863759
0.015226594376667863112
0.015186296891586965885
0.015200430069529547936
0.020396692554299329647
0.020356096332644200986
0.020323226173836500541
0.020293070512863605609
0.020268401554133560344
0.020244258873942135024
0.020223811823552387268
0.020202271889249136944
0.02018382858514466624
0.020163622394243713165
0.020146208259725014583
0.020128133521148762475
0.020113858244900948563
0.020098390913684937437
0.020085555488582689659
0.020069771046533575742
0.020055326958463289694
0.020038187514833768338
0.020022447696373374404
0.020004896767695685977
0.019989862428224935281
0.019972752285423982926
0.019957652686689052179
0.019940207554145102792
0.019923244590660114245
0.019902656610064493187
0.019882841544847894288
0.014592100306571181845
0.014579352372001787297
0.014554457123911464234
0.014541379277538587708
0.014515908449203043795
0.01450227729572061558
0.014475950361867570212
0.014462022226357170579
0.014435367881504483287
0.014421490994412306322
0.014395076964495365224
0.01438165630583664728
0.014349703955738526626
0.014347652198121143424
0.019605447236027532393
0.019573939886063464189
0.019544745810053210794
0.019520377487148920376
0.019495852305815804251
0.019474552819613542842
0.019452526927197347911
0.019434297253776943587
0.019415233201444132699
0.019399035425035422026
0.019381788006007306252
0.019367533427282677266
0.019351949872409571901
0.019338997925702997027
0.019323383082870852073
0.019308894111407463173
0.019291470145271567144
0.019275238597088264342
0.019257258546100202573
0.019241594413201994207
0.019223517292364711295
0.019206942704217622869
0.019187737919957533611
0.019169125976674365047
0.019147333221821938309
0.019126951983833923726
0.014050860812367583011
0.014027109205921624649
0.014014510223318106183
0.013989856982726121132
0.013976594249543802459
0.013951554669662656616
0.013938345862611122711
0.013913605503762877663
0.013900866860443681153
0.013876483680363540033
0.013864168279272602938
0.013835567778413253998
0.013831661948382666105
0.018839247309957340981
0.018811285409936120278
0.018787491890878270373
0.018763306790155885595
0.01874220096921982992
0.018720598486597669896
0.018703065528673418899
0.01868528871954705517
0.018670734546082201621
0.018655021900784895389
0.018641652522417923032
0.018626514917433192181
0.018613636076249173018
0.018598135604913881153
0.018583448795585592872
0.018565560205556663753
0.018548637457960748948
0.018530054160841202132
0.01851379014454523908
0.018495247089555227199
0.018478142131817244104
0.01845868362115016259
0.01843999434393609263
0.018418627862042111221
0.018398834375535712965
0.013490732378701485172
0.013478455240500904211
0.013454475353112034866
0.01344138006968820763
0.013417272347538830232
0.013404582397449944439
0.013381188319146886459
0.013369248582980592863
0.013346371599847388009
0.013334885787638500743
0.013307874473055968448
0.013304383686112303611
0.018114366909137476908
0.018090490371589895008
0.018066491816894583722
0.01804551080310096145
0.018024136425681017842
0.018006990126296897048
0.017990084613066205377
0.017976686092915097892
0.017962089220255852279
0.017949425172005747942
0.017934669940420103207
0.017921850965480806001
0.017906506629984761392
0.017891875868410775374
0.017873928029058808176
0.017856781448446504279
0.017838029325193092978
0.017821766825535084039
0.017803451159447373359
0.017786543107668723041
0.017767429006053256368
0.017749423366723755813
0.017729283222437608458
0.01771086276250982347
0.017405860469610689306
0.017384107219357115143
0.01736496254362976388
0.01734514320900419973
0.017329178042699049794
0.017313431962306169432
0.017301280765933284289
0.01728805275600666172
0.017276534919158915288
0.017262587518933954212
0.017250188043080465911
0.01723550888719506749
0.017221804066252274779
0.017204982576947219775
0.017188714565675694557
0.017170418830691074746
0.017154256958667877392
0.017136154077655993411
0.017119676816407036063
0.017101344391964104497
0.017084158662735611511
0.017064853927891081298
0.017047039555188572141
0.016717483490644984706
0.016696464102066394669
0.016679497287804316563
0.016663341258291303193
0.016651081424343953941
0.016637855944748505127
0.016626330199160526541
0.016612534578237230648
0.01660032012491515635
0.016586163471613721287
0.016573211639595956945
0.016557488815801827547
0.016542259810414530752
0.0165245742961587401
0.01650842580378842836
0.016490299090188648146
0.016474117554236025057
0.016456586626100701276
0.016440256687006309794
0.01642170023042365673
0.016404388419894336965
0.016015229528229882328
0.016002622393937088879
0.015991545902424100095
0.015978211822287778643
0.015966395666593167363
0.015952946847565693811
0.015940891115042217507
0.015926247530375158001
0.01591191072869590703
0.01589482067015056746
0.015878932233962299303
0.015861146623408137191
0.015845428228140431837
0.015828589286193395919
0.015812980983993689399
0.015795322171367219555
0.015778937109016958479
0.015374354498117689255
0.01536062802804954823
0.015348430189236586182
0.01533391636909276802
0.015319732872860694281
0.015302688600791652593
0.015286646190022030317
0.015268824476286718683
0.015253129078445722827
0.015236353307306767929
0.015220680815850385834
0.01520307737559146305
0.015186883321442544437
0.014786461524105844537
0.014774482897341609244
0.014760145963861426993
0.014746284804184564554
0.01472989826778362335
0.014714449440480595679
0.014697203342150170005
0.01468181086456821563
0.014665238266899350422
0.014649575608078776318
0.014632024097588351014
0.014615907672242408472
0.0083229592442056465895
0.0082730672725937915574
0.0082564744802536838009
0.0082568534292300800603
0.0082710502432494243524
0.0083354622218550430968
0.0084957517061958753857
0.0086360962008052710726
0.0087311634768933131523
0.0087824980556379470681
0.0088013982730213661393
0.0088023944516210528982
0.0087934180676079842093
0.0087484982044135073398
0.0086823747532199201105
0.0086472777211962174176
0.0086383933076641383764
0.0086412504684885028255
0.0086625577031394142974
0.0087439026124404538309
0.015740045027301783481
0.015733027648882409733
0.015735690843163983171
0.015746454440247036749
0.015771335543763285308
0.015794713397742528305
0.015824735286212067431
0.015862354071861210075
0.015895037874982715503
0.015915377406814940758
0.015920002029117894665
0.015913151089023021972
0.015871817687943903102
0.015704439924026203368
0.01535222675675951623
0.015059041670291485951
0.014853642974654605521
0.01473039975060370585
0.014675110598155493777
0.014661403631964607316
0.014664166291904628253
0.014686228103864308603
0.042796107604429770022
0.042476088836147667116
0.042270226693514517669
0.042137971517324471216
0.042045922229850367369
0.041993857684760098337
0.041961613721343195282
0.041940574824045943891
0.041939344201430354964
0.041971948638920092423
0.042013760263040988985
0.042022321289262636046
0.042004928993437537499
0.041914454435374587371
0.041559849062134439357
0.040681615334828648278
0.039821176230168987831
0.039125996649847956388
0.038622854738075723668
0.038308385167579589448
0.038138923658554556295
0.038068454995771272564
0.038043851660873359566
0.038038002390598082969
0.038037143270406019446
0.038035678387241214637
0.20346910832771286648
0.2031470975272610946
0.20299801383176813152
0.2029888435053665563
0.2030516346677890549
0.20313713546462228154
0.20319617473904694194
0.20321134330897794307
0.20318210793391980329
0.2031418607824327649
0.20306503539418624404
0.202928002697629839
0.20256847964564719811
0.20150099441312913084
0.19969767597473589427
0.19789291656368768191
0.19617864403191345724
0.19474832081625628732
0.19372679225511560408
0.19310737891848864245
0.19281701189193459212
0.19275075321344295465
0.19275469402531991703
0.19277927136742950553
0.19277498588172192751
0.19275245448047981234
0.1926834325467213227
0.19263406981613914737
1.2218062973865242427
1.2204667625473979431
1.2195519968955412793
1.2189602725823651674
1.2185886644071401985
1.2182598144712961652
1.2178240807855500449
1.2172622923994855793
1.2166508934414321796
1.2159190685605283377
1.2151067917592230927
1.2139168457839610848
1.2114206685514159467
1.2069888266179431557
1.2019908617549432961
1.1969592928776116025
1.1924417598160126364
1.1889367784520556981
1.1865297513816526198
1.1851367578673825953
1.1845845883621852757
1.1843807375225765544
1.1840971950406937729
1.1836813521877140865
1.1829371304945286436
1.182233439084446891
1.1813895918343761959
1.1805709460271132105
1.1794504698804042508
1.1780424880630373519
3.7671215595824874001
3.7593731811719997005
3.751414077554308335
3.7433774080137958151
3.7352739715858072067
3.7269820017954349289
3.7183529092760192469
3.7094004715126325245
3.7003005187815469768
3.6913726529174231139
3.6828592734420553256
3.6748637710749392227
3.6672480154784645734
3.6599330685550395259
3.6529647911644058667
3.6465483747457878572
3.640831903237312428
3.6357886123611087292
3.6311432811910702156
3.6265381092065300805
3.6216028652183389624
3.6162083838764669252
3.610284085708815649
3.6039578712331232779
3.5972922397464115463
3.5904254504143029436
3.5834304761712076903
3.5765396728654308411
3.5697583310624554365
3.5632475514718744414
3.5569102524520617159
3.5508466370842124427
6.4538751940708340982
6.4394591523336428551
6.4255471085621174154
6.4123724364067946624
6.399704010205555349
6.3870991955508316096
6.3743647708044939293
6.361716698020799754
6.3495600772720086624
6.3381651281768842665
6.3273743973860909762
6.3168213263382346767
6.3060509331535055111
6.294831433525472697
6.2833358339413356575
6.2719533493369956645
6.2609755962868911539
6.2503262914470658629
6.2396273172474758795
6.2285682026884492402
6.2170769113859245536
6.2053753218543770132
6.1937553574409314194
6.1824310032562479478
6.1713763858157104636
6.1604634244067302262
6.1495176614476383392
6.1384131530842855895
6.1270017329080461721
6.1153545400363755746
6.1035210312598362492
6.0917806606103228617
6.0799743802055035147
10.299072331594791407
10.208241933931644141
10.124560742710571049
10.047138764420393997
9.9747141469623556986
9.9064201073374018591
8.3592811648736873309
8.3424716729622723221
8.3264146592261454316
8.3113127910803967779
8.296588386423739081
8.2814960680888098921
8.2658510042899013825
8.2501715303483429409
8.2351640522272848699
8.2212427063270663297
8.2081935736779332302
8.19513309091935227
8.1813308855138728859
8.1666371406752311657
8.151495450890260841
8.136604824639103839
8.1223854448621608526
8.1086957463865463325
8.0949266967976640785
8.0805375538394166313
8.0655374505107140237
8.050366022081501427
8.0355179379190069255
8.0212369323393382103
8.0074146112961592792
7.9937245651491473097
7.9798282630981196561
7.9654358523657018409
7.950487377187569038
7.9351188236144567512
7.9197172727490885435
7.9045155834273055362
7.8898569656751238455
7.8752650802362182958
9.6051206661708938839
9.5150275901004803814
9.4355230062576911365
9.3658368634840130085
9.3031563362548261864
9.245597954520359707
9.1922258143551562881
7.5968991365925475634
7.5827812976117998645
7.5702899079294523332
7.5581371167574014081
7.544853014111513545
7.5301903167661627947
7.515222640344146221
7.5013164163246521809
7.4888114382967154725
7.4765433644546099856
7.4627666037017883482
7.4462163542082073775
7.4271580967626995573
7.4072030757925260147
7.3881920395239841781
7.3709815293300824379
7.3550367510188454645
7.3390985700026085681
7.3222826414205206547
7.3049159242011141302
7.2881596222171420862
7.273032844789190321
7.2597369278286274508
7.2476055788566506877
7.2357921556111994832
7.2236120302225996781
7.2110059414172544834
7.1984872329546014669
7.1871199747410017267
7.1779363223550838313
7.1715462568182291037
7.1678468009717271059
7.1662454506252606379
7.1660137843489479792
7.1665379003753848508
8.6614046942494076562e-07
8.6782594090072588826e-07
8.6974161016022800315e-07
8.7069649120361789063e-07
8.7203418911287032578e-07
8.7286847366403341114e-07
8.7353133100362109062e-07
8.7593905761523673102e-07
8.7679933800627349369e-07
8.8062084529062473487e-07
8.8451137209421634608e-07
2.520004752689003591e-05
2.1332572674821499438e-05
1.7963177946430438915e-05
1.5069039662880611175e-05
1.2612998970864316289e-05
1.0551254637471174544e-05
8.8386576501711075119e-06
7.4304372292855334195e-06
6.2840608266487057833e-06
5.3601539119131618057e-06
4.6228117077372636503e-06
4.0403052667497464808e-06
3.585123698455836265e-06
3.2330537996153239336e-06
2.9622694109706372817e-06
2.7537899077166238847e-06
2.5915164935788255676e-06
2.4626618708440659077e-06
2.3574639156222612689e-06
2.270613837361172331e-06
2.1984464809284946852e-06
2.1389994379050315682e-06
2.089862482916225538e-06
2.0502929690330993953e-06
2.017919660531368693e-06
1.990428890225946899e-06
1.9639821393148729224e-06
1.938987296011236804e-06
1.9163497125953837915e-06
1.8993193134788762567e-06
1.8859505185914525044e-06
1.8726796454679967614e-06
1.8533489573971059178e-06
1.8271086828738423777e-06
1.7953892662738851613e-06
1.7635889009450108479e-06
8.956765846411809987e-07
8.9662783573346137734e-07
8.9741402314891053177e-07
8.9808281874419103485e-07
8.9864356768909679944e-07
8.9927839655450863135e-07
9.0016873566991746819e-07
9.0123188165367043779e-07
9.0253325386490763585e-07
9.0378763181622821619e-07
9.0481623554309309353e-07
9.0534213815491153209e-07
9.058639425112291101e-07
9.0606981513648356061e-07
9.0639392835574548669e-07
9.0674560488062169942e-07
9.0710972512624982019e-07
9.0884768787891978314e-07
9.0940630905981603061e-07
9.129034808057784189e-07
9.1556766515517970386e-07
2.6598401001182690479e-05
2.2428856393402383206e-05
1.8814468097841782003e-05
1.5728608636403072535e-05
1.3129497252256098737e-05
1.0962860235432785936e-05
9.1691775149859308739e-06
7.6938023853618842411e-06
6.4919697794020717331e-06
5.5260845151656001973e-06
4.7612430957704065227e-06
4.1648705656584033511e-06
3.70777319325978919e-06
3.3622970583006531801e-06
3.1013104232557731072e-06
2.9016086160877054004e-06
2.7451847815735168506e-06
2.6210775553169794096e-06
2.5217557928423499988e-06
2.4417199179500888979e-06
2.3744509536086632111e-06
2.3148836642670666197e-06
2.2600604626001140663e-06
2.2112025319839237122e-06
2.1688377427651085547e-06
2.1330251614273859903e-06
2.1002411776760263123e-06
2.0698944858044073691e-06
2.0414114234721053414e-06
2.0173782816319876279e-06
1.9959381163809433396e-06
1.9741292982953384228e-06
1.9474764247016283241e-06
1.916956288577555201e-06
1.8843038372686468231e-06
1.8537379079839680051e-06
9.440586198774507649e-07
9.4500359556186953433e-07
9.4537838549333213566e-07
9.4527130644214788256e-07
9.4482939166792109249e-07
9.4464552123586054282e-07
9.4480274759873979909e-07
9.4514836831501110194e-07
9.4582097140303146832e-07
9.4649332817973594692e-07
9.4687802910477481532e-07
9.4673255912388050049e-07
9.4610020954389949465e-07
9.4536584982677189718e-07
9.4512367530156773619e-07
9.4499370068087130965e-07
9.4502521018129430073e-07
9.4618811732205360264e-07
9.4650731058891956781e-07
9.4960234308368654634e-07
9.5107890608827863976e-07
2.3902343766377339188e-05
2.0058533231712037334e-05
1.6772878390532644516e-05
1.3999719702886461993e-05
1.1681800256243775855e-05
9.7573218007752173008e-06
8.1700332815243782388e-06
6.8757571262022731604e-06
5.8384687159968495698e-06
5.0221038703884031605e-06
4.3888532351705326182e-06
3.902874005803293837e-06
3.5320989302899128681e-06
3.248192731030338263e-06
3.0269078747205389076e-06
2.8534226199313144871e-06
2.7201088160783490813e-06
2.6239411028574698788e-06
2.5569275155464730457e-06
2.5071436330303799872e-06
2.4615215300332363284e-06
2.4152916891584881325e-06
2.3699734500474052646e-06
2.3302286568513510387e-06
2.2959126391699564334e-06
2.2660216692866564144e-06
2.2367321838363642193e-06
2.2078910603078137185e-06
2.1781616886230021554e-06
2.1479676195208697571e-06
2.1148189352268598105e-06
2.0801873386389766938e-06
2.0444963333945380034e-06
2.0119313397575981567e-06
9.9384080853592846962e-07
9.942079610522711662e-07
9.9397492846631517764e-07
9.9255232912756211148e-07
9.9135504253649025289e-07
9.908792868425783416e-07
9.9084663638586806427e-07
9.9107604486769001703e-07