/*--------------------------------*- C++ -*----------------------------------*\
  =========                 |
  \\      /  F ield         | OpenFOAM: The Open Source CFD Toolbox
   \\    /   O peration     | Website:  https://openfoam.org
    \\  /    A nd           | Version:  12
     \\/     M anipulation  |
\*---------------------------------------------------------------------------*/
FoamFile
{
    format      ascii;
    class       volScalarField;
    location    "0.00513";
    object      k_0;
}
// * * * * * * * * * * * * * * * * * * * * * * * * * * * * * * * * * * * * * //

dimensions      [0 2 -2 0 0 0 0];

internalField   nonuniform List<scalar> 
106891
(
0.012304869532536948096
0.012297700578775078162
0.012285475223801941083
0.012278563151499990655
0.012266607902662761062
0.012260095000844047422
0.012247707731467405781
0.012241368385809013944
0.012228362696863696521
0.0122219681749912365
0.012205616977020045458
0.017842190264399940269
0.017810288552163835996
0.01775964088654007067
0.01771282088069853905
0.017668522576837805693
0.017630864440964962025
0.017596831025290277095
0.017568933760672762745
0.017542156473192557775
0.017519215471009270957
0.017496201236191451234
0.017476267606081594824
0.017455743931180260631
0.017438385460136058419
0.017420329396993380899
0.017405688035114962042
0.017390401278150897924
0.017377772123646544056
0.017363754758607293643
0.017351524498405820202
0.01733767432309547829
0.017325037022088297933
0.017310624228924331031
0.017297853289141556371
0.017282705451635058114
0.017268442523913223735
0.017252547095239021552
0.017238785471474095401
0.017222969326335574314
0.017208199887766128383
0.017190811317184046675
0.017174682339164106665
0.017156969545384148645
0.017141343635784192512
0.017123976920584954575
0.017108948768735952189
0.017091715157394774677
0.017075932405627863159
0.013040149534434499271
0.013024916990811277739
0.013015478993176907499
0.013000283825659696493
0.012991200347040800234
0.01297652093655066001
0.012968019516184363382
0.012953689186431922853
0.012945513758908426191
0.012931492831414452202
0.012923498228307626554
0.012909848517858913547
0.012902247058901703328
0.012888885700328900005
0.012881668597891802672
0.01286770240148257978
0.0128606195376655668
0.012846153000914918227
0.012838970314934545353
0.012820447073191104659
0.018751531869119836965
0.01869710558731509098
0.018644926457349962623
0.018599644494513668108
0.018557896496732492753
0.018523454665195823732
0.018491595842564854252
0.018465313155511718646
0.018439353967722664496
0.01841655628332814279
0.018392954400832845635
0.018372519457671102755
0.018351262032954077097
0.018333752886021310174
0.018316205367725667957
0.01830222947004908618
0.018287405052928362714
0.018274564155062299892
0.018259831231567581755
0.018245937081821872461
0.018230073388332778545
0.018216316239354577583
0.018200644687351465872
0.01818612636951227185
0.018169356483784478845
0.018154896819804079017
0.018138864383651719103
0.018124921853568030927
0.018108477784818718254
0.018093072303487920532
0.018075397553741021778
0.018059469822540301365
0.018041272656908875077
0.018025450347898850506
0.018007572628309740509
0.017991543815046300014
0.013711160980524441169
0.013694232269662195978
0.013683787839623453436
0.013667037719739597718
0.013657052215600425787
0.013640910053804848612
0.013631600788250576584
0.013615835578198414238
0.013606742992513555512
0.013591214661781970269
0.01358247621322916307
0.01356739032031280788
0.013559027816434553182
0.013544215921532262031
0.013536312273843468731
0.013520861934982029637
0.013513046333565632492
0.013497012862673843023
0.013488993948767846742
0.013468204911959736139
0.019834372411052039048
0.019773859677047495725
0.01970815350182651346
0.019650363755626121254
0.019597269646155556638
0.019552437626624574046
0.019511542191480268915
0.019477694186139565824
0.019445656258704414193
0.0194176733386151254
0.019389381555338223995
0.019364791999809002204
0.019339618058889569696
0.019318931401519145313
0.019298727536021426793
0.01928304169738516427
0.019266612109112533913
0.019252082239141026648
0.019235131651903925737
0.019218898242765659889
0.019200601844053345746
0.019184593861926266256
0.019166796142283469562
0.019150677201800300059
0.019132587793073103227
0.019116843857650746979
0.019099503652401671194
0.019084404400099810178
0.019067208146794613344
0.019051360825453049486
0.019033213316331041437
0.019016494359010229637
0.01899699643340206287
0.018979727504244047614
0.018960549987380847375
0.018943792809450864939
0.014398324856870509114
0.014387110196138875803
0.01436889061787073249
0.014358146278465296411
0.014340473270867362676
0.014330238600003541993
0.01431286667349353052
0.014302964729348397258
0.014285996872362238461
0.014276318053364000366
0.014259752723344126454
0.014250657317539270827
0.01423441281541200365
0.014225773903158021177
0.014208812090742036632
0.014200314495714754306
0.014182729758863994035
0.014173895053555395085
0.014150827289313893526
0.020833539307871674212
0.020763175131755573499
0.020697316301200807676
0.020640524688757867083
0.020588425755693886415
0.020545059509447516355
0.020505538782350410387
0.020472342794062604876
0.020440111485547942521
0.020411985212571290976
0.020382967913463386628
0.020358275280157395876
0.020334090803115656421
0.020315266114697069777
0.020296978682905478936
0.02028198374518253716
0.02026525316750291475
0.020249161771490307299
0.020230236181664848494
0.020212930951784002787
0.020193660014898768412
0.020176859375607435892
0.020158349525457065765
0.020142174877295013213
0.020123701900471281656
0.020107441268733355216
0.020089406196368148061
0.020073328571090863492
0.020054907404207688443
0.020037909934717330895
0.020017761449012336228
0.019999536851805881088
0.019978762373645073819
0.019960419357961764475
0.015158221504756064571
0.01513836180456485693
0.015126669412142372886
0.015107191192814780484
0.015095934805719404478
0.01507682118064716803
0.015065754681706898174
0.015046833284609083606
0.015035861198850256765
0.015017216568787147488
0.01500664349779077221
0.014988587761647267221
0.014978542929132115935
0.014960750692525432923
0.014951338130283035877
0.014932909154997038928
0.014923755432082758815
0.014904587782115041525
0.014894969854206635204
0.014869651231926137372
0.021961755516385426945
0.021886728906549725304
0.02181996865505355862
0.021757653228161501907
0.021704704440462751353
0.02165629584073386002
0.021615847796507131617
0.021577809706377230892
0.021544997507551472832
0.0215113493112211486
0.021481776055853569335
0.021452022792526028588
0.021427575196274726427
0.021404370944145798689
0.021386001471308573735
0.021367214573544832112
0.021350008697098743493
0.021330170899965097964
0.021311748348210857867
0.021290559858495330947
0.021271725265932038551
0.021251333014112278041
0.021234267896860982427
0.021215130720303947143
0.021198060119680277313
0.021178517082640156005
0.021160725158893150394
0.021140514801219492669
0.021122315270807608123
0.021101162188316147095
0.02108208205841537522
0.021059891234017049516
0.021039699916500086141
0.015916059083749396069
0.015903998599216335325
0.015883376281981626682
0.015871673207446847231
0.015851252064182700524
0.015839445180701135218
0.015818930913365052138
0.015807026555663614142
0.015786756514851923994
0.015775222647120445973
0.015755460973362948179
0.015744526955148326758
0.015725182444038705853
0.015714994994830172592
0.015694949798749229658
0.015685089819989301435
0.015664365417234014238
0.015654011910582386197
0.015626997424163631412
0.023033261345668094161
0.022965556542518424099
0.022902196103017930656
0.022848723569414183809
0.022800298507908916407
0.022759682255788653976
0.022721276719015821161
0.022688189497946532197
0.022654184344756939096
0.022624393741466890945
0.022594175476986232826
0.022569381356739647709
0.022545299912762141459
0.022525837749883172861
0.0225056576927650763
0.022487300735627102632
0.022466356418701285275
0.02244661330370641833
0.022423600433474074473
0.022402839288766032699
0.022380584594811375743
0.022361914123711662539
0.022341387320893434099
0.022322747213873183475
0.02230125857804776679
0.022281110285542679583
0.022258275337281523132
0.022237529133396622544
0.022214248598838959997
0.022193795076569291375
0.022170792299992723301
0.022150256552406991789
0.016733534397040006336
0.016721079918586706503
0.016699162723310612827
0.016686973690463822312
0.016665330912067021635
0.016653042628137694481
0.016631111363280350751
0.016618538477586524554
0.016596519622939561595
0.01658399691773506171
0.016562497137305599859
0.016550826774918574874
0.016529977057908498694
0.016519137061178312126
0.01649751452933462606
0.016486780540262691713
0.016464293387140366276
0.016453113035017331162
0.016425428188601976648
0.024266090109267342279
0.024194716512992250901
0.024130266276025297278
0.024076589287340990214
0.024027513709240319595
0.023985728641657339671
0.023944604688766968348
0.023909131668188331188
0.023873430856951659979
0.023842598523108802372
0.023811783288281498927
0.023785966051952888572
0.023760399912046828441
0.023738022811745161655
0.02371412537862745834
0.023692282248174489911
0.023666984131438726507
0.023643166082630690666
0.023616173588895367219
0.023592155600540364035
0.023566394800588707364
0.0235437469265377744
0.023519327901270852682
0.023496946076301213069
0.023471416240217098104
0.023447827165922446868
0.023421602879728862373
0.023398978958336088402
0.023374489461998042283
0.023353254267333024147
0.017581929586919019942
0.017558629378662492931
0.017545918873709754476
0.017523062547493931107
0.017510385830536906449
0.017487241784321781723
0.017474245606048679352
0.017450806905064123603
0.017437707107047339949
0.017414772545861812586
0.017402549237130103543
0.017380033551719166474
0.017368342852322356945
0.017345072904347384746
0.017333272500296464241
0.017308957778936279875
0.017296870099413413913
0.017268255627151118947
0.025499044272226142893
0.025440241203720917462
0.025386518045146785894
0.025341587162042777254
0.025297590275688758288
0.025260138018288812861
0.025222463558475422679
0.025189979175320873633
0.025156689392249631521
0.025127391960553198402
0.025096835945634062004
0.025069700931601168054
0.025042133436303511823
0.025018710182057188329
0.024992669400322745782
0.024968803842709740015
0.024940638987092807882
0.024914195257650383758
0.024883771496007876106
0.024855606183147461313
0.024826089435950736417
0.024800837138236730278
0.02477356554223280119
0.024748973875699447483
0.024721079726150806122
0.024696376554560115629
0.024669562863868295388
0.024646560865487311676
0.018520957326766673834
0.018497482857320671906
0.01848429595465377398
0.018461113978660154133
0.01844837571666402623
0.018425191396498997315
0.018412524256561882408
0.01838920962357151051
0.018376347540506314526
0.018353177995848044685
0.018340677593125701006
0.018317128014556979115
0.018304610573958091796
0.018280180698322802402
0.018267372158063146376
0.018242092880346776063
0.018229436213056358917
0.018201748680173809869
0.026694242045229635979
0.026643951916250505074
0.026600754733476412311
0.026559129199362405821
0.026524392262828992012
0.0264904635167365482
0.026461632121275082546
0.026431160093045850956
0.026402930823733551657
0.02637208853238982853
0.026344057602452331662
0.026316309962694850455
0.026293136183367569331
0.026268415151998958379
0.026246018374172896959
0.026219713503824845086
0.026194371857392255432
0.026165038319172804343
0.026137241067398554045
0.026108144109596564258
0.026083201946595281628
0.026057313188692497741
0.026034802431570067127
0.026009590600973783725
0.025986574140341240496
0.025959955384381876858
0.025935582037286318557
0.019378229357474831274
0.019353565424101677045
0.019333577088258814547
0.019309410851593745984
0.019289479742957200969
0.019265605225775261217
0.019245790682728823595
0.019221589295422374793
0.019201185583297041698
0.019176360014372569041
0.019154439097944581799
0.019129184023423492778
0.019106025555922390158
0.01908018099264065931
0.019056480393748343599
0.019030395663967077796
0.019006849399800070793
0.027074414437542361489
0.027021810374444586722
0.026976499781905367847
0.026933637175546969178
0.026897510620763277062
0.026863633610572007493
0.026836612725666949414
0.026809461172195018369
0.026785123804677533899
0.026757214719192245339
0.026730931694537999471
0.026703207726186388438
0.026680296323870433123
0.026657414192244457268
0.026639023680130404642
0.026617655629098423142
0.026597988292174065683
0.026573909784905411224
0.026550573044360030461
0.026524404980031980605
0.026501408490798315787
0.026476713203279201442
0.026456081650797866334
0.026434101990117784414
0.026414490963219895009
0.026390754735600464864
0.026367650977341335755
0.019472808337758336361
0.019453477177646789908
0.019416917071626939306
0.019398146747119690558
0.019361775444232450644
0.019343258051780408413
0.019306464087940143626
0.019287069390270358132
0.019248433349310475199
0.019228160285522238881
0.019188259869088758469
0.019167427669882414198
0.019127031681326560342
0.019106350036440435114
0.019055985729795908712
0.019062879923513482289
0.021963949153093603739
0.021927569127565653406
0.021894574346961202804
0.021868390333856398827
0.02184522919817540737
0.021827232499146392852
0.021810128121897850995
0.021796797172169250778
0.021782238998630187865
0.021769915373586880974
0.021754658635297893787
0.021742563703398481295
0.021729996149926291554
0.021721948866373075315
0.02171213814340226464
0.021704769949844493482
0.021693709131388658889
0.021683655206064862686
0.021670906987192477267
0.021659576144316194241
0.021646227146774017075
0.021635477785126599332
0.021622597301331817482
0.021612110039797856331
0.021599991925639282914
0.021588175732814629537
0.021572253644390623761
0.021556115376852952314
0.015513051167706633227
0.015483102421776962637
0.015467426526260198011
0.015437064668441750209
0.015421204254917489015
0.015390290149566856343
0.015373692768713715512
0.015341585374331025843
0.015324597395689875529
0.015291994106953057247
0.01527502885595707037
0.015242643545183828802
0.015226131271819513466
0.01518584956667217746
0.015199988719651304908
0.020396127406558273165
0.020355565513098694552
0.020322718293207486101
0.020292572747984939652
0.020267900636851601121
0.020243742814453916101
0.020223273141272382625
0.020201714196746791558
0.020183266234162038771
0.020163075676073689141
0.020145694958996769597
0.020127658595439242711
0.020113412179205064634
0.020097958228847110501
0.020085121561064490925
0.020069327833165298558
0.020054875531514502335
0.02003773355487035307
0.020022001706129943788
0.020004470640579426199
0.019989461593830980951
0.019972370869802486687
0.019957273315002795749
0.019939806267694759612
0.019922803821384529183
0.0199021730263227066
0.019882324729940802077
0.014591742196595529346
0.014578988952145243915
0.014554082637538410389
0.014540988798253209544
0.014515499961134489121
0.01450185132050780569
0.014475512415661740545
0.014461578564235182121
0.014434925873800264276
0.014421056947084936323
0.014394653902795604208
0.014381242416555391553
0.01434930189237144417
0.014347254861523134339
0.019604935630682523984
0.01957344983372518582
0.019544259747438584573
0.01951988059076857282
0.019495335561397441476
0.019474016131038923011
0.019451982324609699837
0.019433763821459698606
0.01941472730504710531
0.019398563841536015095
0.019381344939454717147
0.019367106009635853131
0.019351527147550083574
0.019338573678200153549
0.019322956238173715632
0.019308467506324131224
0.019291045323868622613
0.01927481771327667695
0.019256844130213328359
0.01924118485858831995
0.019223107213887008493
0.019206523451379395317
0.019187298253439538653
0.019168660907301619811
0.01914684889448519875
0.019126457929915692546
0.014050498662227281499
0.014026736544062692186
0.014014122369237904525
0.013989453393330552808
0.013976178534591897351
0.01395113337788980723
0.013937926777664876726
0.013913194962793456327
0.013900468216740602054
0.013876097340607001368
0.013863790928927843468
0.013835197587647058218
0.013831293210801509641
0.018838778461157845018
0.0188108181665422175
0.018787008693408182441
0.018762801046846286357
0.018741679581606544847
0.018720080954333504636
0.018702573202250178525
0.018684832911784410303
0.018670312210315242324
0.01865461831253276484
0.018641251626231904182
0.018626109076652817842
0.018613226066771404454
0.018597725765474183018
0.018583042120972208949
0.018565154686907534703
0.018548230206674815035
0.01852964235129117912
0.018513368961161905807
0.018494812410079806281
0.018477692481098297039
0.018458217783331017092
0.01843951618662639097
0.01841814836207070552
0.018398363612446694965
0.013490365518191719391
0.013478076446477756101
0.013454084077185447105
0.013440981850487447244
0.01341687393289723966
0.013404190945397544826
0.013380808292933980136
0.013368881629348147375
0.013346016522342619287
0.013334538390718391615
0.013307530032311323462
0.013304037815910369977
0.01811391336708313704
0.018090020624366497798
0.018065999225182201998
0.018045006458032315788
0.018023645393754748889
0.018006534777698611494
0.017989671350981784048
0.017976304252374734199
0.017961718838506789825
0.017949048965336562855
0.017934282186878806875
0.017921455910463689881
0.017906110894700698333
0.017891481604507375458
0.017873530589870449681
0.017856375209870361392
0.01783761035057855604
0.017821331682917336547
0.017802998500336935511
0.01778607505908139097
0.01776694959312439398
0.017748941315686148079
0.01772881123963301539
0.017710409279813564554
0.017405413910401335703
0.017383639019972092765
0.017364484938550969056
0.017344682056748470661
0.017328755150986176192
0.017313052098536542422
0.017300930826969290743
0.017287710658789617879
0.017276183009160714366
0.017262220783929076162
0.017249811711705628769
0.017235128858903790705
0.017221420008100035703
0.017204587460112507474
0.017188302243420064408
0.017169987880830361177
0.017153808328495112612
0.017135690386149177167
0.017119202346619503963
0.017100863437526484662
0.017083679397774578085
0.017064388503300539912
0.017046596601585656955
0.016717021630637263208
0.016696020341301676809
0.016679091777860456658
0.016662978102344790793
0.016650747552147491387
0.016637530044509830918
0.016625995576629155198
0.016612185858615409473
0.016599960636709300277
0.016585795857793194513
0.01657283294384407149
0.016557091458223278241
0.016541838669247781873
0.016524130976777368779
0.016507966249464600672
0.016489830491433779547
0.016473645496647051911
0.016456113070212996519
0.016439786188140643325
0.016421242927461460887
0.016403953977742344317
0.016014906959339388071
0.016002308059981970589
0.015991225320221322953
0.015977878793638301824
0.015966050860226132374
0.015952589873273081977
0.015940516739832828741
0.01592584796067352676
0.015911482741299089183
0.015894369749144116738
0.015878468964753821718
0.01586068110173242951
0.015844965756260823847
0.015828128945332670119
0.015812524061467474884
0.015794876977639416699
0.015778514080056996183
0.015374016193101134806
0.015360275158629066103
0.015348056223994195266
0.015333514052332396574
0.015319300914587628826
0.015302235369771101728
0.01528618524351650805
0.015268367102191780782
0.015252679211195354497
0.015235907023043584324
0.015220236881050073011
0.01520264346512719203
0.015186471210239728402
0.014786112772696488951
0.014774110813747715065
0.014759745434959980689
0.014745857572981663219
0.014729454260193916224
0.014714002135060499574
0.014696762698845155723
0.014681378959302453582
0.014664809421524076932
0.014649147187934453973
0.014631603442638699969
0.014615508158504084135
0.0083224571644848806956
0.0082727184193005214724
0.0082562122224993806513
0.0082566108443552378021
0.0082709000134955756173
0.0083356460775468460556
0.0084961402871803464593
0.0086363115118566150669
0.0087312243712235997062
0.0087824290940891978213
0.0088012467869000906434
0.008802221724960408375
0.0087931879101060348575
0.0087480758529437721571
0.0086820294405008102689
0.0086470491933516042266
0.0086382356280714604757
0.0086411273577117996003
0.0086625474986487920048
0.0087442722685738324268
0.015739906091288252687
0.015732936926253913296
0.015735607786128154306
0.015746369558854351328
0.015771223740384858469
0.015794579353316844095
0.015824647403128770662
0.015862320878271218838
0.015895030916791876019
0.015915371118779855081
0.015920004022671178923
0.015913135729740495589
0.015871600891352321411
0.015703387054421043267
0.015351040601399686819
0.0150581824453868314
0.014853117949334719225
0.01473016367893682961
0.014675079361575606857
0.014661467364349612189
0.014664258858226595153
0.014686440106057904037
0.042795124687748639647
0.042475605860253201618
0.042270118329326721029
0.042138042744302682541
0.042046016676510873655
0.041993881395663207323
0.041961547650244679364
0.041940529621300036422
0.041939424500742041035
0.041972415862240410045
0.042014304299249176367
0.042022954429369790974
0.042005566027868902756
0.041914736971711372138
0.041558440511965173692
0.040678943384496096813
0.039819243389212041762
0.039124775993299040766
0.038622361892281902029
0.03830850773224834388
0.038139472564128897025
0.038069237101681377422
0.038044726013702213907
0.038038920452441629672
0.03803809212996186323
0.038036654320802505691
0.20346649919513282168
0.20314523007934887078
0.20299689037494492161
0.20298809033322323669
0.20305086060782662205
0.20313519415714381688
0.20319287270256930489
0.20320714027839442695
0.20317746171890374574
0.20313856089616597056
0.20306280090508913028
0.2029265467915778165
0.20256647083025702827
0.2014956696587917595
0.19969234006291100569
0.19788859428932026319
0.19617581443371173711
0.19474730038058032933
0.19372742928335581758
0.19310922742365840832
0.19281959710917648265
0.19275356858797462745
0.1927574431694795698
0.19278204067554025047
0.19277780197379429383
0.19275541646750121716
0.19268645630010808323
0.19263715209767676151
1.2217935648909037383
1.220453496133674598
1.2195395826972144082
1.2189500800002737169
1.2185795090268389806
1.2182476592456490394
1.2178054212617739349
1.2172366056073773422
1.2166211485370743706
1.2158905634852232858
1.2150829196916903552
1.213896815168292509
1.2113998406706065758
1.2069678139194186528
1.2019728963552858136
1.19694722629410788
1.1924380834033363463
1.1889417705361406963
1.1865413398059911909
1.185152093860569078
1.1846008555913656313
1.1843956666646124898
1.1841100467782867955
1.183692445728989906
1.1829478132370514487
1.1822451016410469027
1.1814025282268489914
1.1805842268504902481
1.179462161355929517
1.1780510160875159453
3.7671191474156473511
3.7593658652330019798
3.7514065417926576451
3.7433723445256519291
3.7352687506479558266
3.7269711047316431696
3.7183322673053442742
3.7093712469987694114
3.7002688980620597192
3.6913458574962447756
3.6828414403329556848
3.6748529193917351954
3.6672403148755567948
3.6599271962294168681
3.6529634991640436148
3.6465570544037770873
3.6408536204752195431
3.6358209730542832006
3.6311794107296364587
3.6265713299479722664
3.6216305755737847605
3.6162317705022481995
3.6103057787299439596
3.603979629128782225
3.5973141946353446308
3.5904470574679807626
3.5834511450604642491
3.5765586473644890297
3.5697750147261526621
3.5632624136879775811
3.556925187495076468
3.5508642684145557133
6.4539023684114802393
6.4394856570693024267
6.4255859629114624454
6.4124225408198052278
6.3997519920814429639
6.3871324071201120987
6.3743844569412715373
6.36173608981374894
6.3495955779743367131
6.3382226940264621007
6.3274459531187288164
6.3168931105280563543
6.3061076570973648714
6.2948728266617921534
6.2833736056096043399
6.2720017363107958275
6.2610400190577850665
6.2503986227009402654
6.2396934412804299086
6.2286197558518709982
6.2171170862711484517
6.2054140382178353263
6.1938014050539544897
6.1824871617506236277
6.1714389283327646396
6.1605260297718640317
6.1495742247732767538
6.1384593816162054125
6.1270374518428720734
6.11538494378993569
6.1035539737373900593
6.0918220755215486406
6.0800250576645646916
10.299000792042679819
10.208234564015423729
10.124610754794632683
10.047210917001887509
9.9747992530141829093
9.9065317762113895839
8.3593565686205799636
8.3425529915685352478
8.3265196196164801279
8.3114337563115636698
8.2967006420275950518
8.2815827751746979857
8.2659203326231995845
8.2502496566869680805
8.2352749315140982844
8.22139286553362858
8.2083611926151522908
8.1952849729677961221
8.1814498880516719481
8.1667267978589759281
8.151577834732176342
8.136701768300850901
8.1225030499842816312
8.1088195353713921065
8.0950358266602808754
8.0806230867124124728
8.0656081194640858456
8.0504392232362729231
8.0356067506925228372
8.0213434871533753068
8.0075310589855543952
7.9938391658009955165
7.9799302940524814431
7.9655190313926214074
7.9505536367964539934
7.9351788760077353047
7.9197843514367463058
7.9045978154628349088
7.8899538265353381661
7.8753711021103214307
9.6053880050821529579
9.515494322655049686
9.4361828916862595662
9.3666054796489532919
9.303962363350885667
9.246423348099074957
9.1930575443448105943
7.5964844961378998889
7.5824340769227038805
7.5699910535075582985
7.5578415711035846769
7.5445365211950576878
7.5298770224120863404
7.5149617561020196632
7.5011365753634100528
7.4886900190450660375
7.4764165149467158855
7.4625700548690483416
7.4459256710569112769
7.4268056452813029367
7.406848518132632897
7.3878816486890910298
7.370717485503745614
7.3547830709241326375
7.3388131471127184824
7.3219539779074187535
7.3045721500049864972
7.2878423644613672394
7.2727660998463159459
7.2595133846293657953
7.2473967479553165205
7.2355692377739879717
7.2233619570988807368
7.2107376037283081871
7.198228256153083926
7.1869072993758233991
7.177800780877086062
7.1714983168954749004
7.1678735213615825117
7.1663214803049788415
7.1661152839813233584
7.1666509983228765535
8.6609235883569856015e-07
8.6776480745890561921e-07
8.6966507143594175059e-07
8.7060826622507666026e-07
8.719390174317072215e-07
8.7277088345130600954e-07
8.7344210693507062129e-07
8.7586167785472829891e-07
8.7673691564035000654e-07
8.8058001152032132937e-07
8.8449416534242563739e-07
2.518299847203437226e-05
2.131755063353522043e-05
1.7950149642884288598e-05
1.505790252414118315e-05
1.2603593855144824173e-05
1.054338571464940257e-05
8.8321168651437399901e-06
7.4250315775527259951e-06
6.2796338681809944421e-06
5.356577089586731141e-06
4.6199598864204707434e-06
4.0380518930198301155e-06
3.5833564679959036688e-06
3.2316795992877071467e-06
2.9612067003284123272e-06
2.7529622320486713067e-06
2.5908581761783744991e-06
2.462124245713617496e-06
2.3570167571340016254e-06
2.270238528507679665e-06
2.1981291020662998911e-06
2.138728206406710061e-06
2.0896295449445144668e-06
2.0500921942125933325e-06
2.0177417781828552543e-06
1.9902570959160772822e-06
1.9637974866619004846e-06
1.9387836941792545189e-06
1.9161477423234805365e-06
1.8991477138588563869e-06
1.8858105273742928241e-06
1.8725453343754314561e-06
1.853201274033807269e-06
1.8269484010282036106e-06
1.7952197288335786463e-06
1.7634149071163402913e-06
8.956617937739353343e-07
8.966119509423464539e-07
8.9739646363605033749e-07
8.9806270277873047739e-07
8.9862010380402329982e-07
8.9925139205598080708e-07
9.0013770303163344257e-07
9.0119655569803873361e-07
9.0249323443690802019e-07
9.037414680146996177e-07
9.0476134252363318145e-07
9.0527766319168833054e-07
9.0578850880203538144e-07
9.0598491847708486509e-07
9.0630207830126116744e-07
9.066512956189232372e-07
9.070206669826330345e-07
9.0876756296934784116e-07
9.0933984154378373787e-07
9.1285503602835805642e-07
9.155473183850703641e-07
2.6579959543976102912e-05
2.2412673856404539307e-05
1.8800487773759408491e-05
1.5716721855065908471e-05
1.3119529805340923072e-05
1.0954572431385326887e-05
9.1623055153732977182e-06
7.6881221865803115232e-06
6.4873236889800299078e-06
5.5223513263242515113e-06
4.758298360002123318e-06
4.1625835538321841612e-06
3.7060215097388521851e-06
3.3609663757969226747e-06
3.100290910730720549e-06
2.9008061773960032507e-06
2.7445353401382408799e-06
2.6205456081411859925e-06
2.5213204543953515496e-06
2.4413594171667647941e-06
2.3741389438351865362e-06
2.314597684595937127e-06
2.2597914656856399329e-06
2.2109522510588033513e-06
2.1686085958258861609e-06
2.1328080509377145132e-06
2.1000189209468746599e-06
2.0696614462781325554e-06
2.0411884653108246885e-06
2.0171873869829822843e-06
1.9957650567058282095e-06
1.9739434969400694399e-06
1.947279287751565887e-06
1.9167728208539621959e-06
1.8841352436580981568e-06
1.853565781748053113e-06
9.4404289096794449473e-07
9.4498492931668054712e-07
9.4535600960030417881e-07
9.4524461345034456522e-07
9.4479818448952735917e-07
9.4461157854011881027e-07
9.4476561921725987322e-07
9.451069421827632884e-07
9.4577559317228564519e-07
9.4644301685621629828e-07
9.4682142683080950216e-07
9.4666755290292685794e-07
9.4602408734733851188e-07
9.4528379462994015305e-07
9.4503505211505772121e-07
9.4490122547831510546e-07
9.4493550253902411189e-07
9.4610735030521965558e-07
9.4643972359421579181e-07
9.4954949634077930196e-07
9.5105603676146341699e-07
2.3885172194277502566e-05
2.0043663971989583413e-05
1.6760189745330513551e-05
1.3989048406504783211e-05
1.1672916994850154369e-05
9.74995764659265511e-06
8.1639510877275540962e-06
6.870793130640943686e-06
5.8344976878678805199e-06
5.0189891425535406201e-06
4.3864427405063059791e-06
3.9010222108927450891e-06
3.530674086952878762e-06
3.2470779152205595873e-06
3.0260169201921772552e-06
2.8527093570456391702e-06
2.7195553416171751733e-06
2.6235293766616494113e-06
2.5566200841229584986e-06
2.5068884456854224432e-06
2.4612768276310399213e-06
2.4150434901581509632e-06
2.3697299159886108392e-06
2.3300001269984214117e-06
2.2956986536046781669e-06
2.2658089772442070428e-06
2.2365133484727064584e-06
2.2076791461320177135e-06
2.1779662510686535222e-06
2.1477641168894708447e-06
2.1145801857682500514e-06
2.0799360930027864644e-06
2.0442823290115317351e-06
2.0117604408508700239e-06
9.9381907960874392682e-07
9.9418168188671038827e-07
9.9394223994115158306e-07
9.9250864685994114374e-07
9.9131348728182337004e-07
9.9083717476439859955e-07
9.9080190675922637214e-07
9.9103017575878100835e-07