/*--------------------------------*- C++ -*----------------------------------*\
  =========                 |
  \\      /  F ield         | OpenFOAM: The Open Source CFD Toolbox
   \\    /   O peration     | Website:  https://openfoam.org
    \\  /    A nd           | Version:  12
     \\/     M anipulation  |
\*---------------------------------------------------------------------------*/
FoamFile
{
    format      ascii;
    class       volScalarField;
    location    "0.00513";
    object      pMean;
}
// * * * * * * * * * * * * * * * * * * * * * * * * * * * * * * * * * * * * * //

dimensions      [1 -1 -2 0 0 0 0];

internalField   nonuniform List<scalar> 
106891
(
98708.418379392256611
98709.155290691953269
98709.924474112398457
98710.726513809364405
98711.562505391222658
98712.433373685242259
98713.340496458913549
98714.285024079348659
98715.266849526902661
98716.286614608179661
98717.333848702808609
98688.885642757857568
98688.915060396117042
98688.956462509508128
98689.007072225416778
98689.061919327694341
98689.115968116471777
98689.166227277004509
98689.212209982302738
98689.255107063552714
98689.297003895771923
98689.340474743134109
98689.388660320910276
98689.444220649515046
98689.508225578756537
98689.58000384971092
98689.657156327695702
98689.736398122040555
98689.814741663183668
98689.890163259551628
98689.961284188815625
98690.026918416071567
98690.085725224664202
98690.136863520921906
98690.180960800134926
98690.220170326778316
98690.256903366942424
98690.292544258074486
98690.327205847905134
98690.360741073440295
98690.393541538302088
98690.427024537915713
98690.462875771903782
98690.501367441291222
98690.540735981470789
98690.577983661700273
98690.610205503049656
98690.635562478521024
98690.653264071559533
98706.427491948590614
98706.945166849924135
98707.492268796253484
98708.068731428807951
98708.674502004869282
98709.309615555423079
98709.974249962426256
98710.668589394743321
98711.392776216918719
98712.146939338737866
98712.931257241551066
98713.746126218684367
98714.59192638163222
98715.469506922803703
98716.379615410784027
98717.323399787725066
98718.301783598406473
98719.314566929780995
98720.362321777851321
98721.435357945636497
98688.944676234736107
98688.981441461219219
98689.028436283508199
98689.081562067352934
98689.136296651355224
98689.189637065603165
98689.240465759197832
98689.289022960219881
98689.336685116446461
98689.385990877606673
98689.440304335817927
98689.502670371439308
98689.574406961881323
98689.654547857542639
98689.739908205141546
98689.825882282777457
98689.908499432742246
98689.985702845035121
98690.056966491116327
98690.122329069170519
98690.181549780027126
98690.234326963545755
98690.281331809906987
98690.32400266067998
98690.363875251932768
98690.401821871855645
98690.438043993824976
98690.472582932648947
98690.506081596147851
98690.540169843370677
98690.576445899409009
98690.615156320476672
98690.654752387228655
98690.69245421422238
98690.725582493090769
98690.752383081155131
98709.703585806113551
98710.272613704262767
98710.870687095404719
98711.49759984225966
98712.153232862590812
98712.837590493712923
98713.550698513034149
98714.292681380029535
98715.063606575771701
98715.863479430627194
98716.692212416019174
98717.549836211648653
98718.436365001995
98719.352240481719491
98720.297880678539514
98721.274180593492929
98722.281971885298844
98723.32117532423581
98724.392450941435527
98725.486973067527288
98689.005632305052131
98689.035412017154158
98689.076589363176026
98689.126701323897578
98689.181818713550456
98689.238523415333475
98689.294634389210842
98689.349483184792916
98689.403718486282742
98689.459359140659217
98689.519736963760806
98689.588287394319195
98689.666794065269642
98689.754175132184173
98689.846218725011568
98689.936730848450679
98690.020456819867832
98690.095371013972908
98690.162444831468747
98690.224060782275046
98690.282284763554344
98690.337877189696883
98690.390377736926894
98690.439249476869009
98690.484272104047704
98690.525637569182436
98690.563812599066296
98690.599637369552511
98690.634379147391883
98690.66956365655642
98690.706252831034362
98690.744235567748547
98690.782147042031283
98690.817979199055117
98690.849637661885936
98690.875582277774811
98713.607372653495986
98714.252641018145368
98714.926069897206617
98715.627482258016244
98716.356888778915163
98717.114425098290667
98717.900194376765285
98718.714181982330047
98719.556263807156938
98720.426110220039845
98721.323379812762141
98722.247559515788453
98723.198495826276485
98724.176086312480038
98725.18089760064322
98726.213670269207796
98727.274472292381688
98728.364239356305916
98729.475195018938393
98689.116547120240284
98689.150189202147885
98689.196550890730578
98689.25204107092577
98689.312126907403581
98689.373233737424016
98689.433627736652852
98689.493541122137685
98689.555161040712846
98689.622072986152489
98689.697638801895664
98689.783155606477521
98689.87671644880902
98689.972909957621596
98690.064540610706899
98690.145914622626151
98690.215426494847634
98690.276045024380437
98690.333168765748269
98690.391074056809884
98690.450719202621258
98690.510050494311145
98690.565932913974393
98690.615957993722986
98690.659646787782549
98690.698667159886099
98690.735623204294825
98690.772490226867376
98690.810150892008096
98690.848574883915717
98690.886816230937256
98690.923242866978399
98690.956171637197258
98690.984281181546976
98716.273879815562395
98716.935262674014666
98717.624053657331388
98718.340091953970841
98719.08334213476337
98719.853904349016375
98720.651897312825895
98721.477369421481853
98722.330274326304789
98723.210389885178301
98724.117125266464427
98725.049704421369825
98726.007145970332203
98726.988777924052556
98727.994098303155624
98729.023327257600613
98730.077072959655197
98731.155518876505084
98732.259883634993457
98733.383481233031489
98689.238288868000382
98689.263538254803279
98689.30544873715553
98689.360927863934194
98689.424461434522527
98689.490670183702605
98689.556352296756813
98689.621185750118457
98689.687401757648331
98689.758503864242812
98689.837372836773284
98689.924854175245855
98690.018726155845798
98690.113432015292346
98690.201838225955726
98690.278345371683827
98690.341899860955891
98690.396787063553347
98690.450428307012771
98690.508795626010397
98690.573027069622185
98690.63975176087115
98690.703569532663096
98690.759933352383086
98690.8075283622602
98690.848594066730584
98690.887070883865817
98690.926011527873925
98690.966229726560414
98691.006720399382175
98691.04567119483545
98691.080939698018483
98691.110608749688254
98720.243326119089033
98720.972935767858871
98721.728425796478405
98722.509892866539303
98723.317565590434242
98724.151744730275823
98725.012652083663852
98725.900165410683258
98726.813729164801771
98727.752300992360688
98728.714667423191713
98729.699520367372315
98730.705930342766806
98731.733269989621476
98732.781685411202488
98733.851851303712465
98734.944170546048554
98736.060220983170439
98737.1944039157097
98689.41438490015571
98689.45133233947854
98689.505177734346944
98689.569664384165662
98689.638377411829424
98689.707606326366658
98689.776772527678986
98689.847373155687819
98689.921580018475652
98690.000892163967364
98690.085348277207231
98690.173277154957759
98690.260942561202683
98690.34319032363419
98690.415528166704462
98690.476676713311463
98690.530028117413167
98690.582583305877051
98690.641224216131377
98690.708274735618033
98690.780200876761228
98690.85000792054052
98690.911591589698219
98690.963051120823366
98691.006979969839449
98691.047995351924328
98691.089632680610521
98691.132846000240534
98691.176155546025257
98691.216491155908443
98691.250857943785377
98691.277684165397659
98723.510239367475151
98724.278631972018047
98725.071092806872912
98725.887800445532775
98726.729053285482223
98727.595207847931306
98728.486456914921291
98729.402575432424783
98730.342913325104746
98731.306408522432321
98732.291790373827098
98733.297607441621949
98734.322854487400036
98735.366886218325817
98736.429959079381661
98737.513090696345898
98738.617031668443815
98739.743563007912599
98740.887867721394286
98689.652499548814376
98689.701209521459532
98689.761950103100389
98689.828884437913075
98689.898192033404484
98689.968348860682454
98690.039235711199581
98690.11132066398568
98690.18500521601527
98690.260480470824405
98690.337398890536861
98690.41415467709885
98690.488103696843609
98690.556568027022877
98690.618038718122989
98690.674182538568857
98690.730036075998214
98690.790982624035678
98690.858911769711995
98690.931114369595889
98691.002172688065912
98691.067134494078346
98691.123973310866859
98691.174054006609367
98691.220268743287306
98691.265026922730613
98691.309082989304443
98691.3512831593398
98691.389362922156579
98691.421348012561793
98727.524239657839644
98728.351556618261384
98729.200822916376637
98730.072251596386195
98730.966022049149615
98731.882192155113444
98732.820573600518401
98733.780657731491374
98734.761569634429179
98735.762336305691861
98736.782005863482482
98737.820029754526331
98738.876185655171867
98739.950910893749096
98741.045257682737429
98742.159914240473881
98743.296680427854881
98744.451458286930574
98689.9351789590728
98689.987395290081622
98690.047371131993714
98690.111227019326179
98690.176502529080608
98690.241993319141329
98690.306909734717919
98690.370651332152192
98690.4333737524139
98690.496282805499504
98690.561034615035169
98690.628156569597195
98690.696397067469661
98690.763720831164392
98690.828699695834075
98690.891766612126958
98690.955207912033075
98691.021355920223868
98691.090817663207417
98691.16185686456447
98691.231170439437847
98691.295776368278894
98691.354184927578899
98691.4061803259101
98691.451775740948506
98691.491324831891689
98691.525900043619913
98691.556620313742314
98730.679859613694134
98731.538911820272915
98732.416844709805446
98733.313764406833798
98734.229783096801839
98735.165005478454987
98736.119429973899969
98737.092910557839787
98738.085130002509686
98739.095771577674896
98740.12455806529033
98741.171643495865283
98742.237516182314721
98743.323042780335527
98744.429442004839075
98745.557165441845427
98746.707429719623178
98747.875867107271915
98690.2469176571758
98690.295184673610493
98690.347923932728008
98690.402403801082983
98690.456918650728767
98690.510154702787986
98690.561570479432703
98690.612131424044492
98690.664611058789887
98690.722097841076902
98690.786238459157175
98690.85608524188865
98690.928244247290422
98690.998733868909767
98691.065202497833525
98691.128359377238667
98691.191401721240254
98691.257880767661845
98691.32942590310995
98691.404506202423363
98691.478599787020357
98691.545849041169276
98691.601206088904291
98691.642527156771393
98691.671502024240908
98691.692542815435445
98691.710731714978465
98734.608760483577498
98735.511727895471267
98736.430534012717544
98737.364979104255326
98738.315089746800368
98739.281109283299884
98740.263485592673533
98741.262787353029125
98742.279743964143563
98743.315171819500392
98744.370049935765564
98745.445376475865487
98746.542160620796494
98747.661515353844152
98748.803491447441047
98749.968738845549524
98751.152849129503011
98690.476927422583685
98690.504391374692204
98690.539960862748558
98690.579994175001048
98690.621205200339318
98690.661618746205932
98690.700626422316418
98690.739247947218246
98690.780268868824351
98690.827183563829749
98690.882931721076602
98690.948583370423876
98691.022332327309414
98691.099621148634469
98691.175323393588769
98691.246115032743546
98691.311948216010933
98691.375977340358077
98691.442780794401187
98691.515482164453715
98691.593133313115686
98691.670128589190426
98691.738187444832874
98691.789978055370739
98691.822496713764849
98691.838391219600453
98691.844662655639695
98738.447175458684796
98739.383905289374525
98740.33447321006679
98741.298895993240876
98742.27748171359417
98743.270930311788106
98744.280291031696834
98745.306982945796335
98746.352539812171017
98747.418517473051907
98748.506229905164219
98749.616552154897363
98750.750133722394821
98751.906393906712765
98753.08522146755422
98754.282190089375945
98690.688999933496234
98690.710714405169711
98690.737755619033123
98690.767681344063021
98690.798570190148894
98690.829457074331003
98690.860564267190057
98690.893551019253209
98690.931667302647838
98690.978521827739314
98691.036279981504777
98691.104520338572911
98691.179972067344352
98691.25770581929828
98691.333179884735728
98691.40407666041574
98691.470720220488147
98691.535525186787709
98691.60159432060027
98691.67082790308632
98691.742103534881608
98691.810875341398059
98691.870728103880538
98691.915804444433888
98691.943526336021023
98691.956139012967469
98691.959853389271302
98691.961969505209709
98741.770490054841503
98742.73343297970132
98743.70984790919465
98744.700141753564822
98745.705222851684084
98746.726417694735574
98747.765341726888437
98748.823566514533013
98749.902494325811858
98751.003099363311776
98752.125817406034912
98753.270883105549728
98754.437416952394415
98755.62500747620652
98756.829761078886804
98690.849901347974082
98690.874815316099557
98690.900806390898651
98690.926431889558444
98690.951824327436043
98690.978626094569336
98691.009656358379289
98691.048472129084985
98691.098067340557463
98691.159247233590577
98691.229865708286525
98691.305652230192209
98691.382017420255579
98691.455709350309917
98691.52552725134592
98691.592008669525967
98691.65667300260975
98691.720884166454198
98691.784967797837453
98691.847858814828214
98691.90663500125811
98691.95711354217201
98691.995784701080993
98692.02158377309388
98692.036480299531831
98692.044555396510987
98692.050481915532146
98744.608109595923452
98745.594560034878668
98746.595091687544482
98747.61068681757024
98748.642729466126184
98749.692774075549096
98750.762256036396138
98751.852289794143871
98752.963495723117376
98754.095871502810041
98755.249137603823328
98756.422128568330663
98757.614241501578363
98758.822067866334692
98690.980773269242491
98691.006683659521514
98691.031584087599185
98691.056342172669247
98691.083413981017657
98691.116346111695748
98691.15872503661376
98691.212732174783014
98691.277637327715638
98691.349678460290306
98691.423853578366106
98691.496324418287259
98691.565595071879216
98691.631753527661203
98691.695431736443425
98691.757100745278876
98691.816602537393919
98691.873146740224911
98691.925714247452561
98691.973088024678873
98692.014011026913067
98692.047549572773278
98692.073857726878487
98692.094458214414772
98692.111669024860021
98692.127298011371749
98747.276862508937484
98748.286802622766118
98749.31202369336097
98750.35389381601999
98751.41390527022304
98752.4932993932307
98753.592834659400978
98754.712678725889418
98755.852365279570222
98757.011298732657451
98758.188216633207048
98759.382434095517965
98760.591011562850326
98691.085835131118074
98691.113128728160518
98691.139511655361275
98691.168499687701114
98691.20476104602858
98691.25185231899377
98691.310533542258781
98691.3783686603565
98691.450642793759471
98691.52239621921035
98691.590606893762015
98691.654880051341024
98691.716116242809221
98691.774937381138443
98691.831188047653995
98691.883859486551955
98691.93179143530142
98691.974650529286009
98692.012928377575008
98692.047355055707158
98692.0786408829008
98692.107881001240457
98692.136472234909888
98692.165294888342032
98692.193827906201477
98749.802699361564009
98750.83660200961458
98751.887098302671802
98752.95543214569625
98754.04255754906626
98755.148934265147545
98756.274474943507812
98757.41854752090876
98758.58039369303151
98759.758759991644183
98760.953009412900428
98762.160682840098161
98691.171887568605598
98691.201546960743144
98691.234327441983623
98691.275548311154125
98691.328615670048748
98691.392850446107332
98691.464055950345937
98691.536679216238554
98691.605945196963148
98691.669570843194379
98691.728026206605136
98691.782959021365969
98691.835127935250057
98691.8840139600361
98691.928497406232054
98691.967872694614925
98692.002739017145359
98692.034898820638773
98692.066505341674201
98692.099200603042846
98692.134179962129565
98692.172288192698034
98692.213487397442805
98692.255914688430494
98691.242227964059566
98691.280070031934883
98691.326478643255541
98691.384369013481773
98691.452504298067652
98691.526028629697976
98691.598805752873886
98691.665831719015841
98691.725281769380672
98691.778207137234858
98691.826639444334432
98691.871540563864983
98691.912680403838749
98691.949629762413679
98691.982873975270195
98692.013927516585682
98692.04513969187974
98692.078816608889611
98692.116548034522566
98692.159174871558207
98692.207112765783677
98692.259937987182639
98692.315489565793541
98691.361359530012123
98691.422962629338144
98691.493493049318204
98691.567991703312146
98691.640494001636398
98691.706323440215783
98691.763699164293939
98691.81341342109954
98691.857211547569023
98691.896117451993632
98691.930622492116527
98691.961506895211642
98691.990481819608249
98692.020089221172384
98692.05288408465276
98692.090943128539948
98692.135357068051235
98692.186421586797223
98692.244276547906338
98692.308381871785969
98692.376458009050111
98691.66120984632289
98691.726234191854019
98691.782380898192059
98691.830069639123394
98691.870628945820499
98691.905459550616797
98691.935858082462801
98691.963595620371052
98691.991456901305355
98692.022717360800016
98692.060058345916332
98692.104866584646516
98692.157398898358224
98692.217300999865984
98692.284400775504764
98692.358374084884417
98692.437479992455337
98691.875641766062472
98691.909607048350153
98691.939386136815301
98691.967681555557647
98691.997939294204116
98692.033562820317456
98692.07694179531245
98692.128963563664001
98692.189236193356919
98692.257054733185214
98692.332047785574105
98692.414210405768245
98692.502427251121844
98691.906259863404557
98691.938944746769266
98691.971237986406777
98692.006762157383491
98692.048886337477597
98692.099821185693145
98692.15979615667311
98692.227766975702252
98692.302706364149344
98692.384403541218489
98692.473209557341761
98692.568457308865618
98692.097245436714729
98691.980510674999095
98691.868238239723723
98691.758789278770564
98691.651013707887614
98691.544414644391509
98691.439651597334887
98691.338835999849834
98691.243956722362782
98691.154933950936538
98691.068907638982637
98690.981936573618441
98690.891319433270837
98690.797342274105176
98690.703471779284882
98690.61348339972028
98690.528291623937548
98690.445784130803077
98690.363703083785367
98690.282105073187267
98692.201700651276042
98692.080154089693679
98691.966990527056623
98691.859859938602312
98691.754708531909273
98691.647957495762967
98691.538411888555856
98691.428260490662069
98691.321888215243234
98691.222809860322741
98691.130925549878157
98691.042261963782948
98690.951822438873933
98690.85702575223695
98690.759408431913471
98690.663601026360993
98690.573615855028038
98690.489703047656803
98690.408671413781121
98690.327441656176234
98690.245658336236374
98690.166094857340795
98692.456730985606555
98692.320608269641525
98692.190415164717706
98692.069655593571952
98691.959797416900983
98691.857632345330785
98691.756649910239503
98691.650918838189682
98691.538690207904438
98691.423408046248369
98691.311571711936267
98691.208457119413652
98691.11397934499837
98691.023078802070813
98690.929776254793978
98690.831479280779604
98690.730763312953059
98690.633371899326448
98690.543628286279272
98690.461250461317832
98690.382024848484434
98690.301904381834902
98690.22007141058566
98690.139329004116007
98690.06480644835392
98690.00226618097804
98692.583573929281556
98692.444548694547848
98692.307749461440835
98692.176511389596271
98692.056227299908642
98691.949479586313828
98691.852021561135189
98691.754860726650804
98691.650210219639121
98691.535740581719438
98691.416017230294528
98691.299680510885082
98691.193349226072314
98691.09678072357201
98691.003933325846447
98690.907920028243097
98690.806392968559521
98690.702776121455827
98690.603712792566512
98690.513903598504839
98690.432579340762459
98690.354701649106573
98690.275487985505606
98690.193662489458802
98690.111909930565162
98690.035839399381075
98689.972007595715695
98689.925115326957894
98692.716040821687784
98692.574635164884967
98692.437161804395146
98692.300453564239433
98692.168591487876256
98692.048869767197175
98691.944756491051521
98691.851399110382772
98691.757859030301915
98691.654284593154443
98691.537815389950993
98691.413980785480817
98691.293404498879681
98691.184012923564296
98691.085611673915992
98690.991276192871737
98690.893355099382461
98690.789172121076263
98690.683027945968206
98690.58271918608807
98690.493236163398251
98690.413317386235576
98690.33692987478571
98690.258623438348877
98690.176830137730576
98690.094207759393612
98690.016751529779867
98689.951690653266269
98689.904344357113587
98689.875933305127546
98692.856174377884599
98692.704620381977293
98692.564849982751184
98692.428183498152066
98692.29095888507436
98692.158046777782147
98692.038229525554925
98691.936128092813306
98691.846421816560905
98691.756077723490307
98691.653499713458586
98691.535347921133507
98691.408274368601269
98691.284512135724071
98691.172907981963363
98691.07316321451799
98690.977535908386926
98690.877745711361058
98690.771354232521844
98690.663134312155307
98690.561609409924131
98690.472187662584474
98690.39325475966325
98690.318124746670946
98690.240637900016736
98690.158845079218736
98690.075334527689847
98689.996437658293871
98689.930315060119028
98689.882883367987233
98689.855243203710415
98689.844626661084476
98692.851144340296742
98692.70021083575557
98692.562090824387269
98692.426658584096003
98692.289512540810392
98692.15597001092101
98692.036348796595121
98691.936174023459898
98691.849489296801039
98691.761814696685178
98691.659942427169881
98691.540216118257376
98691.410127355891746
98691.283343550399877
98691.169866574884509
98691.06930940951861
98690.973161755042383
98690.872253463108791
98690.763938269970822
98690.653775614773622
98690.551365176739637
98690.462362146645319
98690.384580339639797
98690.310649849518086
98690.233877688384382
98690.152080023326562
98690.067830374813639
98689.987804419070017
98689.92069447087124
98689.872857409645803
98689.845528802849003
98689.835693333865493
98689.83730208913039
98699.619405713427113
98699.518193384312326
98699.444437380268937
98699.381347288770485
98699.324194514658302
98699.269854168727761
98692.845353481927305
98692.694957413666998
98692.558025147038279
98692.423154247822822
98692.285574405046646
98692.151135469728615
98692.031267914891941
98691.932304724206915
98691.84773593096179
98691.761955398775171
98691.660678999993252
98691.539860413802671
98691.40769348986214
98691.278983734053327
98691.164441687782528
98691.063408579124371
98690.966762521813507
98690.864963109677774
98690.755322324272129
98690.643879329305491
98690.540798089044983
98690.451966354390606
98690.374913217383437
98690.301714948480367
98690.225408277678071
98690.143595209883642
98690.058764604706084
98689.977794209480635
98689.909976733120857
98689.862003988018841
98689.835112420405494
98689.826106901586172
98689.82847656859667
98689.835810554359341
98699.76513580516621
98699.620491778172436
98699.521210273655015
98699.448559218712035
98699.38589981351106
98699.329100728718913
98699.275170425244141
98692.849516871501692
98692.699655722448369
98692.563485332968412
98692.429012310283724
98692.29130615721806
98692.156487649539486
98692.036614536526031
98691.938539341048454
98691.855260727301356
98691.770458069033339
98691.669520705079776
98691.547918015901814
98691.414443890986149
98691.284647182634217
98691.169532501226058
98691.068289671486127
98690.971543711479171
98690.869382119519287
98690.758935782301705
98690.646689870161936
98690.5433041609067
98690.454682904339279
98690.378112233243883
98690.305367128006765
98690.22938617694308
98690.147603654113482
98690.062385032622842
98689.980888178499299
98689.912707742143539
98689.864609108524746
98689.837913720635697
98689.829388066660613
98689.832113901211414
98689.839637430035509
98689.848774844271247
98709.276913704816252
98709.971086606165045
98710.703251809143694
98711.475534021854401
98712.28987571435573
98713.147337320697261
98714.048719643891673
98714.994169579425943
98715.9822024677851
98717.011972928099567
98718.071754131189664
98690.328182770390413
98690.349602657079231
98690.379453595916857
98690.419766662103939
98690.470612191129476
98690.53005027656036
98690.594477847203962
98690.659228007760248
98690.719965852462337
98690.774568136635935
98690.824232123602997
98690.872369253542274
98690.923146571585676
98690.980104644811945
98691.044523821023176
98691.115682522533461
98691.191670122905634
98691.269827998505207
98691.347336972365156
98691.421797667091596
98691.491233408611151
98691.554301355296047
98691.610579187385156
98691.659918818506412
98691.702335048932582
98691.738927428930765
98691.772758550956496
98691.808253397335648
98691.849179864686448
98691.896438737298013
98691.94692518505326
98691.994716873072321
98692.034348092172877
98692.064061528944876
98692.086939034707029
98692.109104090966866
98707.110168871164205
98707.59233801139635
98708.096333322566352
98708.622604359756224
98709.171613784885267
98709.74396784864075
98710.340567608596757
98710.962620411854004
98711.611669121135492
98712.289495844393969
98712.998173637824948
98713.739885562972631
98714.516979557301966
98715.331394103021012
98716.184938355101622
98717.078676134289708
98718.013516997321858
98718.989758412819356
98720.006164864724269
98721.062088348524412
98722.146642253865139
98690.365418989749742
98690.382722280948656
98690.407654773458489
98690.443434147906373
98690.491285567055456
98690.549933107962715
98690.615533810385386
98690.682979239601991
98690.747657555461046
98690.807298784216982
98690.862820968643064
98690.917488607694395
98690.974958447201061
98691.037348607191234
98691.104480073132436
98691.174843901317217
98691.24701141793048
98691.319577301837853
98691.391360336143407
98691.461547954168054
98691.52939872717252
98691.593910454714205
98691.654211067419965
98691.709589238715125
98691.759655426096288
98691.805439228905016
98691.850360313997953
98691.899129907920724
98691.955166865969659
98692.018244010017952
98692.083470702957129
98692.142850739139249
98692.189351073364378
98692.220816953849862
98692.241204875841504
98692.258305670213304
98710.327724755959935
98710.858298930426827
98711.410725552545046
98711.985788161371602
98712.584177782278857
98713.206530457624467
98713.853495209914399
98714.525875489242026
98715.224672918586293
98715.951105294428999
98716.706662710479577
98717.492970710518421
98718.311879868109827
98719.165153675843612
98720.054644245756208
98720.981582965949201
98721.947002969624009
98722.951271839105175
98723.993258628208423
98725.072359877463896
98726.178384958257084
98690.452997213229537
98690.474624662703718
98690.506634442193899
98690.551568159105955
98690.608922636660282
98690.675057344909874
98690.744629497901769
98690.81277847396268
98690.877080662117805
98690.938127068860922
98690.998381612298544
98691.060392663697712
98691.125153985864017
98691.19178020551044
98691.258585790608777
98691.324548102216795
98691.389349355522427
98691.453267555072671
98691.517073600029107
98691.581105073943036
98691.644933154137107
98691.707797015202232
98691.768851611646824
98691.827272976865061
98691.88351454117219
98691.94039121568494
98692.001934106185217
98692.071053381121601
98692.146897559403442
98692.223789726500399
98692.292778202157933
98692.345767644816078
98692.379917110723909
98692.399014660841203
98714.127030069066677
98714.724759079894284
98715.345337005943293
98715.989674392432789
98716.658467678993475
98717.352216023558867
98718.071356256681611
98718.816376542337821
98719.587937445772695
98720.387001104318188
98721.21474558065529
98722.07266310788691
98722.962218428088818
98723.88512033096049
98724.842666332042427
98725.836034539810498
98726.865716859218082
98727.930650611029705
98729.030116235328023
98730.154427357003442
98690.565219077587244
98690.586114813486347
98690.61561115499353
98690.65741726080887
98690.712244373673457
98690.777325762872351
98690.847629593248712
98690.918215197671088
98690.986265565938083
98691.051319421283551
98691.114486657344969
98691.177357626511366
98691.240630138010602
98691.30367723267409
98691.365210506788571
98691.424438668400398
98691.481531550627551
98691.537536166477366
98691.594167808667407
98691.652990210641292
98691.714722981385421
98691.779209820306278
98691.845460064912913
98691.911974626229494
98691.97808777775208
98692.045423052899423
98692.117170642392011
98692.195378896954935
98692.278693127402221
98692.361629447797895
98692.435750653326977
98692.493019489455037
98692.529839201728464
98692.548913064703811
98717.383365334695554
98718.023815978944185
98718.68694181527826
98719.373768370831385
98720.085049405868631
98720.821269093139563
98721.582690757437376
98722.369548816626775
98723.182174784975359
98724.021119739642018
98724.887187790838652
98725.781561305630021
98726.705502237105975
98727.660458411366562
98728.647473372519016
98729.667405044165207
98730.720511142208125
98731.805698315176414
98732.922252792413929
98734.061141451849835
98690.744720274291467
98690.774289728316944
98690.813953433869756
98690.86572491833067
98690.928225585274049
98690.997687928946107
98691.069394842619658
98691.139372564459336
98691.205702287843451
98691.26824254715757
98691.32776581615326
98691.385086685259012
98691.440602651069639
98691.494482876645634
98691.546752076610574
98691.597794895395054
98691.648553664723295
98691.700725984890596
98691.756194697707542
98691.816374119967804
98691.8818107577099
98691.951847881093272
98692.02474248452927
98692.098723922943464
98692.17366101341031
98692.251096988460631
98692.332374650024576
98692.416510421549901
98692.498912359456881
98692.572189419632195
98692.629211455612676
98692.666310126471217
98721.29198259509576
98721.995872686107759
98722.722983467028826
98723.473973921718425
98724.249246925814077
98725.04901853435149
98725.873467071549385
98726.72282938855642
98727.597585844152491
98728.498422132324777
98729.426266477414174
98730.382040439289995
98731.366795662775985