/*--------------------------------*- C++ -*----------------------------------*\
  =========                 |
  \\      /  F ield         | OpenFOAM: The Open Source CFD Toolbox
   \\    /   O peration     | Website:  https://openfoam.org
    \\  /    A nd           | Version:  12
     \\/     M anipulation  |
\*---------------------------------------------------------------------------*/
FoamFile
{
    format      ascii;
    class       volScalarField;
    location    "0.00513";
    object      rho;
}
// * * * * * * * * * * * * * * * * * * * * * * * * * * * * * * * * * * * * * //

dimensions      [1 -3 0 0 0 0 0];

internalField   nonuniform List<scalar> 
106891
(
1.1471440406179782556
1.1471248320984581692
1.1471100736050987567
1.1470980787264293266
1.1470811240173304224
1.1470622376818464527
1.1470333570775512744
1.1470019550459953361
1.1469669189474751558
1.1469322211211412377
1.1469091907149771004
1.1473313620373031263
1.1471952659310162836
1.147079788249662613
1.1470298833529648519
1.147060437460458493
1.147152083795117905
1.1472659530265403305
1.1473667554945135016
1.1474318124542348674
1.1474500689107174356
1.14741616080784814
1.1473296939493369262
1.1472039183274305163
1.1470656532195420141
1.146946604122971225
1.1468698164496822223
1.1468402005719504633
1.1468483300398493174
1.1468819394698197556
1.1469353383618776654
1.1470071398076073788
1.1470915225479216826
1.1471700915910478802
1.1472196147917890219
1.1472284659539944141
1.1472063780858006155
1.1471761937796458586
1.1471536060012341718
1.1471354828838342677
1.1471056494430786898
1.1470540830622089068
1.1469913429441178643
1.1469462677173554166
1.1469459974843243533
1.146998908068337153
1.1470926625505430962
1.1472077080374620817
1.147329835419271582
1.1482887880548968695
1.1481344043189618542
1.1479997354077104976
1.1478845506714536739
1.1477865536422866555
1.1477040295451563789
1.1476344818292631977
1.1475761915037718808
1.1475295827499747414
1.1474935218098911704
1.1474686016727306814
1.147450701747280144
1.1474400235599684361
1.1474278563267037434
1.1474159263865018055
1.1473958324114117424
1.1473731177133674741
1.147345511590323941
1.1473161255766670674
1.1472948915849785489
1.1471388128864115075
1.1470298975498305349
1.1469685381204601793
1.1469751438756654593
1.1470384305191114738
1.1471296715720318282
1.1472186992510484682
1.1472828122785687643
1.1473062530161473038
1.1472774145156774406
1.1471920204848480296
1.1470621910162051016
1.1469200398155754428
1.146809212332807526
1.1467640059574344402
1.1467908933743524713
1.1468675925278510874
1.1469622857858443599
1.1470544771496355985
1.1471375166537085555
1.1472103130820578976
1.1472683977093596219
1.1473023174514151989
1.1473064686606688767
1.1472872522846362386
1.1472622894800716953
1.1472452479391019864
1.1472316626300254061
1.1472048430915815498
1.1471551423443464568
1.1470926803069507738
1.1470428602017499475
1.1470301637743416379
1.1470651427079725515
1.1471415792369663578
1.1472467260988947757
1.1486836303882912436
1.1485314612955039859
1.148397954895036932
1.1482822694623542326
1.1481827699509932206
1.1480959753255086664
1.1480193716962669992
1.1479525636755267826
1.1478961608432975972
1.1478522340080521413
1.1478223702495784497
1.1478051090404097767
1.1478008406149811105
1.1478008346548973506
1.1478046061062598948
1.147802212317845294
1.147796488206002552
1.1477842034875864741
1.1477662668149022362
1.1477506426138124329
1.1471166181838865494
1.1470163183753072644
1.1469322267546715466
1.1468961970733340117
1.1469156323057767555
1.1469757146979056017
1.1470506336899457533
1.1471142805343996773
1.1471427286566586723
1.1471171921076177558
1.1470305513605030256
1.146898107099986408
1.146761165670830529
1.1466745211325883869
1.1466799119786621475
1.1467813230203189878
1.1469393677371209073
1.1470968219265067489
1.1472118980304102376
1.1472749822595296187
1.1473022920727309337
1.147316542954623042
1.1473291031606285273
1.1473393413027537235
1.1473448245421908886
1.1473447643361880388
1.1473401161755687472
1.1473280089594792841
1.1472991254481637036
1.1472505228905935937
1.1471952721822464838
1.1471544565852438424
1.1471448680375631035
1.1471727690445865377
1.1472357906201040567
1.1473277519911355693
1.1489188352509738245
1.1487941013819278346
1.1486833914390799372
1.1485827860211057505
1.1484902474469984579
1.1484044123433538864
1.1483260104012977809
1.1482589711201856009
1.1482068589577856255
1.148174874840089732
1.1481634627929089287
1.1481737715862296856
1.1481959419835641167
1.1482270711408912867
1.1482535863056555492
1.1482750646379320525
1.1482845253014333231
1.14828059829335416
1.148269962548611689
1.1470222150988478305
1.1468998776563181785
1.1468038956409736251
1.146767295726506708
1.14679311048284438
1.1468580472202005716
1.1469265227710299104
1.146963315022243135
1.1469436605060332468
1.1468619272874200909
1.1467390526517853289
1.1466231038765928307
1.1465746345030320974
1.1466388856600022716
1.1468148625014360498
1.1470475545370502068
1.1472557654405917127
1.1473772593066473569
1.1473997983671095913
1.1473602985070741056
1.1473149207464241606
1.1473038879055221795
1.1473342539588380351
1.1473850582003726206
1.1474270676654905188
1.1474405896225772228
1.1474219689524134402
1.1473794917148427697
1.1473268457758183381
1.1472805609298846186
1.1472571337287773563
1.1472670201275272372
1.1473080780298741121
1.147371906496710281
1.1493937284984343528
1.1492779569670630302
1.1491704317793496326
1.1490694993961869663
1.1489722806424564894
1.1488762831001633202
1.1487828575462566416
1.148695740913074248
1.1486203996150423645
1.1485642202698100878
1.1485348710638136893
1.1485349223983303268
1.1485661028166391784
1.148617844136308408
1.148683362071526215
1.1487457682486010846
1.148798842980102819
1.1488315252480809647
1.1488402769701844264
1.1488305437376162832
1.147036547907203996
1.1468684831444861949
1.1467102326027083237
1.1466180922736015635
1.146611062982619611
1.1466674448551044119
1.146742006381862744
1.1467907937666683704
1.1467865551587907991
1.1467271488808994384
1.1466371930955139291
1.1465633847767313647
1.1465614558705101711
1.1466719963295175511
1.1468923413086249408
1.1471656408722621379
1.1473994397243612031
1.1475155765955913356
1.1474964784815042673
1.1473937396264053401
1.1472932168042335732
1.147262662641632458
1.1473163031051285543
1.1474149819376753268
1.1475003283880489402
1.1475302683308408191
1.1474986385726899663
1.1474327900546559267
1.1473693150093937643
1.1473330991087895558
1.1473347206234985052
1.1473749748451542718
1.1474430505553732118
1.1495645223028096993
1.1494828756498292055
1.1494019360798637397
1.1493190698224309276
1.1492317661195956546
1.1491420078428673524
1.1490563855991013931
1.1489845813797459062
1.1489364407388584777
1.148920823696779614
1.1489406591790540801
1.1489974601651697927
1.1490799887735125839
1.1491782950349533898
1.1492715886949345094
1.1493488609611834939
1.1493968168442649791
1.1494092786238929715
1.1493923878881258105
1.1468221764547825714
1.146625222030793978
1.1464962113957262169
1.1464647209258831406
1.1465118683803938726
1.1465889891902227848
1.1466507115966240171
1.146675696923864507
1.1466659198374351547
1.1466404331132262762
1.1466310209424153133
1.146674368739369676
1.1468000228142669616
1.1470116638495537753
1.1472684815618114929
1.1474896034777841702
1.1475947058393773936
1.1475571780074056427
1.14742590768283792
1.1472960756987014008
1.1472514454089186575
1.1473139904192826144
1.1474367160209297811
1.1475434123160237476
1.147579825149048105
1.1475403831705719426
1.147460810365423578
1.1473887486439582339
1.1473605752912676703
1.1473885802653991384
1.1474602359953565145
1.147552673988071481
1.1497282840225873102
1.1496802552316627288
1.1496298810449780969
1.1495757075081078913
1.1495161211313964511
1.1494529727963820331
1.1493933826151117028
1.1493480601222512139
1.1493279864549728053
1.1493423524642925049
1.1493924455401869356
1.1494772659939400672
1.1495840203701155335
1.1497001436924465523
1.1498043236376198628
1.1498838561250515067
1.1499275334606264831
1.1499298755057276722
1.1498983593146741011
1.1465948475550109542
1.1464624666821965349
1.1464189548201597635
1.1464508571506453194
1.1465209414319124104
1.1465957485861482112
1.1466606352828629944
1.1467171913966356378
1.146771270922054109
1.1468292780181108537
1.1469024614064351475
1.1470078491428825629
1.1471571882112687746
1.1473390329172166169
1.1475080262082137939
1.1475998837820811094
1.1475799743202861336
1.1474754277482344111
1.1473605499538555019
1.1473088931802764012
1.1473446459587244295
1.1474353923132742938
1.1475213911587369697
1.1475572059944953995
1.1475352888044976218
1.1474818938120521228
1.147435553881389847
1.147425819305188277
1.1474608576219895717
1.1475301845509742193
1.1497608600425248682
1.1497546656170081203
1.1497466838856869042
1.1497364729132570904
1.1497266961588574752
1.1497221588669925829
1.1497294378847304763
1.149756051170148341
1.1498085058391362967
1.1498859459179622267
1.1499847149081354747
1.1500918046792631966
1.150196707973767607
1.1502812280607415119
1.1503350703820909295
1.1503505932500661668
1.1503258401917837439
1.1502712294770121026
1.146547570241890579
1.1465037507997775101
1.1465227089537022298
1.1465863469261261542
1.1466739417624647324
1.1467756152572641248
1.1468889071598802332
1.1470064374866246748
1.1471110187706112793
1.1471874682050759997
1.1472404350818354857
1.1472950155135797079
1.147373622575224017
1.1474718803840304737
1.147558642183740929
1.1475957854061096253
1.1475673838199658139
1.1474936248689315832
1.1474175406766327079
1.1473775872753422256
1.1473857383240742003
1.1474269589598082852
1.1474779524311735646
1.1475270516711058022
1.1475705844390380328
1.1476023435580471332
1.1476179099342447287
1.1476230230576849323
1.1497583138916822598
1.1498116468172554505
1.1498694227207786334
1.1499305589518358239
1.1499938752616742921
1.1500593823616322986
1.1501295218950291499
1.150206280148786897
1.1502910408553588262
1.1503799737936097891
1.1504685865304131731
1.1505449547338268967
1.1506016726444827647
1.1506293982735322778
1.1506263022414697783
1.1505932389738169341
1.1505320991620098248
1.150455955795521179
1.1467119259301010725
1.1467331926667425623
1.1468006918924764648
1.1469032860704511112
1.1470289404554487867
1.1471660088366610886
1.1472953485534895801
1.1473898824483166337
1.1474298898817121284
1.1474197595500903457
1.1473908832829362581
1.1473867287072319066
1.1474348436353523084
1.1475269346360008615
1.1476193995756729382
1.1476589252953655063
1.1476182018598559686
1.1475125129908878563
1.1473915692083203055
1.1473155583809062641
1.147329511595302165
1.1474427425685134185
1.1476196277191512696
1.1477970647001067839
1.1479171316212899434
1.1479480671117674451
1.1478930854513871296
1.1498406619204009083
1.1499607128569606651
1.1500881815439363276
1.1502196265648640949
1.1503508886316162751
1.1504767055375648699
1.1505905520856853919
1.1506873248916364982
1.1507602248597077477
1.150806790622520559
1.1508230522242128835
1.1508112511736587891
1.1507725109020243703
1.1507118547041514933
1.1506368647062517052
1.1505518844446214199
1.1504693688154921105
1.1469425033980864548
1.1469635994337152862
1.1470140976594187521
1.1471015008107467992
1.1472190901920025219
1.1473502024667645571
1.1474720174792496508
1.1475589715868070861
1.1475907199828832006
1.1475628147226559772
1.147494034103809124
1.1474245555538904462
1.1473985121933991671
1.1474409612775260392
1.1475406632181894828
1.1476507698519755607
1.1477117657700961484
1.1476847076040661566
1.1475765737331293792
1.147443726305650058
1.1473668812742825462
1.1474109472144891075
1.1475915789218056329
1.1478619321557430588
1.1481304592085050942
1.1483043404588588743
1.1483316051627119325
1.1500103214813806041
1.1501732938349316093
1.1503392670551804144
1.1504986108638697306
1.1506408847527647143
1.1507549154214640197
1.1508330499361723032
1.1508702421219794143
1.1508686317976744018
1.1508319342549435671
1.1507689134842569167
1.1506885503275565696
1.1506004208514220011
1.1505144842271075589
1.1504341581545993733
1.1503679820703431869
1.1470279457515859534
1.1470967415803385858
1.1471865381460262245
1.1472984160887282901
1.1474236021443200428
1.1475451687372446585
1.1476387879309113416
1.147679627460763907
1.1476553375735534246
1.1475771473044096282
1.1474802309667890832
1.1474106953407281484
1.1474037641190852899
1.1474665201280525029
1.1475733919751838208
1.1476789766913293445
1.1477402205896962695
1.1477357500348046582
1.1476768759522675278
1.1476066407863301233
1.1475855920736868221
1.1476625729496425787
1.1478476783837514574
1.1481021453171085245
1.1483498356404902019
1.1485091871111845485
1.1485328513854620169
1.1484277274312650885
1.1501286915139488087
1.1502853845539684485
1.1504342072434845523
1.1505615611763304607
1.1506546555088079664
1.1507059580860059533
1.1507131691397132212
1.1506820581256371749
1.1506216589521385263
1.1505452669523941189
1.1504651674507406778
1.1503908451109230437
1.1503297607674298764
1.1502805386958703249
1.1502465126836833864
1.1471228126361161515
1.1472402255175768726
1.1473734738615144479
1.1475057139061604072
1.147616142560699215
1.1476816044894504465
1.1476846261542861249
1.147624636304577006
1.1475261331243602481
1.1474332259784123522
1.1473898684236836232
1.1474171619206403605
1.1475039926472214713
1.1476156638154748624
1.147714427345629673
1.1477767672499952223
1.1477996340444236445
1.1477979680672074636
1.1477991516104595338
1.1478346406858048745
1.147930156781073574
1.1480887955132568212
1.148279165733328222
1.1484471786443746222
1.1485443325730044783
1.1485473486502473239
1.1484648472484026982
1.1501523400982240908
1.1502801714174502035
1.1503858412547662837
1.1504556179165108531
1.1504829435055781151
1.150468105468456681
1.1504202297308108172
1.1503526602781486421
1.1502808729388427356
1.1502187408215793774
1.1501731884957864249
1.1501477010905702958
1.1501361765643907109
1.1501355991313657601
1.1471974264756121809
1.147345338605777032
1.1474838741217634475
1.147584104549844275
1.1476244006890445881
1.1475975924198913436
1.1475176284531796167
1.1474223206332763159
1.1473601577684282571
1.1473655577581407528
1.1474400309925518737
1.1475547560478065456
1.1476716856566895331
1.1477658826269609982
1.1478342900966185258
1.1478880863383091882
1.1479410412766102301
1.1480027861947481593
1.1480798704602934723
1.1481754975840543498
1.1482833955241082968
1.1483845086573194472
1.1484518143175004301
1.1484658057614847149
1.1484282855859593298
1.1483581167084793151
1.1500487430972221592
1.150134208902221955
1.1501851094275283849
1.1501958110715000405
1.1501687759559771074
1.1501159927363069357
1.1500540500486322593
1.1499995923404258136
1.1499654080790744359
1.1499547699300272097
1.1499670864230620015
1.1499920931782814382
1.1500221193244857254
1.1472369649130120806
1.1473808752501057917
1.1474757652083868997
1.1474975547597450198
1.1474491161026207919
1.1473620638753405654
1.1472867546630132196
1.1472706385748596691
1.1473340130898450617
1.1474598694391118237
1.1476058499845191996
1.1477336456088860217
1.1478307472502491393
1.1479103529922953797
1.1479919281451498314
1.1480836976108170777
1.1481799006696813414
1.1482686729517446178
1.1483396111657055982
1.1483840746698945612
1.1483942325760698733
1.1483650409799190939
1.1483005346683881065
1.1482196581007040326
1.1481495314641680938
1.1498420879860606902
1.1498803867342057838
1.1498837268388160116
1.1498567599169564613
1.1498122018387406662
1.1497666771575572042
1.1497354090021227879
1.1497292491793367208
1.1497491246374367257
1.149791985941517547
1.1498449391395277885
1.1498976404169620746
1.1472202232002841615
1.1473132132126531157
1.1473248209625539484
1.1472652362401316584
1.1471809663173235805
1.147132475979589783
1.1471637810842192362
1.1472812259050060302
1.1474533431053153265
1.1476310671333893598
1.1477781228696695148
1.1478898007910236512
1.1479865596848273235
1.1480892197950165468
1.1481989272522232781
1.1482982454410155526
1.1483658431803198674
1.1483896476065762471
1.1483678057934016969
1.1483026417446111633
1.148199958550585098
1.1480750539921078524
1.1479559758914716916
1.1478751131168223321
1.1471185085678472504
1.1471272244986527866
1.1470691370577867918
1.1469969090292466696
1.1469738816366328304
1.1470415448790061141
1.1471990572991124235
1.1474069697176467741
1.1476137558277903494
1.1477864952681664512
1.1479238511188090133
1.1480441154602671894
1.148160768760208672
1.1482665857116580721
1.1483394108511990606
1.148360600863266745
1.148326591819256004
1.1482449860308525658
1.1481248798877765616
1.1479749683380386927
1.147811361394479146
1.1476634276857868855
1.1475658734076914502
1.1468664570722009177
1.1468139449031837795
1.1468140164992715047
1.1469042257606720803
1.1470830657485977522
1.1473125846882257228
1.1475433832278316704
1.1477438340251207016
1.1479103175300979789
1.1480531480149995804
1.1481751334019194566
1.1482624218225581103
1.1482939006997050502
1.1482598103552537072
1.1481688681753121628
1.148039150558449295
1.1478840438779358557
1.147709773095042296
1.1475267975592398084
1.1473598955173225367
1.1472435351614715948
1.1469461086776970848
1.1471817355708620045
1.1474256702379361794
1.1476475360378615154
1.1478376159278960156
1.1479958090725497222
1.1481153941219082171
1.1481783235624398731
1.1481673517001460549
1.1480829452575913585
1.1479457470123231033
1.1477828775483431833
1.1476098804006504839
1.1474283159098273011
1.147240184285023723
1.1470631289298283129
1.1469306444089855113
1.1476997534756059327
1.1478622816325534384
1.1479727659665894812
1.148011362261855739
1.1479658525386842172
1.1478457621307123215
1.1476806073678809117
1.147502677615543476
1.1473273624024753481
1.1471508006145239023
1.1469666217446821133
1.1467864194347903162
1.146643276924392385
1.1476577760092379066
1.1477523460294227764
1.1477691855273826071
1.1477013228600243533
1.1475646335032350098
1.1473931730731978806
1.1472197220334470202
1.147056557751878314
1.1468944959617164425
1.1467213251070866864
1.1465445475824198596
1.1463972069867540693
1.1477860602843372728
1.1481691038263963645
1.1484693833337988877
1.1486983004049460266
1.1488631936593771687
1.1489641940580508361
1.1489918243717649471
1.1489432931426399875
1.1488427855869343119
1.1487369687366977278
1.1486659251237383295
1.148633599934288041
1.1486075171264003014
1.1485437516098380151
1.1484252837286113014
1.1482777237733909903
1.1481407814425554914
1.1480318942972631557
1.1479310300968188496
1.1477953465232426655
1.1470701611533864472
1.1475801560771465848
1.1479928649026494014
1.1483395042943720377
1.1486417424866213199
1.1488930480102292897
1.1490637687326923366
1.1491247720262718346
1.149075216042801495
1.1489594853474454084
1.1488459562608654974
1.148781549126952628
1.14875853822620555
1.1487253162059345435
1.148632056295650461
1.1484725391396615191
1.1482903578284577861
1.1481391005785721582
1.1480387710460440154
1.1479629803742452676
1.1478582709373450488
1.1476778147845747569
1.1453600845657094798
1.1461303726385903001
1.1467808055572623616
1.1472961818864044758
1.1477198200118050586
1.1481091364079012429
1.1484907195208913233
1.1488427200623185787
1.1491037244192210398
1.1492196552905691309
1.1491875197053134094
1.1490676587393715558
1.1489494947664253832
1.1488888071642024968
1.1488712486980512395
1.1488298984155300708
1.1487093902039271498
1.1485130542318451319
1.1482985765853497284
1.1481308885924708107
1.1480328926559955072
1.1479739587376938115
1.1478938184986213766
1.1477360693255593826
1.1474746213761215508
1.1471193469679510368
1.1444226194214328629
1.1452514447370114592
1.1460282591599142421
1.1466637584505909864
1.147141867824447381
1.1475253497233137701
1.1479018760005024191
1.1483072039076838156
1.1487055042511737923
1.1490092039515000799
1.1491425902445344676
1.1491030145895622105
1.1489664995073265441
1.1488404673045995441
1.1487872175340019254
1.1487824727106306089
1.1487432426797090645
1.1486056830958091268
1.1483793556876948916
1.1481338638129920948
1.1479450749849824387
1.1478402006926307077
1.1477867675711799222
1.1477196145590307097
1.1475756821739391267
1.1473205299673452373
1.146959974366493995
1.1465359571969637731
1.145411215918264336
1.1459300555146458844
1.1464739310795819538
1.1469469458391585714
1.1472592609907941164
1.1474165553191226774
1.1475137794343071018
1.147672225292582171
1.1479407804815620064
1.1482631108973666567
1.1485215596886888534
1.148611251111103293
1.1485202857088188111
1.1483337984635386686
1.148172039323006155
1.1481041689550406382
1.1480985053832968301
1.1480583671752020436
1.147909468144164391
1.1476619169207644688
1.1473917614494857364
1.1471791133142292818
1.1470526516964623109
1.1469794018465708785
1.146893408684595661
1.1467326877166696963
1.146463108003798359
1.146091859561299886
1.145666152112119196
1.1452537168157572722
1.1468753887152356441
1.1467835751817547774
1.146785571407971327
1.1468892837538395835
1.1469919303552689183
1.1469828318985182403
1.1468644455736431986
1.1467455499896186399
1.1467596034668094962
1.1469570943680900132
1.1472569730403250343
1.147505062955138655
1.1475739527461368272
1.1474459561065586399
1.1472190975100033938
1.1470278450893616196
1.1469477994117216468
1.1469391362939669321
1.1468899203387332708
1.1467165082357970718
1.1464321757826134718
1.1461248494447453528
1.1458841242111466041
1.1457445214552861579
1.1456735851459922682
1.145601578100134299
1.1454610132431206626
1.1452106440595648529
1.1448505776579240845
1.1444273026506792679
1.1440123889650093414
1.1436659597354073004
1.1461363668373283353
1.1459098079151639471
1.1458203767552370689
1.1458691972201362486
1.1459307196643795379
1.1458748353976000445
1.1456979923614871719
1.1455273997401667074
1.1455111345317021687
1.1457085889875568974
1.1460293473413971643
1.1462959460065309525
1.1463699217845790823
1.1462327983596742875
1.1459937720268429384
1.1457986788370408959
1.1457253631653452342
1.1457267359271934293
1.1456782947428596486
1.1454920712149820883
1.1451860845283312607
1.1448590719674252014
1.1446078867728035622
1.1444691207528088217
1.1444077823712668351
1.1443489892187450607
1.1442195796343452852
1.1439731407568811683
1.1436070773777438081
1.143171869437896504
1.1427473262762239958
1.1423988113889880225
1.142147143240439755
1.1401560306681775003
1.1399357366679661041
1.1399714397327733728
1.1401381640909225013
1.1403356138065527947
1.1406204079704316268
1.1447470958225560711
1.1444960010204952017
1.1443991602850422939
1.1444577747955406721
1.144529936220526567
1.1444742826413853987
1.1442835182426720486
1.1440989113781210307
1.1440816712621075801
1.1442967176405067775
1.1446500808634894053
1.1449443967542052292
1.1450322931616108146
1.1448944451622045104
1.1446484569076857962
1.1444516847274157634
1.1443854087908362782
1.1444003371456978879
1.1443626452981865427
1.1441799762378952465
1.1438717039130075204
1.1435423856626194539
1.1432937995475369597
1.1431637171585831148
1.1431159930557706073
1.1430732312236655535
1.1429584217951238578
1.1427210213895480084
1.1423573783448235375
1.1419208729102940936
1.1414975713381376732
1.1411559845179686246
1.1409152488843647966
1.1407522636704134911
1.1411156617636675215
1.1406807703372372487
1.1404096243616994588
1.1403977343709872372
1.1405044527848775537
1.1406275092526656501
1.1408396389763029166
1.1432704175231120924
1.1430148501984553899
1.1429230588474710295
1.1429958930924217775
1.1430802318931534423
1.1430294867017603
1.1428355615276704071
1.1426467774886712725
1.1426345046529597926
1.142862870403398734
1.1432350308263734551
1.1435463154931222451
1.1436389688175796486
1.1434998804190188437
1.1432522446976427499
1.1430605292666755624
1.1430056128842558394
1.1430338294634467822
1.1430034583336350362
1.142820099727067662
1.1425071338436614266
1.1421745642458205339
1.1419282527628584756
1.1418053444788243134
1.1417670915209741089
1.1417336935205295578
1.1416255474073260245
1.1413907196246073639
1.1410268124290312564
1.140589063352471344
1.1401662938196412966
1.1398280796094713008
1.1395925476985819813
1.1394355511899967315
1.139327262632467308
1.1480124615559648138
1.1478809510430694196
1.1477144911656180781
1.147524949115180215
1.1473208104668177754
1.147121266515281901
1.146933209470615056
1.1467737815595253625
1.1466481175212877019
1.1465575125823592728
1.1465129271156224711
1.1477181901180719681
1.1476326750364798102
1.1474994866081065226
1.1473481636969782294
1.1472104723591463049
1.1471168775109015225
1.1470907270326586858
1.1471371851560363542
1.1472345074109695506
1.1473354881110193748
1.1473895790954127261
1.1473697363213226641
1.1472797348641283754
1.1471458126717732906
1.1470030366203243233
1.146877626515518056
1.1467829495552128716
1.1467241005470660831
1.1467015417909953712
1.1467105671903210506
1.1467435164104391454
1.1467935789150018877
1.1468579290423905892
1.146932055970032005
1.1470016816470525178
1.1470384918123537332
1.1470133387072607434
1.1469203853001430637
1.1467937683884334987
1.1466977239899922569
1.1466922689900191923
1.1467946534781510159
1.1469630819674556665
1.1471173862848800251
1.1471857715901225827
1.1471478799934662351
1.1484502263665345989
1.1484578707652806084
1.1484686106140227224
1.1484823956021092961
1.1484973078288609472
1.1485100290129424128
1.1485150396925130067
1.1485062002098023193
1.1484777268227652769
1.148424576316914747
1.148342828268608784
1.1482320025509518135
1.1480921816213991438
1.1479309336255498764
1.1477519391941475302
1.1475695797319334091
1.1473880066227810648
1.1472239264681818316
1.1470838245555363688
1.1469727600499202147
1.1469039328572365743
1.1476842161378761897
1.1476333787564603206
1.1475108740890263004
1.1473449945688556362
1.147177514797578235
1.1470519080890155816
1.1470003657546716802
1.1470284769048491036
1.1471107051059223902
1.1471984439522870947
1.1472422643499129435
1.1472206888146143644
1.1471490739689598204
1.1470621498049504705
1.1469878818218879335
1.1469358889223151277
1.146901051702652774
1.1468755883661279071
1.1468554188127983995
1.1468410018483143897
1.1468346527077979413
1.1468398589707784474
1.1468604086462637071
1.1468926698190788915
1.1469184668575869157
1.1469063274806663433
1.1468284668910468937
1.146685933753835096
1.1465236981684681083
1.1464181848161467681
1.1464381279915414336
1.1466002197170961363
1.1468511788333899393
1.1470913234525959012
1.1472289182231676374
1.1472319422044485737
1.1489386889250270407
1.1489468923850258975
1.1489488423210123536
1.1489450794908750986
1.1489361296576863225
1.1489217555119823899
1.1489005075202332051
1.1488711338559898234
1.1488317579612867814
1.1487797055075266162
1.1487108136537811376
1.1486220505983646412
1.1485091733320218488
1.1483756640647848624
1.1482211259632810751
1.1480568261606913794
1.1478854861414222732
1.1477232634095015928
1.1475772410720630479
1.1474554720898280102
1.1473724553886230915
1.1475417161545571343
1.1474516900148850063
1.1472943969197344494
1.1471170375714740963
1.14697238356794462
1.1469004388678565309
1.1469103171994812218
1.1469753166604319539
1.1470494448367309914
1.1470903509187411196
1.1470835623251927071
1.1470492472243889459
1.1470209683473173712
1.1470176264887137485
1.1470351559176286127
1.147055303119532299
1.1470610254913200521
1.1470443629146971354
1.1470078306220237163
1.146960023626588443
1.1469120890547757075
1.1468754205030173843
1.1468534710452371606
1.1468313808066163961
1.1467776683765116275
1.1466654102182882724
1.146496926141063355
1.1463194859254020042
1.1462123570930728977
1.1462475870033981273
1.1464457181709595268
1.1467519861212533971
1.1470593327225144797
1.1472656035001620456
1.1494256687519173177
1.1494219688093079146
1.1494047464318837282
1.1493763155735530201
1.1493401607739128778
1.1493002073308071775
1.1492577377753154799
1.1492126857187348055
1.1491634882011423358
1.1491051302386585675
1.1490338260151271577
1.1489430386097401193
1.1488325913978321147
1.1486995516256335303
1.1485534471897329567
1.1483969019195212624
1.1482461622924202693
1.1481090042457320344
1.1479944417228471476
1.1479155282754862633
1.1473365730091942272
1.1473074782876262478
1.147193363445697889
1.147036375012973286
1.1468929508430800723
1.1468081830360143947
1.146799251441026346
1.1468468910468581079
1.1469139300292323647
1.1469700346758264775
1.1470031622212166766
1.1470235687463967711
1.1470525101309723137
1.1471011915760613853
1.1471620547127459044
1.1472152602431231472
1.1472416885866283387
1.1472314216314829505
1.1471844324316466945
1.1471073589311953089
1.1470137027416125175
1.146922024321155309
1.1468465988323452986
1.1467816767390637267
1.1467020744264333487
1.1465796480865724227
1.1464124130213191322
1.1462433230188240341
1.1461455677630609795
1.1461866976018644237
1.1463905558685241193
1.1467116837817008523
1.1470515267709631146
1.1473091229593095353
1.1498561415190782231
1.1498527208374020869
1.1498300405878016939
1.1497917073613446171
1.1497435477216675359
1.1496917503599239918
1.1496409846910300434
1.1495927855412382268
1.1495448433258772525
1.1494926473174891246
1.1494308715782026731
1.149352756646046636
1.1492578226084941839
1.1491429175214136205
1.1490170243646238291
1.1488835247253754712
1.1487576803933201575
1.1486464935425697576
1.1485585788907510807
1.1485027121972168906
1.1470777333865040948
1.1470393055902363688
1.1469335372826110486
1.1468111986785656242
1.1467226616588024335
1.1466986587426759581
1.1467405121277463032
1.1468245724423162812
1.1469217592261062855
1.1470120346887515694
1.1470896411092852407
1.1471599604665574379
1.1472286816851673397
1.1472944672641074426
1.14735037693414621
1.1473855515768751623
1.1473875349009436952
1.1473458282401636232
1.1472589298179645123
1.1471386812714046144
1.1470080532650823724
1.1468912169467870843
1.146797350813317129
1.1467118050610354274
1.1466073373787302181
1.1464740847844054894
1.1463390284774064298
1.1462605694355687547
1.146299989175252998
1.1464805807567546303
1.1467699296046653945
1.1470936737853909548
1.1502043785402902287
1.1501827370417050389
1.1501448765063335689
1.1500965907484264061
1.1500432051270934597
1.1499895767825629722
1.1499376313933000748
1.1498863695829937281
1.1498322721404301561
1.1497721584723517019
1.1497003104783141136
1.1496171128129939465
1.1495211260941615716