/*--------------------------------*- C++ -*----------------------------------*\
  =========                 |
  \\      /  F ield         | OpenFOAM: The Open Source CFD Toolbox
   \\    /   O peration     | Website:  https://openfoam.org
    \\  /    A nd           | Version:  12
     \\/     M anipulation  |
\*---------------------------------------------------------------------------*/
FoamFile
{
    format      ascii;
    class       volScalarField;
    location    "0.00513";
    object      T;
}
// * * * * * * * * * * * * * * * * * * * * * * * * * * * * * * * * * * * * * //

dimensions      [0 0 0 1 0 0 0];

internalField   nonuniform List<scalar> 
106891
(
298.79636690929203269
298.79426996050750631
298.79292130083899792
298.79116273635150947
298.78969010925550265
298.78691631941575224
298.78424406708228389
298.78042478799204673
298.77653765891272997
298.77380030491036678
298.7696014638034967
298.81006438734573294
298.79710695569292511
298.78616741509983967
298.78203926942575208
298.78626997560991185
298.79672837283322906
298.80923981594770567
298.82007596770262126
298.82693930850979314
298.82880764660211526
298.82523671965469703
298.81622787579647138
298.80313023429545183
298.78868366917760113
298.77616858990319315
298.7680200565809514
298.76481579815555278
298.76563526019634764
298.76923594206107282
298.77502911110116202
298.78283265260165535
298.79195768728743587
298.800373996949304
298.80556622209076068
298.8063054864396122
298.80368180144483858
298.80020599215833954
298.79759499508617182
298.7954820252403465
298.79206951429932815
298.7862418765523671
298.779168032659868
298.77404882996967217
298.77391095542014909
298.77968321717764866
298.78994151728534234
298.80241599826933907
298.81546625091652913
298.91402147772106446
298.89788224463751476
298.88390045790094973
298.8720806803743244
298.86214209405324027
298.85388730477529862
298.84699917146537018
298.84124286118679947
298.83660996241457042
298.8330375829510217
298.83029842218917338
298.82857716839419027
298.826906029242366
298.82588012505880215
298.82383941989337472
298.82207508249217653
298.81918594408722356
298.81610806958406101
298.8139179968704866
298.81006471631286558
298.79413651020718135
298.78365856028352709
298.77803573606979626
298.77939666024553844
298.78649680156047452
298.7962728410152522
298.80557926566467586
298.81213273793508733
298.8144130976295969
298.81129213603554717
298.80231408435810181
298.78865865916247913
298.77359255529057691
298.76166145887430048
298.75653666381316498
298.75902876401988806
298.76692396363165471
298.77695603323235218
298.78696724301312315
298.7961770254890439
298.80433271003215623
298.81083012301161261
298.81458585401981054
298.81500054786073406
298.81282150048815538
298.80999185538922802
298.80798274819886728
298.80627386081079067
298.8030094895465254
298.79713002006923261
298.7897999406363283
298.78390829503535997
298.78224598209345686
298.78599993609327612
298.79442166032413297
298.80595461575524041
298.95541875156658307
298.93950332670067382
298.92564647268216049
298.91379286458061415
298.90371861596622693
298.89502917247466485
298.88741147675807497
298.88075439237411501
298.87506408432591343
298.87063185009981225
298.86731691362064112
298.86559826545993701
298.8645404377228374
298.86471790592383968
298.86432698811648834
298.86439355063123458
298.86332652460765757
298.8618954376676129
298.86091792100836528
298.85787880012048845
298.7912560888279927
298.78124138582296609
298.77284755594757826
298.76943340324396559
298.77176942364184242
298.77828939494332872
298.7863001993692933
298.79310757813783539
298.79625822266052637
298.79379498759783473
298.78490674724940845
298.77108264605737986
298.75656243780900923
298.74710048549081876
298.74720756669989896
298.75749838811645986
298.77399656869062028
298.79074398909455113
298.80330007096426925
298.81052748801261032
298.8139860354965549
298.81594233539902916
298.81753156781752523
298.81870032498250112
298.81923249988363978
298.81907048684911388
298.81830700769739906
298.81658376461444959
298.81286213963750242
298.80687184877081108
298.80016038979482573
298.79518917033789194
298.7939191184124752
298.79704919417645215
298.80420683669922255
298.81450843843941811
298.98027906967001854
298.96731799772589966
298.95595968313904223
298.94574027053482723
298.93642933113261506
298.92781151529737826
298.91989740378977558
298.91304461575077767
298.90768819951495061
298.9040859259411036
298.90292937462618283
298.90336556497106812
298.90580627059000562
298.90831593156013923
298.91139068459051487
298.91324351432666617
298.91412478599130509
298.91461140990389822
298.91233309106831939
298.78152927207202083
298.76903270036268623
298.75926730265683773
298.75574538717052064
298.75880070486829254
298.76597409104533654
298.77351363081601221
298.7777168425934633
298.77596486480013027
298.7676112310086296
298.7547677301874387
298.74240982194635308
298.73692122291083706
298.74319648649600367
298.76132957189878425
298.78568899026436156
298.80776545212165729
298.82091392041309064
298.82368570010896747
298.81984844936749823
298.81528149319427712
298.81424682732347264
298.81752244611487868
298.82289185595169556
298.82721192714501512
298.8283244053367298
298.82579791638050892
298.82054809562697528
298.8141649635577437
298.80860151222549348
298.80580155954640986
298.80695622595300165
298.81178828945388659
298.8192217406351574
299.03046022648391045
299.01829923854216986
299.0070704469943621
298.99664704373861923
298.9866797145948567
298.97690726708873399
298.96740830699053504
298.95851276016287557
298.95073164290215573
298.94489978701068367
298.94153146080782335
298.94153678928148565
298.94416051111960542
298.94968025512991971
298.95586631530215982
298.96269485517444764
298.96795660651969229
298.97129281086210995
298.97309126897516762
298.97111793901399324
298.78037513488476407
298.76357526764405748
298.74774969316939632
298.73884817241008705
298.73887508391538859
298.74550811837190167
298.75393791692397372
298.75951663871279607
298.75939614328325433
298.75337608657770261
298.74403488727023159
298.736237740317506
298.73582205011251745
298.74711756189520884
298.7699880354653601
298.79857822028526471
298.82316978576659494
298.8354284474488054
298.83338513632344302
298.82243303613381613
298.81169451647650703
298.80844915947022855
298.814257680145829
298.82491420630651646
298.83408282977984527
298.83714717803093208
298.83340591618753024
298.82586974475589159
298.81862352644208158
298.81449762268556469
298.81472729617422601
298.81939699761142037
298.82721865881035228
299.04884784783314444
299.04022251165406487
299.03176134650209406
299.02314827802570107
299.01414245533817393
299.00489741416066636
298.99605505935386418
298.98857261551614783
298.98354616411330653
298.98161199002021249
298.98369915737680458
298.98906517562386398
298.99782696461949172
299.00756447941574834
299.01762432969815109
299.02551795486834862
299.03044945207545879
299.03259157398503021
299.03003033776798247
298.76066928258944699
298.74052802396272455
298.7275342696974576
298.72479083419796098
298.73022501756480551
298.73858990815995185
298.74506597640811378
298.74750808544609981
298.74629705078405095
298.74355436924957985
298.74261279020640814
298.74722410761080482
298.76040155501522122
298.78252586920854128
298.80935406987293845
298.83240190740821163
298.84318118748467441
298.83885039409079809
298.8246066189090584
298.81065347789296993
298.80601772677903227
298.81306695265760709
298.82667277682782014
298.83849386617237087
298.84255267289267977
298.83820721532407561
298.82938081389301033
298.82136447136542756
298.81822417092291744
298.82132615220535854
298.82925874775412467
298.83943301407595072
299.06654427275856278
299.06134215082573746
299.05594742032405975
299.05018841423725462
299.04393146707735696
299.037320151388883
299.03108674073962447
299.02628958222288702
299.02416120773597186
299.0253856563510908
299.03068218052521843
299.03909831738604908
299.05045746624449521
299.06221309856164225
299.0734110011659368
299.08164522095074744
299.08610593577316195
299.08713383321241963
299.0831554905619214
298.73765178486615923
298.72420815758562185
298.72013707304301988
298.72387342773021146
298.73131060490482014
298.73886334769764517
298.74514973743367818
298.75063826902737674
298.75620184152819547
298.76257182365276321
298.77076673911636817
298.78231288874962956
298.79826260284505679
298.8173745473156373
298.83490736949306665
298.84413730121002573
298.84149914017120864
298.83000257204071204
298.81767857335745475
298.81243175654560673
298.81679838030316887
298.82714876637840007
298.83686546978088927
298.84091321674003439
298.83846109067474117
298.83244347936687291
298.82716718134304301
298.82592288518873147
298.82959573517149465
298.83698018959785259
299.07014074738663112
299.06931686147913751
299.06829340274788365
299.06708553930519656
299.06592946108861497
299.0653455782539254
299.06596666913316085
299.06869225672136281
299.07393505677043777
299.08214601560791834
299.09216180929411166
299.10362819086634545
299.11438159927655533
299.12351721561049089
299.12917675930998485
299.13066148800038491
299.12879121440937524
299.12245441238820831
298.73354918552848858
298.7294975701288422
298.73202713299099287
298.7389561423270834
298.747934025318159
298.75801360525804284
298.76928021273766944
298.78134726713989266
298.79257834995058829
298.80124207068826081
298.80750700332811221
298.8136919134586833
298.82199075892623341
298.83196484554315475
298.84047833513909609
298.8437147895656949
298.84018986066172374
298.83217196410589622
298.82425939588716801
298.82044500735645443
298.82180241483251848
298.82653185369963467
298.83205734325071035
298.83717326112173396
298.84160236357729445
298.84479425824059717
298.84631215530993131
298.84671958701096628
299.07004279359779275
299.07550490668393195
299.08137139258616344
299.08759315543142066
299.09400547600785103
299.10066475510825512
299.10778228909066456
299.11572170965143869
299.12438089175793721
299.13384174661240422
299.14294342966121576
299.15126612222184121
299.15715348071711333
299.16034661669408479
299.16015488358328867
299.15652267233059547
299.15075211169295244
299.14217762284340552
298.75082113664336703
298.75389046149535943
298.76166392694028673
298.77270192562326656
298.78568967235969467
298.79963341363435347
298.81288093323462363
298.82283494993333761
298.82740479538682621
298.8267931469676455
298.82398324927646627
298.82335754879557044
298.82784651169657764
298.83678306104570765
298.84581461695142934
298.84950712020827268
298.84507142568907057
298.83407883916726178
298.82163242254830493
298.81392956426356022
298.81563628641714558
298.8277386736350536
298.84652245103904988
298.86535979073505587
298.87812330631055602
298.88139994717192849
298.87545081321286489
299.07867453601880925
299.09116887148439901
299.10437993572736559
299.11791096279000612
299.1314251623808218
299.1443304676979551
299.15613262345300427
299.16607475697009022
299.17387177459016812
299.1786935864751058
299.18075965296168306
299.17962885205275825
299.17585293399690727
299.16973376147876706
299.16170369539236162
299.15334350633668237
299.14411797097261569
298.77528463925017377
298.77769554788648065
298.78344998627699169
298.79314914677200932
298.80583670781953742
298.81961242005093027
298.83212874376931723
298.84089702601227145
298.84397432182930743
298.84095448266799622
298.83371223938701178
298.82628395157934165
298.82316301578981665
298.82698248711017186
298.83671695485577402
298.84768184865265539
298.85382217040171327
298.85110625687440233
298.84016719254486816
298.82673328112309719
298.81911123364511695
298.82405118421200996
298.84323468867569318
298.87181739536197256
298.90021775033420681
298.91863473567133269
298.9215139524277447
299.09643906199960384
299.11347578071996622
299.13068629835856882
299.1471913986506479
299.16184497156513089
299.17369498690430873
299.18173737121753675
299.18580092495915324
299.18567202787846782
299.1821742285156347
299.17577748857144115
299.167592851059851
299.15866259023897555
299.1494944448992328
299.14151646119387351
299.13406184995312742
298.7841843147306804
298.79174623699861968
298.80162053544466971
298.81382010091027723
298.82727472717749606
298.84011240906653484
298.8497856548012237
298.85377612355677002
298.85090354930781587
298.84242148155720997
298.83201389152588945
298.82443373958471966
298.82327224111605801
298.82922501833718343
298.83968391533778686
298.85009254742647045
298.85619111435073592
298.85589552482696263
298.85034144296321301
298.84381027217040128
298.84236157116191634
298.85091603268352856
298.87049863702873154
298.89713977776028742
298.92297148311496358
298.93950839302664235
298.94180741010717384
298.93060135185999115
299.10861355720328447
299.12498078984924632
299.14053338318899478
299.15375668564638545
299.16353104906960425
299.16886017924042562
299.16978943726240914
299.16660915009464361
299.16053513219344495
299.15273163664693357
299.14446539243840562
299.13697474109005725
299.13040633865387008
299.12559819431339747
299.12162490656072578
298.79338563466336609
298.80615714552266127
298.82056899553623452
298.83473180736433505
298.84640589576963521
298.85318330511790919
298.85330694771585058
298.8468068854498938
298.83632401525773048
298.82651228909872998
298.82193525387720001
298.82468027642295283
298.83344728512503252
298.84457154004888935
298.85424767164209925
298.86029410848175303
298.86264063035389427
298.86289905120338517
298.86373574454484014
298.86813377378723544
298.87855055894613088
298.89524057054200057
298.91499997389843202
298.93231327921500906
298.94222309390141845
298.9423503056174809
298.93362042995221373
299.11091550748523105
299.1244288655134369
299.13554421834970753
299.14301953845586013
299.14594628966017353
299.14458467530238295
299.13966960749621649
299.13274972132120411
299.12539198297690746
299.11889057628701494
299.1143698273941709
299.11151898490260237
299.11056980080104495
299.11021787373283587
298.80144720832976191
298.81740089664367588
298.83220068411202419
298.84277230703719397
298.84689319673270802
298.84390428720803357
298.83537539929432114
298.82537254016153838
298.81903836437919608
298.81993606537832875
298.82805257908427166
298.84014573106406942
298.85211057477317809
298.8614298410570882
298.86805234598261904
298.87341638213985107
298.87905047754361476
298.88582295549360879
298.89415712301928352
298.90418791635374873
298.91523763818491943
298.92543589262822934
298.93211958786992
298.93336212632306115
298.92938563736350943
298.92215222214360892
299.10008521595796083
299.10923750632156271
299.11487608275257344
299.11617374040537243
299.11356155540755708
299.10816221505558588
299.10175313248669227
299.0961726846492752
299.09249552695371221
299.09157745768027326
299.09267455350186538
299.09546510482306303
299.09844516066385722
298.80533171017327732
298.82067951370822811
298.83066072081703624
298.83279587768066676
298.8275030672880348
298.81824670579430858
298.81044781968910229
298.80915696350854205
298.81644380778971026
298.83031312925504608
298.84605156950732407
298.85947143000407777
298.86930786544826333
298.87717416191748043
298.88535460642009411
298.89479613025497429
298.90477981044534772
298.91386792254689908
298.9208646963135152
298.92493137486474097
298.92543248395230648
298.9220195781235816
298.91520525020979449
298.90696131773211164
298.90005494209896142
299.07854585056088581
299.08296569281776556
299.0835873610450335
299.08101639547152217
299.07651754891412565
299.07177531625757183
299.06860775713829526
299.06779664019654774
299.07003738086041267
299.07434738636726479
299.07999009894001574
299.08547765740797786
298.80384603624531792
298.8136150780466096
298.81465159152111255
298.80811216448626055
298.79903553432797025
298.79394253911675605
298.79755893789445054
298.81051755197387365
298.82932762592963627
298.84858082624168674
298.86428209352118301
298.87593474247063341
298.88584575578488511
298.89637214540539389
298.90767766515619996
298.91782661498734797
298.92443830606242727
298.92621248599084538
298.92308568223120346
298.91552937021572234
298.90434948215607847
298.89123227732142141
298.87909349848354168
298.87124007928173341
298.79268037960360971
298.79352927116229921
298.78721648818748235
298.77936658842708084
298.77678180517904138
298.78395259943033579
298.80082476153825155
298.823154660991122
298.8453468277907632
298.86379656677200956
298.87834449920001134
298.8910072992450182
298.90329810177513536
298.91444448311375481
298.92199143544769413
298.92384564205940478
298.91961548772172819
298.91023950689179856
298.89689805848104243
298.88070429540704254
298.86345069766190363
298.84821914812368959
298.83858053731034943
298.76685174417201551
298.76109463738117711
298.76078015735367899
298.76998542848912166
298.78865917912037276
298.8128235816571987
298.83720861048794859
298.858405189373741
298.87601340532734184
298.89117115009713643
298.90422590682766213
298.91367945309622201
298.91716513706109026
298.91349808087011297
298.90354759758452019
298.88931702384195432
298.87240219415906495
298.85364266484936024
298.83425442637269498
298.81686762390592094
298.80505783303590306
298.77370543886138421
298.79823078435799744
298.82378953640966301
298.84713937621023661
298.86724016878469001
298.88411451650591744
298.89708226597178964
298.90418744341161528
298.90346461090723551
298.89479168978778034
298.88026080931069828
298.86278642221230939
298.84416421620949222
298.82473096557191639
298.80480705170845113
298.78626782594290034
298.77258758515262116
298.85251940837150642
298.86996047181742142
298.88210056624478739
298.88678275525063555
298.88256429411319459
298.8702687593383871
298.85291277537993437
298.83394977659929737
298.81516038602950402
298.79631045997666661
298.77682989273165504
298.75793379698563967
298.74302505657215079
298.84833544112080972
298.85897358723616435
298.86150049221646441
298.85501182148129828
298.8410001748926561
298.82297245023227106
298.80445843445568244
298.78694124558762724
298.76963983324657192
298.75135286010674918
298.73282656436293792
298.71742338669758965
298.93994944564497018
298.85108471366186222
298.78747820219666664
298.7437072301042349
298.71438631353862547
298.69419898647481659
298.67772989530493533
298.66113011139680111
298.64420799190111211
298.6298066872191157
298.62053747904172951
298.61543617184395316
298.60984232761683188
298.5982016827842358
298.57848167066390488
298.55411563290670074
298.53094800404755915
298.51296471572635483
298.50001669260211656
298.48877154721924398
299.134545962798029
298.99235517224201431
298.88301349413046637
298.80516284663201532
298.75509231220053152
298.7255772175437869
298.70698023203397042
298.69027871946428832
298.67051352667721176
298.64896258990609113
298.63090445849178423
298.62035698891924085
298.61584678613860433
298.61093527974105655
298.59893203673698281
298.57777461990008305
298.55139487631214479
298.52601066677249264
298.50555657774611973
298.48988214039985678
298.47597542832500039
298.46064016594726809
299.60363669273465348
299.40020443274755735
299.21921891375399127
299.06359732631449333
298.93837484065994659
298.8470406907010215
298.78781960946730578
298.75274921074804979
298.72943755672531552
298.70668296281775156
298.67966097076123333
298.65150718712783373
298.62964448988714139
298.6186530836532711
298.61574772718205395
298.61214391720307049
298.59984967724307126
298.57716363984968666
298.54894462709711433
298.52216545021968841
298.50081109933319112
298.48431143218317629
298.46931434000219951
298.45229092699628382
298.43148545766609914
298.40706042527551745
299.85159053344909807
299.63485963221449992
299.43678119169669571
299.25758267641981547
299.100502693381884
298.9730586817657354
298.8822592078607272
298.82745956892188133
298.79915916818674759
298.78196741526471669
298.76208855237621265
298.7344545969872911
298.70375572146980403
298.67947031284154491
298.66727630753365474
298.66387654368270432
298.65931541420530948
298.64508164506446519
298.62025872940728277
298.59076732590006031
298.56423100277203275
298.54442400755300469
298.52995837176155192
298.51660399335304419
298.50014765624234769
298.4783391728332731
298.45151396043831937
298.42216215480573283
299.61835309000781535
299.45199939198050743
299.31672495912278009
299.20556431072725445
299.10900551177638818
299.02531505382899013
298.96071344479463505
298.92343501787678406
298.91398114597490121
298.92217313286806757
298.93213151430381913
298.93022488553606308
298.91342119437717884
298.88956268768833979
298.87055976104835509
298.86301406636044931
298.86273539087335394
298.85856971483781308
298.8419276747131903
298.81366511603010849
298.7822898643331655
298.75730205828210728
298.7430244949781013
298.73715056963754932
298.7334223331952785
298.72521296082584286
298.7078998681645885
298.68046148746805102
298.64582666003445865
298.60952258855041919
299.3072439332465251
299.25583906671454315
299.22316515119695168
299.20895911051303528
299.20128464177923888
299.18727101076569852
299.16581534795358266
299.14701802759276461
299.14386404862420932
299.16119690029779576
299.1906449448413241
299.21642026560834893
299.22540085677729849
299.21551104391920717
299.19642347285144979
299.18151509962081036
299.1781417859482417
299.18178738492542834
299.18060871041330984
299.16594886390487318
299.13943821404450318
299.11055252590398368
299.08888345136205089
299.07816373050724224
299.07502921224994452
299.07211402768649577
299.06216571344634758
299.04057579686639201
299.00709036601642765
298.96651337211864075
298.92654063728514302
298.89384962112433186
299.50490039302695777
299.47985908497969376
299.46985816423807591
299.47564833297838049
299.48432002507837524
299.48189286445153812
299.46727458701121805
299.45315598665246171
299.45482685919563437
299.47871480599832239
299.51575124377609427
299.54755577632067798
299.55950481183367629
299.54930160748432399
299.52807916703784485
299.51116971928411203
299.50710572031903212
299.5113143622975258
299.51079888432747111
299.49611130524516511
299.4688146996929845
299.43903818285565421
299.41689395244287653
299.40628857838430577
299.40366259693934126
299.40126200936509804
299.39147420581758752
299.36941078473029165
299.33470779827371189
299.29261009553766826
299.25153021995089375
299.21839468199863177
299.19542941346742282
300.35712712922349965
300.29797630555179921
300.26744173363039181
300.24955306615760264
300.2329982056770632
300.2250881334728092
299.87115447167883531
299.8460911961890929
299.83724752126374824
299.8452489885085015
299.85534438748061348
299.85238388301809209
299.8350616252575378
299.81780191271963076
299.81750125580083477
299.84131175844862582
299.8797910654224097
299.91242449684546045
299.9236565438536104
299.91126175447885771
299.88744980741199697
299.86879425817886613
299.8638750142021081
299.86737811403918386
299.86500364102499816
299.84695778405324518
299.81544137228553382
299.78173219238931324
299.75670803578043433
299.7442907110682313
299.74050221946617967
299.73707211980331522
299.72589863202023253
299.70170897312590341
299.66413750048366182
299.61878468132596254
299.57469967056374571
299.539135713921155
299.5142277188153912
299.49765786072589435
300.26878537768925526
300.20793825202628113
300.16499305662176766
300.15075959988388377
300.15017052389202945
300.15186493250666899
300.16309434542671397
300.25958753988822991
300.23223343099317617
300.22180657006896354
300.22905886530088537
300.23816733899298015
300.23341974724814918
300.21338870735348792
300.19319271115023184
300.19093002748803656
300.21391734459734835
300.25265109570364075
300.28590536668224331
300.29671693564574753
300.28297769145274287
300.25695967567276057
300.23588163983532695
300.22876849754828754
300.23063880738868647
300.22690985033341349
300.20752309563550853
300.17455486411728316
300.13922141233632601
300.11257594441622132
300.09873057182812772
300.09391386104573485
300.08992829292378701
300.07833541698488489
300.05337771340583686
300.01451526274848902
299.96749284856855411
299.9218513093836691
299.88517711960304268
299.85946744038079714
299.84208668778222773
299.82971970881635571
298.88738337886513818
298.87374577233850914
298.85677275042422707
298.83666262069937147
298.815750519083565
298.79409257434105029
298.77475067616950355
298.75747157486813421
298.74361748177568643
298.7349411220693014
298.72854996602097799
298.84942200720769279
298.84220883201561492
298.82957488904202137
298.81471963280654336
298.80106235824160876
298.79186853262041268
298.78964172774465169
298.79497187866547847
298.80559409603739596
298.81652033825412218
298.82238546814733127
298.82033175865137764
298.81079888616477547
298.79662474453414234
298.78156676069181685
298.76839582449480304
298.75848570001033977
298.75234248573025297
298.75000452966321518
298.75097537893566368
298.75443546606891232
298.7596486617131859
298.76631681178412236
298.77401372530107437
298.78131298709371322
298.78527274380843437
298.78278310631458226
298.77312515926047354
298.75980136080238481
298.74958170039684546
298.7489065602582059
298.75976296603971605
298.77785390453692571
298.79467443688116646
298.80245885644069403
298.79882107045182238
298.93182784220846315
298.93262507506756265
298.93375545177491404
298.93519931758777375
298.93681080783363768
298.93823035397832655
298.93889641451767147
298.9381897555103933
298.93546796410089428
298.93016247893200443
298.92195848487978083
298.9104272466475436
298.8961920854412142
298.87901935635682094
298.86070309844075155
298.84089445359865067
298.82226902261083978
298.80453391538503638
298.78929697720730019
298.77845989306285901
298.76959303947546687
298.8483463281125978
298.84439362977076371
298.83251134906004154
298.81578876732720573
298.79869788194423563
298.7858572014283709
298.78068116721539127
298.78378247414366342
298.79249539549573456
298.80171084516967994
298.80623517955615398
298.80385791818167718
298.79629027568404354
298.78726354790893538
298.77972405569806824
298.77460211007002044
298.77124361165817845
298.76874127230394151
298.76664208895806496
298.76501261800717657
298.76411100225897144
298.76432680494554006
298.76610054273538708
298.76915506731836558
298.77170798734533719
298.77052947987226617
298.76266735898633442
298.74809865663843311
298.73140139004561888
298.72055711734577699
298.72286738269639272
298.74022085656889658
298.76708162726248474
298.79287008259535696
298.80772374845008699
298.8080668768481587
298.98283668720551987
298.9836952479147385
298.98393060080530859
298.9835802280785515
298.98273927484609658
298.98135001847498415
298.97927747607792526
298.9763985262069923
298.97248573815272721
298.96723883370322028
298.96032546201672631
298.95105352333274595
298.93960841448966903
298.92535440148151338
298.9095995758158324
298.8917787788853957
298.87427663823274315
298.85680283296647985
298.84110013861612742
298.82911821704090016
298.81881924343412038
298.83504946106705802
298.82667551314142429
298.81083515691125285
298.79260682826202355
298.7776182557478819
298.77013975779124166
298.77118072749885869
298.77797669131791736
298.78573647706565453
298.79005633280087295
298.78947434893325408
298.78617443684794353
298.78369275178550879
298.78391885442687226
298.78625474841476262
298.78863564405293118
298.78921197617961525
298.78719082322186296
298.7829285367635066
298.77739676878911723
298.77178318580956784
298.76733628729931525
298.76453938538725197
298.76198705800436528
298.75648820300727948
298.74518913287312216
298.72815484151578858
298.71014380694111878
298.69937037790083423
298.70343487905159918
298.72458926664376122
298.75712398246980683
298.78972283169025559
298.81149008747860307
299.0337588501446362
299.0334461535218793
299.03172485486197729
299.02887320692030926
299.02520589377877513
299.02114570001094762
299.01682948012194174
299.01223889029500924
299.00719796507087267
299.00131114004631172
298.99382448216334751
298.98468240647889616
298.97289052641195894
298.95941901897174375
298.94364694256864823
298.92775949105742939
298.91158788357671483
298.89697832320587167
298.88572207717339779
298.87590223160441383
298.8140156439226871
298.8114815516404974
298.79964522946715988
298.78313048711470401
298.7679903294167616
298.75904522220889703
298.75815734041600535
298.7633304293875085
298.77068588709022379
298.77706534052424558
298.78120237124318237
298.78412156392516863
298.787938747775911
298.793660936784363
298.8003320617089571
298.80580599475047165
298.80815883206281569
298.80651866719517784
298.80102787356099725
298.79241368460594686
298.78203317406195083
298.77180556758878538
298.76332215356967481
298.75617327691048786
298.7478697205027629
298.73545536531452171
298.7185777620940712
298.70153592723414704
298.69184786183370761
298.69657659055809518
298.71830207518229372
298.75230757776137125
298.7882060759886258
298.81526911694965065
299.07887667486113514
299.07863688869036878
299.07637719579406621
299.07249359724551141
299.06753960150047078
299.06218037889715333
299.05691133456821262
299.05190172925057368
299.04689935357441755
299.0415791660086029
299.03504270014599342
299.02721068725628584
299.01709299456666713
299.00555031053085031
298.99204405263299122
298.97861978337834898
298.96517273361831712
298.95344111043294788
298.94495184931918175
298.93760585878095526
298.78691756169001792
298.78305727388101332
298.77202384079964759
298.75927677820430972
298.75015106970374745
298.7479063239138668
298.75271797823262432
298.76213494633202572
298.77311321359252361
298.78349434535357432
298.79252714475148878
298.80057659546258719
298.80806303101593357
298.81478002139942873
298.82009457890507065
298.82309832303246822
298.82272029936382296
298.81795341073541294
298.80855186671556112
298.79557017685243636
298.78129655744390902
298.76833564331963089
298.75788478530893144
298.74864817020136343
298.73786213318396676
298.72439380130919062
298.71086636065206221
298.70323004099788022
298.70785556159734142
298.72721176345601179
298.75791411740971171
298.79212429528979555
299.1156178614868395
299.11347717372552779
299.10963305777568166
299.10463002469236926
299.09905636564610631
299.09341388783906268
299.08793068775969459
299.08250479370752828
299.07692556788487082
299.07053567773255054
299.06333561262169951
299.05447865539122176
299.04490599206883417
299.03416077971149889