/*--------------------------------*- C++ -*----------------------------------*\
  =========                 |
  \\      /  F ield         | OpenFOAM: The Open Source CFD Toolbox
   \\    /   O peration     | Website:  https://openfoam.org
    \\  /    A nd           | Version:  12
     \\/     M anipulation  |
\*---------------------------------------------------------------------------*/
FoamFile
{
    format      ascii;
    class       volScalarField;
    location    "0.00517";
    object      k;
}
// * * * * * * * * * * * * * * * * * * * * * * * * * * * * * * * * * * * * * //

dimensions      [0 2 -2 0 0 0 0];

internalField   nonuniform List<scalar> 
106891
(
0.01244182525244107336
0.012435264083658288323
0.012423643873185664238
0.012417531058387715551
0.012405539994363961112
0.012399734269876675624
0.012387572485396123809
0.012381547996665033182
0.012368772602976028582
0.012362257827032657395
0.012345295170720712793
0.018029121849420695622
0.018021101099790874656
0.018002136781053140746
0.017959038906125168039
0.017909586052770314069
0.017864917848950737089
0.017822825524138590642
0.017787356741670173887
0.017754388416698962949
0.017726496699432617299
0.017699712422956828672
0.017677305132328725162
0.017654980583405248395
0.01763609765590315806
0.017616087592617447194
0.017598557048249259538
0.01758020194120861121
0.017564853492050048339
0.017549261239164011539
0.017536227763330712592
0.017522348951456868243
0.017510193668262150762
0.017495825785154243276
0.017482909235536376463
0.017468257799043158951
0.017454580729490340452
0.017438183404820908895
0.017423377085775921397
0.017407041610003389648
0.017392508318403377549
0.017375864519032478001
0.017360094801036944634
0.017341653368422943471
0.017324812084417526986
0.017305685004025857243
0.017288765629891202774
0.017270696675020270894
0.017254542168107799699
0.013176627890451694802
0.013162482263540076569
0.013153974042919510529
0.013139390751115215955
0.013130547399934418273
0.013115812273555495227
0.013107290536583602811
0.013093244629965540213
0.013085395344815890784
0.013072107154416989089
0.013064892546934483639
0.013051904326711690277
0.013045260588917445554
0.013032037020810502415
0.01302580218341303081
0.013012593842328303712
0.013005991311604573474
0.012991854616248700235
0.012984644152225895131
0.012965756592902923094
0.018995270847101005524
0.018963802396133704053
0.018908537086001341032
0.018856764650737659755
0.018807630664595609976
0.018765470533115002905
0.018725949068972468775
0.018692542600423758814
0.018661060959715154717
0.018634547749026800223
0.018608405521820182288
0.018586388446480403558
0.018563762717924169043
0.018543900262062221196
0.018522905075199706804
0.018504666846597263991
0.018486103607406094429
0.018470480133883551005
0.018454525901220555917
0.018440859262394020124
0.018425045860708207102
0.018410905000348237043
0.01839515769653941521
0.018381169460476382005
0.018364256246371408327
0.018348511391468449311
0.018330484472981710409
0.01831466898314879424
0.018297499984292083658
0.018282256408264530023
0.018264661079974424396
0.018248913505681783193
0.018230366951554131949
0.018213418675516054868
0.018194604486843447139
0.018177800249877518884
0.01385217182175114449
0.013836381024378308427
0.013826795735173582833
0.013810555067797441672
0.013800722538392125663
0.013784399834114117317
0.013774916475615394187
0.013759347228046349063
0.013750701815791866942
0.013735867459716565725
0.01372781653944497339
0.013713383888406942626
0.013706087016364720821
0.013691514316764833228
0.013684624820927601338
0.013670099341007541441
0.013662863551349050534
0.013647321831017817512
0.013639378251596074448
0.013618486678418686639
0.020057436761124831232
0.020043136996303896613
0.020003968246948871518
0.019939902557865853139
0.019878300755296316599
0.01982455379334735826
0.019774269024671973366
0.019730981148795984081
0.019690910337388321111
0.019657300899419673235
0.019625074643151430714
0.019598063010020580488
0.019570948756547381503
0.019547280422957783591
0.019522564355488426086
0.019501020651703615538
0.019479313454831743285
0.019460779479654900098
0.019441833673864497567
0.019425308332633353658
0.019406875074954040017
0.019390578572489627213
0.01937275658943701101
0.019356702065889748454
0.019337799934619495645
0.019319954045084797301
0.019299682945737715867
0.019281501845145047197
0.019262338613137055393
0.019245932090283184024
0.019228070532496567557
0.019212584796928656311
0.019194110583063406922
0.019176670324137209955
0.019156635441813490289
0.01913850243357236372
0.014544673666280736463
0.01453426064136248419
0.014516567637395741408
0.01450603255289604869
0.014488384608806033349
0.014478205424274748214
0.014461167655230186546
0.014451505359393742103
0.014435138738801618977
0.014426254369090176291
0.014410205358465492248
0.014402020466461409182
0.014385796355491453288
0.014378092142062084621
0.014361959954802914347
0.014353870323089948369
0.014336644797428405376
0.014327908505065401271
0.014305000558444172856
0.021159239020873965575
0.021081959503129066996
0.02100792029255619045
0.020942548156323959052
0.02088128981890688754
0.02082765803877666827
0.020777690750263897584
0.020735328214139866349
0.020695869391631552259
0.020663285084146186532
0.02063175986743861004
0.020604736179153603642
0.020577219616567228588
0.020553040777996731125
0.020528365864575466582
0.020506672087789338393
0.020484658510140488219
0.020465682449237479479
0.020445437179204644512
0.020428027534595660786
0.020409140436786061407
0.020392583369095919343
0.02037354000061780343
0.020355935858106997266
0.020335131850800082509
0.02031528765024802341
0.020293485910168794495
0.020274847204939834555
0.020255633137738190963
0.02024010725936459254
0.020222335180974083946
0.020205904572641063266
0.020185959461070074328
0.020166565030256766722
0.015307463936865876863
0.015288679009715108389
0.015277721904405764872
0.015258847669708417924
0.015247951274020364598
0.01522936706548506415
0.015218710965573865532
0.015200441423682559822
0.01519001918905337617
0.015172000680002973791
0.015161881331210295618
0.015143976983153489141
0.01513465560204392199
0.015116436647289822892
0.015107565365127100313
0.015089274712623527638
0.015080124772928058668
0.015060955017441424175
0.015051352925478048844
0.015026397292950917361
0.022284045332542516682
0.022218342914991792703
0.022144893395552419507
0.022075231260113244158
0.022013475629298669828
0.021955133983489978633
0.021904424127423827162
0.021856812158603036722
0.02181703176289608026
0.021779126044544658974
0.021746764005927399221
0.02171462094568079107
0.02168641724323383535
0.021657841447144218078
0.021632353791246554386
0.021606274665999233159
0.021583050029363875372
0.021558436680696600046
0.021537536399296192818
0.021515963457499332617
0.021497848355102162909
0.021477594214071343143
0.021459417056212730379
0.021438268989102511608
0.021418034361868235754
0.02139473268640268086
0.021373631017091991591
0.021351188768119998274
0.021333065509355882139
0.021313810570543000739
0.021297477448326104094
0.021278171407630549344
0.021259012885488343114
0.016070815749994270261
0.01605954976433872014
0.016039740120698968429
0.016028674175912537708
0.016009206168070763687
0.015998267458924329137
0.015978820676011574325
0.015967622767030592579
0.015947840977042528066
0.0159365131432757344
0.015916460433979026656
0.015905596800093926152
0.015884958224198691967
0.015874694694172762632
0.015853961491318051963
0.015843535468260578486
0.015822141340980016427
0.015811583344979705107
0.015784620520077851519
0.023371181650783823952
0.023300597612118542634
0.02323107053189559304
0.023168669571528344858
0.02310991895918961328
0.023059148877100487524
0.023011362933557044652
0.022971346659859576828
0.02293288563376223721
0.022900055039922238148
0.02286718899423727594
0.022838536466270823594
0.022809518536170199365
0.022783530022865160908
0.022756364863599019832
0.022731532003025627098
0.022705135275821082541
0.022682648023728504971
0.022659492397928013285
0.022639687707228760283
0.022617637508355763198
0.022597418652933416727
0.022574288275999991604
0.022552279434759400084
0.02252749619886578944
0.022504981959844919115
0.022480952877857906386
0.022460991402038568698
0.022439767603805647195
0.022421699130889042456
0.022400850320961285256
0.022380631292102010771
0.016894172556984898143
0.016882786136740376287
0.016862122171997399184
0.016850846152603141115
0.016830222792705139961
0.016818934701678767835
0.016798118582833171386
0.016786218102913107175
0.016764674723197071915
0.016752064884672575318
0.01672950566386448637
0.01671679020227015422
0.016693506655785842613
0.016681615210463240917
0.016658518094248057906
0.016646841412385697534
0.016623335045916995401
0.016611747552137737932
0.016583986520347576005
0.024629166711125728695
0.024548994019316778409
0.024473637247003941081
0.024407712194862304922
0.024346529003579218953
0.024294880448149869245
0.02424593504323477311
0.024204082021191512114
0.024163610732042969942
0.024128670791774355781
0.024093984212971705089
0.024063057287354888691
0.024031588294462894601
0.024002928929248934509
0.023972228667354291559
0.023945002330353685333
0.023916690199791222626
0.023892501604580940883
0.023866499721717449045
0.023842743029854816111
0.023815929920258598063
0.023790418850851317162
0.023762266699368018996
0.02373699285902170289
0.023709799182428468317
0.023686120571749163383
0.023660489615744993014
0.023638669664697502942
0.023615390946110807746
0.023594834357402803826
0.017752385988484623014
0.017730607036371578283
0.017718732459288382558
0.017696555334299785001
0.017684494838623814744
0.017661942515585112717
0.017649101402298181251
0.017625609323724564931
0.017611767976090399873
0.017586892443061916819
0.017572724142070162562
0.017547296824700735207
0.017533886211347195216
0.017508663787706511827
0.017495684437121881288
0.017470268143235608005
0.017457629670359915697
0.017428873590386612102
0.025852280501991529993
0.025784133037306682795
0.025719763065988002909
0.025665261664345805775
0.025613073739514269356
0.025568361952852614039
0.025524729792270876849
0.025486982080379198129
0.025449444650939123669
0.025416356443037285001
0.025382483363747900679
0.025351483153884721983
0.025317907093351289111
0.025288338825736351306
0.025257183940188627363
0.025230359820864110137
0.025201348139247414099
0.025175392681508989429
0.025146557601114293695
0.025119001625175153142
0.025087586251444971008
0.025059313731795738317
0.025029365959860831042
0.025003540362302015959
0.02497514330613622574
0.024949833767015996977
0.024922576485073063418
0.024899029353870772568
0.01870115498053938341
0.018679295212235245277
0.018667058090693234434
0.01864388117089504221
0.018630758788143766264
0.018606864464958003391
0.018593029275792923721
0.01856853233903648509
0.018554217068081378661
0.018528662237298314241
0.018514301754139230599
0.018488305966655124019
0.018474306846996489673
0.01844811760322981678
0.018434409664505910925
0.018408051791187818313
0.018394827362730712533
0.018366772080470036843
0.027024173352381077734
0.026966286637843884383
0.026916339987171009063
0.026867866092114570109
0.026825847442279050076
0.026785041572601447912
0.026750122045324991465
0.02671564626261440506
0.026684887443877085278
0.026652617262196757336
0.026622059834128127681
0.026589477342392850434
0.026560992026998617166
0.026531675560240056827
0.026506058691997010784
0.026478390472125724886
0.026453036796296635486
0.026425482361380158575
0.026399719644993525913
0.026371347247747256581
0.026345857556871736527
0.026318341818531994225
0.026293743544390492384
0.026266339308547798082
0.026241618989041620713
0.026214311987706104962
0.026190194990124194413
0.019572511538222443078
0.019548604239157975349
0.019527818871122239186
0.019502041772079703463
0.019479913328588647353
0.01945328152653073156
0.019430799646739944919
0.01940445131797820244
0.019381570987024875768
0.019355774769995892637
0.019332329492011725292
0.019306237905922046111
0.019282330062722161101
0.019255855668127829644
0.019231655710864718062
0.019205183237083516684
0.019181058146577344842
0.027384880243455127918
0.027324993861771482845
0.027273208076298578739
0.027224259630845203117
0.027181921471815778668
0.027140557834837746726
0.0271056191851383535
0.027072236958287313607
0.02704445182670861883
0.027015867085619583304
0.026989549480637555628
0.026960255981382120344
0.026933955015756339685
0.026906136211845531336
0.026883167973605303497
0.026858973537017032801
0.026837945499494853668
0.026814862072679555155
0.026794083558387055133
0.026770702019871750466
0.026750387835538933651
0.026727444853754056542
0.026706130320621565555
0.026681345126365964976
0.026658510769354503561
0.026632249779480549751
0.026608543596311380608
0.019684553120129070353
0.01966373585678045724
0.01962444871258738413
0.019602387488082250594
0.019562455283652368382
0.019540655775144809975
0.019501362927884041687
0.019480552438761993689
0.01944145963235705335
0.019420536227438854604
0.019380724671833961942
0.019359321124272594467
0.019318612135475584507
0.01929752149447210019
0.019245903619910416371
0.01925228782575426692
0.022188126788004771534
0.022144323103931117663
0.022103816057520160598
0.022069981465333548404
0.022039524792747084564
0.022015245642760156858
0.021992310343009784795
0.021974418566657012014
0.02195666415047124384
0.021943528929415975076
0.021928696815790967023
0.02191592851650430579
0.021900413443486050485
0.0218884145840972065
0.021875169777821029671
0.021865569076096224438
0.021854553852941240727
0.021845358322680582391
0.021834257540826511323
0.021825398829376473075
0.021814161541883071715
0.021804770687329892015
0.021792342707082693748
0.02177977249648915814
0.02176449959364106651
0.021750855116304076975
0.021735072756674123778
0.021721137132920020213
0.015675684975697563167
0.015643586659703664216
0.015625909133859521016
0.015593511884326709954
0.015575884046325193591
0.015543510904291169689
0.015526443398921528638
0.015494090537104999658
0.015476773139816678293
0.015444153653107479951
0.01542675244605999467
0.015393815065980805817
0.015376948439178561231
0.015335662690326358482
0.015349553345193405265
0.020628989081580464959
0.020577987495786768252
0.020535574538230322306
0.020497264770729672206
0.020465904696266499357
0.020436356895238632497
0.020412197116666520175
0.020388331608044565207
0.020368852628489038381
0.020348726441175916252
0.020330866861114165606
0.020310453765447423341
0.020292574783710687347
0.020273353331511017456
0.020257949017643720607
0.020241772615243094208
0.020228125444838249147
0.020212806394353920875
0.020199187366867810828
0.020182838729686087414
0.02016812057627015084
0.02015058480902947452
0.020133715855266402783
0.020114310284523380379
0.020096668089339464469
0.020076790495972031414
0.020058792332646235845
0.014741548653047754913
0.014727142185838856814
0.014700756550945064463
0.014686493654618949442
0.014660013054853449424
0.01464597032163411118
0.014619496478606922377
0.014605312862995706649
0.014578762370952260546
0.014564704013664445809
0.014537879921997820185
0.014524195324637901791
0.014491517422975984733
0.014489048409765770825
0.019819014742402964874
0.019777700268225239383
0.019740400877270178337
0.019709979786482850067
0.019681297122853793485
0.019657527808385897444
0.019633863166374658504
0.019614472779161087196
0.019594941653272652388
0.019578003907530536903
0.019558688690460134668
0.019541298508470687778
0.01952213406702134682
0.019506521970639022906
0.019490491887889642431
0.019477212754265171846
0.019462079303322488838
0.019447907585441723266
0.019430448182549266839
0.019414326767249204253
0.019395494610289068516
0.019377600545327156728
0.019357419872501814562
0.01933926452475306923
0.019319015815601848357
0.019300738486786903764
0.014194476165780400834
0.014169666059232531238
0.014156451679542315231
0.014131485887894144546
0.014117937572690805043
0.014092600442399828842
0.014078924087301230086
0.014053684675751991137
0.014040487513267850897
0.014015562718640598924
0.014002999648822157808
0.013973898507196541932
0.013969753035680076633
0.019035557073345497903
0.018999160013544170306
0.018969524961407267794
0.018941594867266067087
0.018918515846763284821
0.018895686394238570688
0.018877097518092633699
0.018858403702517866074
0.018842461762390221719
0.018824496552834454888
0.018808293901647177293
0.018790060497403882761
0.018774860557351308321
0.018759148771878151468
0.01874603578790781308
0.018730775572417868169
0.0187158450172965167
0.018697240044864085057
0.018679723724075027874
0.018659844846585484091
0.018641309369820387859
0.018621283205041742892
0.018603715288927440835
0.018584630778660921752
0.018567359444506114502
0.013630913896984547112
0.013618241718755062092
0.013594436071639810076
0.01358124896796403594
0.013556753643711488139
0.01354327064693456803
0.013518943063025682175
0.013506338701134150415
0.013482691415550491359
0.013470951664160594682
0.013443548227228610537
0.013439986667776033374
0.018299535003953336376
0.018268823701813791116
0.018240423432012278782
0.018217324911897331968
0.018194823892415567385
0.018176523709599781697
0.018158165438892301391
0.018142782577282696999
0.018125744751740495431
0.018110430579349263286
0.018092928501371820238
0.018077942555756121301
0.018062203507536709474
0.018048946155700684724
0.01803348032574885948
0.018018131528397665631
0.017998969431563299065
0.017980894770569556818
0.017960911330424291638
0.01794274266781037408
0.017923515239539000721
0.017906956496012670088
0.017889200661434668388
0.017873571472730172272
0.017578227544461977327
0.017551794613441834558
0.017530628141485204985
0.017509990190215329181
0.017493196014198814786
0.017476044712201800613
0.017461701237582866186
0.017445885788877037864
0.017431877496495790797
0.017415665873510330353
0.017401341062237247331
0.017385799215853602745
0.017372593743367137353
0.017357482478982649149
0.017342811826774474915
0.017324489751337809884
0.017307026584517281459
0.017287611234492281098
0.017270060509759866535
0.01725179675371871571
0.0172363854249481252
0.017219939336612071629
0.01720539266614086113
0.016883735943436208038
0.016861184199445863885
0.016842470681647792041
0.016823801896402999778
0.016808602680143704122
0.016792574527186125699
0.01677851825626246185
0.016762375571898933957
0.016747903546549123416
0.016732181346193992361
0.016718786807326985883
0.016703812834511867769
0.016689769368257990206
0.016672554498068932471
0.016656108371958674996
0.016637426678820912973
0.016620338975977595741
0.016602770432642334486
0.016588253553564712151
0.016572827509685663511
0.016559049712727872544
0.01616792296596856679
0.016152961001972710592
0.01613977509252133638
0.016124415880524795019
0.01611035697914712031
0.016094895025271449551
0.016081709413444545548
0.016067223729542275817
0.016053944279373979359
0.016037774118099163562
0.01602228241352298202
0.01600452272167996598
0.015988247491254437005
0.015971518264772298357
0.015957640539049754852
0.015942838772020302696
0.01592967533892679019
0.015516366377245953412
0.015500527241205756812
0.015486835323390653676
0.01547199028038431963
0.01545860660425712671
0.015442672018055087976
0.015427449355661116207
0.015410004292523239722
0.015394010575545352335
0.015377554477152794582
0.015363654534368057641
0.015348654733491185961
0.015335188972173953784
0.014923251371553369893
0.014910187799082529406
0.014895753615723515001
0.014882520495783278791
0.014867018931631734505
0.014852443333435801434
0.014835884931650123938
0.014820614650942557852
0.014804663547209471336
0.014790834790759425921
0.014775719829065605757
0.01476192711949698283
0.0086319842767702929798
0.0085033568063341401916
0.0084242650554423315068
0.0083870571210271083196
0.0083759017963616639452
0.0083772964363655142567
0.0084021867625336393859
0.008509268520782809625
0.0086720074322518148763
0.0087912223578517963846
0.0088653082610497119243
0.0088976798712080435588
0.0089040662277835979505
0.0089004712961043425112
0.0088782467237627765017
0.0088113651424234218368
0.0087571246944942483792
0.0087335078608443330456
0.008729507990951171012
0.0087355202940114871218
0.015998073524631183789
0.015946921743172866315
0.015921198788861612439
0.015907236810741718497
0.01590151694281555228
0.01590402730576123691
0.015915451284889234329
0.015938184337776401672
0.015969880743576879423
0.016005235607653791469
0.016027307478542772434
0.016032115915083678531
0.016027207408300138403
0.016004192703044105989
0.015918604873698692648
0.015645188801297092024
0.015300829142818260856
0.015038082728165235932
0.01486217252399299471
0.014763600420531831567
0.014720981256671100343
0.014710009451029607344
0.044252255820521890772
0.043651402168430677997
0.043196739848351928259
0.042877814440161109155
0.042644238804320888647
0.042471185681986045601
0.042345594745204370724
0.042245279653508764628
0.04217547180348277247
0.042135635716837704923
0.042131401839908030893
0.042154202426010027593
0.042156536234815369935
0.042137682124343038559
0.04207431154328371975
0.041885986385498202855
0.041290854744804414422
0.040355611197690072212
0.039545392700716087975
0.038913432974639616813
0.038465406637301392812
0.038187134068349844196
0.038036034814060828979
0.037961545762985375585
0.03792454282560656087
0.037898810249888212343
0.21016104576072394683
0.20904240436975540796
0.20820791373440716843
0.20762982738349688994
0.20722980043163810593
0.20692338630534665156
0.20667383842250666715
0.20643709544148586277
0.20619669593455366985
0.20597680120124634007
0.20580040069807734038
0.20564089836650797927
0.20544726757596634692
0.20508745821709556401
0.20428666905196446457
0.20256721114821885088
0.2006431344878719103
0.19875584355111669543
0.19707589622954746478
0.19572351691131004148
0.19471854585346295985
0.19406452498966897391
0.19368562664369159965
0.19347722508238485162
0.19334560057928978916
0.19323124356137133528
0.19308830471211743673
0.1928670138630784181
1.2449292981662507529
1.2416360850243917113
1.2390287522674254816
1.2369792435313626822
1.2353491379619281343
1.2339707380418740712
1.2326793037375736173
1.2313529585991913606
1.2301220128886487526
1.2290156524086821577
1.2280381336286181337
1.2271572719494399095
1.2260850413157831085
1.2239872356999017544
1.2198109976076176864
1.2145755119482621875
1.2088928450334850417
1.2034295101079224288
1.1987296210922524509
1.1949574996139165073
1.1922040697449061142
1.1903970933409853128
1.1890793987712742208
1.1880731517981057976
1.1869556700112908754
1.1857865017193862656
1.1843974180892733461
1.182992720173650758
1.1814133384090099721
1.1798444913746783946
3.7831083263164835273
3.7747575652089917497
3.7665277679173878589
3.7583659779391171973
3.7501282674916658344
3.7416137054529241546
3.7326456582611649004
3.7232692474317032882
3.7136789539657768522
3.7041763332032613398
3.6949570650027037111
3.686136735595765046
3.6776465780380687143
3.6693946098397187683
3.6613685252484815535
3.6537031220831344136
3.6465503594457442382
3.6399917392295013663
3.633906182882284952
3.628105471796637449
3.6223463549698835529
3.6164963612103666613
3.6104450275570991735
3.6041905630871013955
3.5976422916352466252
3.5907363414208210983
3.583367144475032795
3.5757600599149541587
3.568124575080651173
3.5608377295889610537
3.5539805021293391363
3.5474463431276701542
6.4379045152273164376
6.423539835961395994
6.4100396057376229919
6.3973829054182660414
6.3851196394270042234
6.3726852407219585217
6.3597770673232467686
6.3466000834771447714
6.3336371382037848221
6.3213170073205420252
6.3096874726599994077
6.2984075427577437267
6.2870539042297171051
6.2754565668553183855
6.2637591695131646929
6.2522370338096209252
6.24103787205290228
6.2300349093689986191
6.2189182208855777745
6.2074730004886005119
6.1957469409944536665
6.183986609127274825
6.1725174686785777567
6.1615134369405319958
6.1507877992070074669
6.1400097503189998704
6.128915313204007731
6.1176110605540037213
6.1063605800063882612
6.0954882546136586186
6.0848671137860517177
6.0743390849193765746
6.0633360636714046521
10.306624575315792569
10.212637585975416599
10.124034385447870932
10.042808673125206198
9.9690521687859714461
9.9000755791792300897
8.2988816869339654403
8.2830031576680482885
8.2688985170766731159
8.2562786789601663173
8.2440909629787739732
8.2311716051594245869
8.2170213491309098686
8.2020658314796488497
8.187214138612365133
8.1731593577250869487
8.1598494451133589678
8.1466123857272254583
8.1327819451365375159
8.1182625148966582884
8.1035444162217853403
8.0892564042277861347
8.0756026455154064081
8.0622026736460714602
8.0484284486871136011
8.0338889571301947967
8.0188177892500771549
8.0039700682669518983
7.9899951900653425341
7.9770182320385645269
7.9645173598039180618
7.9517011839212576874
7.9381533535161370452
7.9241045609768372415
7.9102037808567500221
7.8968737203009702341
7.8840681936580150335
7.8711608378118267382
7.8578861429982760356
7.8437343514745840878
9.5566877663261351472
9.4584879458173478639
9.3670272076394134331
9.2843574189404538544
9.2089380456279510412
9.1366335157594154026
9.0638183074982112686
7.6531053631883141364
7.6482301068842284408
7.6442280216519966629
7.6384969814485748074
7.628993542981335807
7.6154541756981615208
7.599575594443557236
7.5838199577876155288
7.5698293633988749107
7.5573880282853602708
7.5451216441498552001
7.5316471252989094509
7.5168316703028841275
7.5017906216813736719
7.4878074220720405307
7.4752435401956844885
7.4633706771566190596
7.4512139440292193271
7.4385331572635688957
7.4262246217749323662
7.4156072796728675911
7.4073670170663667989
7.4009179561908045031
7.394676385796726592
7.3871281477850043728
7.3776656856870399537
7.3670265814193136578
7.3564889421882968534
7.346887583001890043
7.337825506059556524
7.3281517474953643543
7.3169011904498022503
7.3041073338517792379
7.2906847765357571944
7.2776962570737975255
8.7760899284387084549e-07
8.7865182769534989333e-07
8.8036253532479278571e-07
8.8216905081270816696e-07
8.8341814303345795266e-07
8.8645461498481821702e-07
8.8777072559105927045e-07
8.9122336418687821506e-07
8.9286704699582186009e-07
8.971974855233883775e-07
8.9883345682943033102e-07
3.2608440078354830691e-05
2.7942295064277320279e-05
2.3767185026654162437e-05
2.0093600599704873226e-05
1.6909298692492347172e-05
1.4184203307681198192e-05
1.1878783793842226523e-05
9.9496204676486877077e-06
8.3522973731171439748e-06
7.043408544463399711e-06
5.9812230559781205048e-06
5.1268044402216945637e-06
4.445768127350475936e-06
3.9090660267765307758e-06
3.4910329398709818119e-06
3.1682301726629127372e-06
2.9191723732600598527e-06
2.7261069565982185737e-06
2.5737245487924761119e-06
2.4512019402472152234e-06
2.3506492800306630468e-06
2.2679366639616937158e-06
2.1990162459869814159e-06
2.142278448581790904e-06
2.0958096675803661512e-06
2.0591876320371488974e-06
2.0281896941328461132e-06
2.0003254060062673858e-06
1.9731106750222740856e-06
1.9492021236054355221e-06
1.9301091962750166275e-06
1.9170173006463196983e-06
1.9053823915712411079e-06
1.8906915787641873065e-06
1.8680788827779620728e-06
1.8395028419581240281e-06
9.1487424510653660692e-07
9.1523172857585317069e-07
9.1568542889804619563e-07
9.1614361200108538987e-07
9.1662797881799813382e-07
9.1706725964054706905e-07
9.1750146697494077307e-07
9.1794687030969082204e-07
9.1844603446091835998e-07
9.1889680578119377118e-07
9.1961167082347773872e-07
9.2011540468918620075e-07
9.2057001041983926578e-07
9.2111968179927033403e-07
9.2134983505248153796e-07
9.2255289845178555278e-07
9.2313345481343254406e-07
9.2524640299514621495e-07
9.2627265705910590469e-07
9.2964579519815780866e-07
9.3080771403499736398e-07
3.4631504979378619402e-05
2.9556909681873583771e-05
2.5043837893234779707e-05
2.1092507004983048293e-05
1.7686241360083293267e-05
1.4791662430946552183e-05
1.2360514088179673406e-05
1.0335845524462121449e-05
8.661601498177535073e-06
7.2891838381612145627e-06
6.1767984679987877265e-06
5.2861348798527954025e-06
4.5825818026556422753e-06
4.0364319884667079595e-06
3.6193068364193114169e-06
3.3038716360923802281e-06
3.0636524360501636566e-06
2.8776495937687857332e-06
2.7306853265208459473e-06
2.6139437051257099719e-06
2.520472174022769425e-06
2.4441568757394836751e-06
2.3778023083077696644e-06
2.3182734194722476892e-06
2.2644041317302678977e-06
2.2184218969795961751e-06
2.1786209557157903598e-06
2.1437961507988553308e-06
2.1109807046572451371e-06
2.081345770191629446e-06
2.0554298566715003342e-06
2.0341695116141551973e-06
2.0136017630461376937e-06
1.9908077033918151567e-06
1.9623400936466375525e-06
1.9311090264314912351e-06
9.654611208158935847e-07
9.6596030909487304814e-07
9.6664510276393891977e-07
9.6704662218291755477e-07
9.6710536051088833137e-07
9.6683032436661120533e-07
9.6605659614553534454e-07
9.6539422749932022974e-07
9.6487858885334875062e-07
9.6451091394319800276e-07
9.6444581779561222768e-07
9.6444956536288092594e-07
9.6438030923567026111e-07
9.640628808766094681e-07
9.634507402103949363e-07
9.6336445620586392931e-07
9.6324487987813007279e-07
9.6428569534331549163e-07
9.6477820688293379474e-07
9.6708208931372846589e-07
9.6790634536994599977e-07
3.148051674963941337e-05
2.6680900942480100001e-05
2.2479976626535321899e-05
1.8856828561930139774e-05
1.5773566748344028496e-05
1.3177694934129123076e-05
1.100885726902519379e-05
9.2090513560310689512e-06
7.7304136808735706977e-06
6.5334274015860576175e-06
5.5800822039260603534e-06
4.8318792027405905551e-06
4.251676199384174382e-06
3.8068772001733328124e-06
3.4661810536670830616e-06
3.2028944092663992881e-06
2.995781336715227664e-06
2.834480317381753295e-06
2.713773630698135586e-06
2.6288278412084635091e-06
2.5677351710963806977e-06
2.5174141757033499992e-06
2.4684152206190698009e-06
2.4213379695570215645e-06
2.3780735883894755473e-06
2.3413213240659916908e-06
2.3087430170251493593e-06
2.2792750091272707364e-06
2.2501319633698292686e-06
2.2217749559601020486e-06
2.1918797407241779323e-06
2.1613537756187845639e-06
2.1281091585616942078e-06
2.0938669312110793194e-06
1.0167124644438552644e-06
1.0175917092881397511e-06
1.0180632291752358295e-06
1.0181248259585806153e-06
1.0177343363823348443e-06
1.0160327263036219396e-06
1.0141786694093403008e-06
1.0129067900277273436e-06