/*--------------------------------*- C++ -*----------------------------------*\
  =========                 |
  \\      /  F ield         | OpenFOAM: The Open Source CFD Toolbox
   \\    /   O peration     | Website:  https://openfoam.org
    \\  /    A nd           | Version:  12
     \\/     M anipulation  |
\*---------------------------------------------------------------------------*/
FoamFile
{
    format      ascii;
    class       volScalarField;
    location    "0.00517";
    object      k_0;
}
// * * * * * * * * * * * * * * * * * * * * * * * * * * * * * * * * * * * * * //

dimensions      [0 2 -2 0 0 0 0];

internalField   nonuniform List<scalar> 
106891
(
0.012441514245468632271
0.012434960419841300724
0.01242334501522354695
0.012417231075217969802
0.012405237235357734552
0.012399425350892088332
0.012387249026367945504
0.012381213767890059119
0.012368420464103517531
0.012361895310144017587
0.012344920765136791277
0.01802866210756612006
0.018020597075645919394
0.018001571459475063097
0.017958432951651958492
0.017909030695969604258
0.017864406217993972908
0.017822336581695907842
0.017786871067748854375
0.01775389809803965338
0.017726006870045146052
0.01769923086227710024
0.01767683118865494285
0.017654502405243480134
0.017635600684206255429
0.017615565551759537061
0.017598020528795797757
0.017579671801623963229
0.017564348497295670382
0.017548788290245746768
0.017535782690405989082
0.017521921989108572154
0.017509773000421113842
0.017495403209012286294
0.017482479448244415965
0.017467814006882406014
0.01745411733460078274
0.017437703956860412663
0.01742289236471805669
0.017406560081905862042
0.017392030249793178492
0.017375381524022685126
0.017359597174319611745
0.017341140831381749582
0.017324294061106540465
0.017305177833677319599
0.017288284927904375848
0.017270244394645493935
0.017254107382515850022
0.013176266170415115025
0.013162107003074664802
0.013153589772533010038
0.013139003149553647037
0.01313016216217407009
0.013115434930968717514
0.013106925293014520806
0.013092893269504303835
0.01308505913957771008
0.013071785229017642352
0.013064581945359450901
0.013051602413073241232
0.013044960569972929507
0.013031736117012773096
0.013025496870506062322
0.013012272158222775234
0.013005658009776630696
0.012991499536545355123
0.012984276442813308047
0.012965372732580842524
0.018994709202984232099
0.018963147692653895687
0.018907899567144909742
0.018856188287436442125
0.018807102536953602262
0.018764961255526905332
0.018725435181431920179
0.018692018688613764449
0.018660536346213289077
0.01863403340742796413
0.018607902732111970823
0.01858588563029698118
0.018563242165534104416
0.018543353202808369323
0.018522337800676417358
0.018504100312277439039
0.01848555891051725103
0.018469968578177613228
0.01845404618965816243
0.018440400225965863229
0.018424596306800836154
0.018410456927299270746
0.018394702259209409767
0.018380694459242990363
0.018363753880767538784
0.018347984999681453411
0.018329947996318460973
0.018314138970739420043
0.018296984006886483215
0.018281750428212461407
0.018264157111315695858
0.01824840414083300083
0.018229853394678217915
0.018212913341561321606
0.018194120025389639433
0.018177341212408954646
0.013851789154202471741
0.013835986361524749144
0.013826393312371504721
0.013810149684952036792
0.013800319457247463978
0.013784004338686282887
0.013774533340117054575
0.013758978735066994953
0.013750349019909503118
0.013735529936075853777
0.013727492972114896386
0.013713072771939619626
0.013705781717319474866
0.013691210828106752107
0.013684318619691698132
0.013669776960881431516
0.013662529215961361287
0.013646963417397062895
0.01363900608533196758
0.013618095433023186952
0.020056893009497599872
0.020042565231655731089
0.020003300632227764833
0.019939257361860297096
0.019877702318556154243
0.019823975541290284053
0.019773688045380481693
0.019730394646449111312
0.019690328528240604034
0.019656735446161123504
0.019624528241591915334
0.019597524212178550618
0.019570399361141837397
0.019546707721628961418
0.019521969454281803275
0.019500420568056096166
0.019478728101360313213
0.019460222829072323925
0.019441308199499192366
0.01942480607885294086
0.019406386995466255729
0.019390095510852554256
0.019372266214614269897
0.019356189598518983713
0.01933725469506800132
0.019319377235006426202
0.019299090239252310319
0.019280918437156742418
0.019261784340323443582
0.019245411386338204945
0.019227573717100619743
0.019212093626527728535
0.019193611859493843463
0.019176166240679522884
0.019156137192994169421
0.01913802095925571517
0.014544265959577295025
0.014533848298780528349
0.014516153715471808924
0.014505620001341978931
0.014487976884188253496
0.014477806485465675654
0.014460780052341812643
0.014451132007943165436
0.014434780778071820001
0.014425910285484785239
0.014409874321060441721
0.014401696800928646611
0.014385477201777326431
0.014377772941214344779
0.01436162673675740048
0.014353526313030339628
0.014336278113229222048
0.014327528718680357378
0.014304601182810086635
0.021158434096053127527
0.021081193098960733512
0.021007215733820815834
0.020941890713622207665
0.020880654885771631618
0.020827028981401624064
0.020777062740860538503
0.020734709869091885737
0.020695272495566640475
0.020662712058349040622
0.020631201010403468071
0.020604175876997109229
0.020576642558273357253
0.020552441604243864431
0.020527750374011558693
0.02050605699246063271
0.02048406108367223713
0.020465110444039768395
0.020444890825057373401
0.020427500792540236041
0.020408622552750572271
0.020392059545273816257
0.020372994679306165311
0.02035535651477673319
0.020334515283885263442
0.020314650216373960484
0.020292860425183995021
0.020274265243945748666
0.020255108157398220292
0.020239626227182019869
0.020221869111313718614
0.020205426547391467512
0.02018545592654768378
0.020166043265247551169
0.015307056760613719018
0.015288269994342469638
0.015277313039257616953
0.015258439045472553183
0.015247543094744920797
0.01522895891051920074
0.015218304408117198229
0.015200038728651716138
0.01518962381633777621
0.015171615530819814593
0.0151615075512701869
0.015143615967128258581
0.015134301687648215456
0.015116088090052782686
0.015107217530936932481
0.015088916786627997943
0.015079758340400479036
0.015060570406583104544
0.015050958397429200358
0.015025985953747040061
0.022283365518421083262
0.022217546871009734299
0.022144144746402499857
0.022074521207242226578
0.022012789636512687663
0.021954459754849314085
0.021903758534177013989
0.021856162077935493288
0.021816405410561089118
0.021778526373311960646
0.021746186961269061561
0.021714053285985326219
0.021685841727780080096
0.021657242138122537872
0.021631726595480425812
0.021605630021649668837
0.021582405680094195188
0.021557811265799090711
0.021536939075964860874
0.021515391342664825364
0.021497288969703945427
0.021477032041070327761
0.021458836790470215555
0.021437656641604040109
0.021417387205998051486
0.021394067134060428675
0.021372979991257305687
0.021350589292852172746
0.021332535118369619354
0.02131333762154831446
0.0212970281386069063
0.021277704024091584345
0.021258499543878324467
0.016070418061937433857
0.016059157581053608993
0.016039350150852220434
0.016028283167012810639
0.016008810094806164709
0.015997864554372489415
0.015978410819661600928
0.015967208928411795454
0.015947427818564105517
0.015936104207591731546
0.01591606008782744941
0.015905201951944055588
0.015884570326012731334
0.015874308785586748599
0.015853571290877971345
0.015843139091435209237
0.015821733856948617253
0.015811169911749165667
0.01578419640634169327
0.023370420600123818083
0.023299827065761835598
0.023230321786965515279
0.023167940814206217787
0.023109208370420401824
0.023058455078769073132
0.023010689791844316648
0.022970699931960422702
0.022932270437000253083
0.022899471189220657608
0.022866624361323226872
0.0228379705104312207
0.022808926842390192524
0.022782899165398790703
0.022755699691680394275
0.022730853017362998708
0.022704468972379893837
0.022682009123189045274
0.022658878763723286354
0.022639087245566239665
0.022617035045080488564
0.02259680063186395374
0.022573645871779381145
0.022551614670768996979
0.022526823399124682595
0.02250432619174450033
0.022480345075858155363
0.022460449956067649047
0.022439285457985159999
0.022421242959810207956
0.022400372944949120679
0.022380097106820293767
0.016893795238815883381
0.016882418939803078839
0.016861757856992926063
0.016850477993349283895
0.01682984437871623204
0.016818541550114345789
0.01679770767891465566
0.016785791233571129011
0.016764236187996623545
0.016751619595367871901
0.016729061289186254735
0.016716348388745586734
0.016693073061588206002
0.016681186681719469694
0.016658092374590052764
0.016646413213621497756
0.016622903753318429843
0.016611314150951250052
0.016583549191377559145
0.02462832651406222928
0.0245481817511925271
0.024472844816271543955
0.024406938710069187026
0.02434578026427858255
0.024294160118290067385
0.024245246765880117817
0.024203431334573696082
0.024162996691558805834
0.024128081786550015231
0.02409339604744350008
0.024062444384474242914
0.024030933847882254839
0.024002233975155138485
0.023971516295461060136
0.023944300117574684322
0.02391601390847941655
0.023891848909532491241
0.023865855301099823949
0.023842092849023558548
0.02381526714512467377
0.02378974629130906765
0.023761592677236962473
0.023736326018108124675
0.023709152043234711649
0.023685507965051168927
0.023659924201077837252
0.023638150393348104222
0.023614892870442751038
0.023594318630055576697
0.017752042528670887445
0.017730262862285482706
0.017718379763149522121
0.017696187165954956749
0.017684105256545231549
0.017661527650262992539
0.017648662374971268302
0.017625150317033447256
0.017611294490398467921
0.017586413764947777388
0.017572244680115072651
0.017546823386849319526
0.0175334182408484196
0.0175082014845919752
0.01749522351852589655
0.017469810444984683329
0.01745717343589312312
0.017428418750590105035
0.025851489485751548425
0.025783358719401308634
0.025719001603789679727
0.025664516156534263047
0.02561235055436711025
0.025567668478976558061
0.025524067660818283015
0.025486347274516013561
0.025448823353259125701
0.025415729528718292857
0.025381830569783523505
0.025350792408059652505
0.025317187203447551885
0.025287610228954676694
0.025256466795380953794
0.025229662776629292048
0.02520066610279390884
0.025174715592652642526
0.025145876230801587209
0.025118315708754116594
0.025086905957511104748
0.025058647053841216074
0.025028714499307120472
0.025002901898873077652
0.024974519445970597836
0.024949230853753345122
0.024921995048553961805
0.024898459989480942883
0.018700823682450067043
0.018678955734732542726
0.018666701426615604775
0.018643502275954126901
0.018630354685319976127
0.018606434055118276083
0.01859257537622120704
0.018568059425338356155
0.018553729190771695023
0.01852816739233404536
0.018513803239063715556
0.018487808500803754042
0.018473809644645913797
0.018447622759870548753
0.018433915671383187262
0.018407562175515423952
0.018394339725178409511
0.018366288999358819367
0.027023430835845282938
0.02696556326329766981
0.026915633969894756095
0.026867178315295205115
0.026825176453212050409
0.026784381095720111859
0.02674946464005719185
0.02671498339701380148
0.026684211605484963598
0.026651922004915583331
0.026621345952575755506
0.026588757083766494799
0.026560278681505650189
0.026530977171343284038
0.026505376438770138908
0.02647771982129551796
0.026452375584941841685
0.026424830261028573603
0.026399079135930560852
0.026370721302971380368
0.026345243274378458281
0.02631773149572456949
0.026293128772300500273
0.026265715052374086214
0.026240985484350651258
0.026213674255694482257
0.026189559841855988842
0.019572145977926155846
0.01954821391862768265
0.019527401877803437363
0.019501602257849821181
0.01947945626190204782
0.019452812518636002082
0.019430323248335615305
0.019403968000019134604
0.01938108411711359641
0.019355281445140589541
0.019331829547960630022
0.019305730990747598658
0.019281816911986611462
0.019255338307809514303
0.019231138389450064263
0.01920466949189240588
0.019180548572419998943
0.027384086622052848659
0.027324249776059603839
0.027272508321321411312
0.027223593566580217562
0.027181271227891594389
0.027139907487075502768
0.027104960073222574696
0.027071566586238379054
0.027043769967474803884
0.027015173108898546395
0.026988845686866130835
0.026959551052275376737
0.02693325984327839262
0.026905461890518109214
0.02688251993190002645
0.026858348894365811216
0.026837341155194642528
0.026814275282941880257
0.026793513470469713239
0.026770148894048967358
0.026749846212041551718
0.026726901349735838337
0.026705569513137038251
0.02668075464613123976
0.026657885550347835968
0.02663159704693044208
0.026607880125128907656
0.019684074279423945109
0.019663239336562592791
0.019623941007126739083
0.019601878070445718366
0.019561951786627906208
0.019540161633389396822
0.019500876794527700897
0.019480068105915480936
0.019440970449178390789
0.019420036572641578149
0.019380212664352844398
0.019358796921786630696
0.019318081688719280359
0.019296985208007558232
0.019245375318202508075
0.019251761440730163349
0.022187503589644944763
0.022143753161728729761
0.022103298298474335914
0.022069504018477910379
0.022039068783504284221
0.022014790575980991427
0.021991847449186526647
0.021973948242210324805
0.021956192299976917681
0.021943056607841140981
0.021928219370511148334
0.021915445233343270465
0.021899933620889530661
0.021887951655051272881
0.021874732732955173148
0.021865160758389859397
0.021854168245432108869
0.021844989876590108213
0.021833902780449578745
0.021825052208817478233
0.021813814728681171773
0.021804411128042548024
0.021791954963773930987
0.021779351328672466592
0.021764051065603355617
0.021750390613812536911
0.021734606883157325113
0.02172068294536864258
0.015675278664474410345
0.015643180742567056041
0.015625508782414775089
0.015593120077231700446
0.015575500422746474047
0.015543133459058210491
0.015526066340460175502
0.01549370849113115324
0.015476383852559644216
0.015443756362668082521
0.015426348159967621931
0.01539340838143505967
0.015376539200755306308
0.015335260427099961164
0.015349153251091318673
0.020628351451900846236
0.020577411188012834781
0.020535048224661796301
0.020496765823598220996
0.020465415187363444893
0.020435871551758064135
0.020411716555187361249
0.020387857909510843923
0.020368382860248494814
0.020348251147438749936
0.020330379550276490158
0.020309960100662265148
0.020292089620022841362
0.020272892217423933714
0.020257519997429588449
0.020241371801511972434
0.020227744459469867294
0.020212435041612197145
0.020198814044117763961
0.020182452948234775453
0.020167712488137881643
0.0201501468072804793
0.020133250620138640197
0.020113829973981159349
0.020096186401460949811
0.020076317265844259574
0.020058330902830222991
0.014741162960520212341
0.014726765730286302952
0.014700388422915027647
0.014686132035398842891
0.014659655348129536218
0.014645612125080356355
0.014619133964373046131
0.014604946067703015664
0.014578391986166819652
0.014564330500871918925
0.014537507944590542797
0.014523824752838841029
0.014491152006546320977
0.014488687929744160227
0.019818421097234112382
0.019777160558630005327
0.01973989880846384673
0.019709499488569221654
0.019680830121958790141
0.019657075604577384231
0.019633425377352339836
0.019614042718950609051
0.019594506067649234554
0.019577551783513974515
0.019558221944914584711
0.019540831275423255209
0.019521685393352486426
0.019506105427166558347
0.019490107462980913594
0.019476850402675421198
0.019461722317877200999
0.019447538116366687444
0.019430053824572180582
0.019413901045311481031
0.019395037791092913787
0.01937712488457836793
0.019356944745517190576
0.01933880391528719489
0.019318572759515699466
0.019300306006713896512
0.014194111558503027387
0.014169308054935251043
0.014156096026604168478
0.014131129558124184975
0.014117579816560551706
0.014092241802361814285
0.01407856560149232418
0.014053328527885610572
0.014040135824364917069
0.014015217969097373482
0.014002660182519504825
0.013973565188630040698
0.013969423623087156433
0.019034998502666444081
0.018998647763224661006
0.018969045869144156302
0.018941142565961171379
0.018918087403365955318
0.018895279229016039707
0.01887670240123733717
0.018858004275934880239
0.01884204449548152957
0.018824059812804549985
0.018807848981899657342
0.018789626790049675231
0.018774455040070640172
0.018758774560945417481
0.018745682924665291874
0.018730424490642463148
0.018715474383596369251
0.018696836088445752122
0.018679283121357494885
0.018659375764197710934
0.01864083325578684211
0.018620823849326242905
0.018603284474066401899
0.018584224005364035487
0.018566961308006273146
0.013630562527064560979
0.013617891126745960972
0.013594082629479416896
0.013580892805510653629
0.013556397333494516269
0.013542918395785830468
0.013518600048341655739
0.013506006588331065377
0.013482370662404121603
0.013470638978966907595
0.013443240833328975667
0.01343968027052853606
0.018299002052794777207
0.018268332522657471095
0.018239970031598433386
0.018216906045985227502
0.018194433579857081928
0.018176150143178023549
0.01815779150280129664
0.018142392793484500568
0.018125333198736603979
0.018110004412605396756
0.018092505329840111866
0.01807754057177453702
0.01806182929423458261
0.018048591871995832425
0.018033126656820514661
0.018017756360476481353
0.017998558690544532584
0.017980447648801085869
0.017960440793312063001
0.017942275543082752964
0.017923075889195342475
0.017906553610152965011
0.017888825639052266525
0.01787320546474209515
0.017577734171774658106
0.017551342376872822171
0.017530215394822509789
0.017509611049476295902
0.017492838251820960055
0.017475690781447162508
0.017461334631106453785
0.017445498002316758152
0.017431471880055941781
0.017415256050807129823
0.017400943674901817038
0.01738542323816294477
0.01737223501187571198
0.017357124241895404565
0.017342432757855789915
0.017324076638972434744
0.017306581456326321916
0.017287151089576992258
0.017269610813717618802
0.017251380185803227157
0.017236008105947910746
0.01721958988472365587
0.017205052598248334744
0.016883305272443003414
0.016860791822642738624
0.016842106119096710709
0.016823449314942562349
0.016808245151802972406
0.016792200165016080843
0.016778125949038980719
0.016761975144265091331
0.016747509811521319595
0.016731803636080119085
0.016718422643732248206
0.016703448468430068252
0.016689387020752836921
0.016672143725060734054
0.016655672124296676956
0.016636981222298577454
0.016619909457556189536
0.016602377323640605394
0.016587898373206025338
0.016572498005399588505
0.01655872911521043267
0.016167575173439863168
0.016152600650303845092
0.016139398348091485436
0.016124029602994926352
0.016109973263261304771
0.016094522051713064381
0.016081345087874638483
0.016066856767889364094
0.016053560914541006865
0.016037367688855202336
0.016021858774840108675
0.016004097516370236615
0.015987842179580203511
0.01597114675270669415
0.015957302589961818579
0.015942523693532124202
0.015929370536442853667
0.015515993830085613586
0.015500161494774277252
0.01548647307033425638
0.015471621990699572363
0.01545822261415261481
0.015442270076411013929
0.01542703774120357009
0.015409597721186820904
0.015393625666215039055
0.015377199936076352965
0.015363328073392234011
0.015348347175213869487
0.015334892130498590374
0.014922900653215394329
0.014909836326760619526
0.014895391918512764992
0.01488214243681370251
0.014866626954321277357
0.014852047486897333381
0.014835497853038052962
0.014820248288103703496
0.01480432311796506771
0.014790516744633627408
0.014775416896870082958
0.014761634740887274314
0.0086309282645346211554
0.0085025119270423950291
0.0084236050756988714583
0.0083865319102785669536
0.0083754532623948069886
0.0083768940281747205495
0.0084019870150308963164
0.0085095455755683380855
0.0086722071925182664387
0.0087912433358286797697
0.0088651471022074598144
0.0088973831345588779568
0.0089037215188772014796
0.0089001142391390650893
0.0088777826060796455332
0.0088107921948185445593
0.0087566839785067109025
0.0087331635627398949973
0.0087292069045461391508
0.008735274205607289344
0.015996899627764561008
0.01594587334887124716
0.015920231533376228567
0.015906308328683099046
0.015900609269454420158
0.015903162191463548342
0.015914693219585534373
0.015937532424231477118
0.015969330599028788709
0.016004707317751450113
0.016026722787931671488
0.016031481722436798087
0.016026545776827220285
0.016003467858736030588
0.015917529394036039614
0.015643321189776637076
0.015299199375628288328
0.015036771759029980353
0.014861168315156015121
0.014762856199592489653
0.014720423133374904712
0.014709555882560105752
0.04424636119073288576
0.043645837629905648303
0.043191754063767948124
0.042873376819893768697
0.042640157345069602812
0.042467282864712699308
0.042341787676816934616
0.042241671311093097196
0.042172280244679838379
0.042132989390498580551
0.042129181542192625787
0.042152231571540459132
0.042154467223137301324
0.042135473434910246382
0.04207202589032462553
0.041883236071389134958
0.041286177773544166514
0.040351081982919853597
0.039541387115350969117
0.038909949275837900362
0.038462475324666872689
0.038184795038803724665
0.038034231640672280794
0.037960123819282577673
0.037923307593227741086
0.037897613834520282872
0.21013546527357207516
0.2090156326214103466
0.20818141418828847722
0.20760473789537209344
0.20720612529591034279
0.2069003749665029035
0.20665064783947661997
0.20641360334546454691
0.20617385571932719812
0.20595596460354434476
0.20578207820247840232
0.20562444738884597117
0.20543119100676546229
0.20507041385154159419
0.20426722431749241848
0.20254658050113674705
0.20062448569728003056
0.19873945832327785666
0.19706105076608387838
0.19570918520060445744
0.19470422896828787351
0.19405061085796462828
0.19367280937962477738
0.19346585913705305337
0.19333534159577586697
0.19322135589836314518
0.19307813061857931336
0.19285662830604538565
1.2448557646782851815
1.2415591667265224451
1.2389508873460315375
1.2369027181973999419
1.2352747894065143619
1.2338979988231673079
1.232606742000236455
1.2312802857777538357
1.2300506071607388847
1.2289478932489330543
1.2279756402798371884
1.2270994776299744
1.2260281129196488603
1.2239253941021457361
1.2197430998259897184
1.2145061356887500992
1.2088267632744911229
1.2033699410339744329
1.1986765016753395674
1.194908212117065105
1.19215666550876076
1.190350614535543583
1.1890343201206823309
1.1880300479184726647
1.1869141767480761995
1.1857454731322207842
1.1843558843213339848
1.1829507713164935101
1.181371898272517651
1.1798044151555864278
3.783047802063494558
3.7746987605080279948
3.7664746261097046265
3.7583173575211259454
3.7500792266849773959
3.741557845718502584
3.7325808468450225597
3.7231986632934535031
3.713609617179356448
3.7041141468409373161
3.694903506202467991
3.6860886106978556498
3.6775994025324849623
3.6693461824532667137
3.6613205541010969135
3.6536592460074173161
3.6465134278803756906
3.6399615024030502752
3.6338787827875784764
3.6280768111197652104
3.6223145700222443288
3.616463754643524986
3.61041558392081674
3.604165619918107577
3.5976190530380782739
3.5907095983904913084
3.5833343855123058752
3.5757235695946247844
3.5680901553952888428
3.5608095544012412503
3.5539583725225520894
3.5474269057187441945
6.4379094296589451929
6.4235647220538698576
6.410091006200775432
6.3974517207142458375
6.3851870981588749743
6.3727346223324152774
6.3598049871175188485
6.3466181514594035562
6.333661924363778617
6.3213589169751713825
6.3097423492812030332
6.2984625549879869055
6.2870983812441485483
6.2754906560349548172
6.2637915075247763141
6.2522772955543617357
6.2410874685363859626
6.2300870943447597128
6.2189628586206691097
6.207505369953891794
6.1957730058687445762
6.184017653553603111
6.1725633618882653764
6.161573053383079035
6.1508499565594920711
6.1400616759849038218
6.1289532877390842103
6.1176426513117254657
6.1063977262728972306
6.0955374596465983217
6.0849237101869437794
6.0743932975101335714
6.0633806813312700612
10.3065553067064819
10.212568114743293179
10.124020529544196734
10.042886631990192825
9.9691859415175301251
9.900198201758456662
8.2989695419587103942
8.2831456343196752101
8.2690993236995371518
8.2565137810825763864
8.2443190725014314779
8.2313618777238133362
8.2171705649673469907
8.2021991609888420527
8.1873624333777748063
8.1733363836181371909
8.1600409385919956406
8.1467908083197215774
8.1329303361321247934
8.1183870664232493652
8.103667062165367696
8.0893944255265264331
8.075753944852788635
8.0623477259472995371
8.0485485280918069861
8.0339817473793662117
8.0189024392157488563
8.0040720618641447714
7.9901290998864187287
7.9771758812042952158
7.9646734932105189841
7.9518334367935255003
7.9382586919600681696
7.924200995117378632
7.9103126613484739948
7.8970028523833635248
7.8842061940197174508
7.8712880272333274334
7.8579906332381739276
7.8438189962194728722
9.5567997463348426379
9.4586792353528963417
9.3673600147570343921
9.2848253905338449243
9.2094335989276085996
9.1370203278047927853
9.0640352874552778673
7.653387654266706086
7.6485925121894347001
7.6445806853726514518
7.6387490806332847271
7.6290952537255520838
7.6154269217371526324
7.5994900409211600945
7.5837446272517361479
7.5697834228483040775
7.5573360819669739286
7.5450102964640572978
7.5314507283986369401
7.5165736967798038037
7.5015193520235188274
7.4875553114907544838
7.4750033980712364823
7.4631100704538413382
7.4509094768673858056
7.4381978832441566496
7.4259012937436468249
7.4153363346058407402
7.4071539077294792364
7.400724717219246962
7.3944471236352811161
7.3868241890901957802
7.3772942701213892747
7.3666309932822953144
7.3561123533219276993
7.3465381076949487493
7.337473892244981144
7.3277591798624071018
7.3164517276606586549
7.3036199009395774695
7.2901970923725958329
7.2772382235806674089
8.7755417132266307559e-07
8.7859014750763741835e-07
8.8030029790972988261e-07
8.8210597869528368333e-07
8.8336136983535144292e-07
8.8640310648006782144e-07
8.8772270578387338254e-07
8.9117966037995912868e-07
8.9282849553739176997e-07
8.9716385827843289879e-07
8.9880527393000622172e-07
3.2588056425100005338e-05
2.7923893142290584295e-05
2.3750869563276942207e-05
2.0079364566106570276e-05
1.6897043302091710714e-05
1.4173773824848189627e-05
1.1870004488537732131e-05
9.9423000189129358587e-06
8.3462498277738105852e-06
7.0384671087691153842e-06
5.9772223830357936128e-06
5.1235756629813109341e-06
4.443170398849372938e-06
3.9070022633723136318e-06
3.4894233898617018963e-06
3.1669829270443632747e-06
2.9181943772613982879e-06
2.7253242702698923638e-06
2.5730901716272888894e-06
2.45068703172272934e-06
2.3502294151940023527e-06
2.2675838497518178341e-06
2.1987096989409011806e-06
2.1420138640966111904e-06
2.0955916507842168678e-06
2.0590081528244438812e-06
2.0280281342874974776e-06
2.0001659422577269728e-06
1.9729556705918790113e-06
1.9490662726115164403e-06
1.9300012059914526745e-06
1.9169275559821134454e-06
1.905288704968630132e-06
1.8905729371896876626e-06
1.86792990939890372e-06
1.8393339122151443533e-06
9.148098062864268463e-07
9.1517649773082798597e-07
9.1563826619435856066e-07
9.1610258217859832636e-07
9.1658996600907507101e-07
9.1703004285522586691e-07
9.1746358963085685829e-07
9.1790643443323816194e-07
9.1839992232554589e-07
9.1884306484594221854e-07
9.195490129241921047e-07
9.2004509333740262817e-07
9.2049691601271867632e-07
9.2104660295587129532e-07
9.2128156278787701646e-07
9.2249286391801420892e-07
9.2307908837255087669e-07
9.2519888332722568638e-07
9.2623174795986428772e-07
9.2961463245930212502e-07
9.3077897342135167661e-07
3.4609453833508778094e-05
2.9537146476852103394e-05
2.5026395024654199498e-05
2.1077345297064126406e-05
1.7673246665009440838e-05
1.4780664313325244804e-05
1.2351303786511187545e-05
1.0328189162505597279e-05
8.6552761383866836731e-06
7.284009414498585304e-06
6.1726190439257033911e-06
5.2827875449215864345e-06
4.5799161514664227281e-06
4.0343378772827155973e-06
3.6176985928475624256e-06
3.3026529050174479255e-06
3.0627136310376471433e-06
2.8769010364424818445e-06
2.7300776663160047019e-06
2.6134556207807043359e-06
2.5200804997860435126e-06
2.4438238258575337539e-06
2.3774961956548072528e-06
2.3179875084736702266e-06
2.2641497025688098741e-06
2.2181997571503022535e-06
2.1784178035393059491e-06
2.1436006840316740002e-06
2.1107944755814488875e-06
2.081179284493466468e-06
2.0552885518565503295e-06
2.0340442831845038334e-06
2.0134743547629791229e-06
1.9906621404291345717e-06
1.962174455895131092e-06
1.9309345045229075574e-06
9.6539350639960711923e-07
9.6590333652739888867e-07
9.6659461307863920697e-07
9.6699953158283861581e-07
9.6705928888377124435e-07
9.6678069174314218308e-07
9.6600363009499027837e-07
9.6533934191687100445e-07
9.6481927340673398774e-07
9.6444618909815966032e-07
9.6437518302039179556e-07
9.6437400697861864094e-07
9.6430203733528560748e-07
9.6398339470098128964e-07
9.6337780681277609943e-07
9.6329618445876456308e-07
9.6318594153726207056e-07
9.6423579099291979929e-07
9.6473532896403518449e-07
9.6705094797410913262e-07
9.6787557827165575666e-07
3.1459643201666873059e-05
2.666246099226641733e-05
2.2463926993886120296e-05
1.8843048026379347293e-05
1.5761869503677904011e-05
1.3167860495255705812e-05
1.1000651306588285293e-05
9.2022497428578258226e-06
7.7248380465375485795e-06
6.5289337549596897231e-06
5.5765155640024826711e-06
4.8290666374609951994e-06
4.2494672553008856335e-06
3.8051597445477466526e-06
3.46485744150245375e-06
3.2018639657064651187e-06
2.994962435586409715e-06
2.8338362879717067744e-06
2.7132943661695675531e-06
2.6284855922646683069e-06
2.5674687995499789013e-06
2.5171648699899690713e-06
2.4681659622700302073e-06
2.4211004713820471257e-06
2.3778570734877704431e-06
2.3411222811078181402e-06
2.3085557665120992461e-06
2.2790979329961959083e-06
2.2499644535286508037e-06
2.2216125979114611286e-06
2.191716774537895341e-06
2.1611848533143057186e-06
2.1279309221303322512e-06
2.0936828389118489301e-06
1.0166523611455768291e-06
1.0175366526404936736e-06
1.0180095406535987004e-06
1.018070666401344477e-06
1.0176739602536336381e-06
1.0159607936834489328e-06
1.0141071467936317979e-06
1.0128336491691258503e-06
1.0118861604626512856e-06