/*--------------------------------*- C++ -*----------------------------------*\
  =========                 |
  \\      /  F ield         | OpenFOAM: The Open Source CFD Toolbox
   \\    /   O peration     | Website:  https://openfoam.org
    \\  /    A nd           | Version:  12
     \\/     M anipulation  |
\*---------------------------------------------------------------------------*/
FoamFile
{
    format      ascii;
    class       volScalarField;
    location    "0.00517";
    object      pMean;
}
// * * * * * * * * * * * * * * * * * * * * * * * * * * * * * * * * * * * * * //

dimensions      [1 -1 -2 0 0 0 0];

internalField   nonuniform List<scalar> 
106891
(
98708.109788400368416
98708.814815362042282
98709.551888736925321
98710.321313577165711
98711.123896949371556
98711.960717988491524
98712.833040910307318
98713.742943143268349
98714.690274531021714
98715.676868744150852
98716.69250543184171
98689.39790620309941
98689.398763904013322
98689.41326622433553
98689.439865551496041
98689.472271825638018
98689.50218485451478
98689.523516303961514
98689.53474714056938
98689.538014044243027
98689.536400099474122
98689.5316013952106
98689.523804712036508
98689.512883378352853
98689.500223336726776
98689.489625985137536
98689.485796896129614
98689.49185639602365
98689.507758561871015
98689.530631185945822
98689.556159649480833
98689.580465511302464
98689.600849424401531
98689.616071663724142
98689.626292585366173
98689.632928999577416
98689.6382306060259
98689.64475718230824
98689.654413166848826
98689.667485997182666
98689.682355608703801
98689.69694544649974
98689.7105781663995
98689.724555862907437
98689.74123976341798
98689.762322243725066
98689.787322294389014
98689.81356440197851
98689.837592870520893
98706.648955323340488
98707.123694493697258
98707.626736559061101
98708.159651000591111
98708.723476670638775
98709.318824348563794
98709.945944157982012
98710.60481834874372
98711.295124975513318
98712.016436144374893
98712.768275004083989
98713.550466204978875
98714.362992479800596
98715.20639162720181
98716.081534644486965
98716.989506040452397
98717.932211137187551
98718.909447501675459
98719.923141773964744
98720.963867729704361
98689.383520141796907
98689.404709803959122
98689.438418367339182
98689.477251518706908
98689.512415986231645
98689.538074923664681
98689.553407331040944
98689.561267283803318
98689.565255505120149
98689.567174081108533
98689.566712486092001
98689.56276593291841
98689.555563791232998
98689.548236840128084
98689.545749800803605
98689.552121634289506
98689.568515317849233
98689.592996617386234
98689.621644977101823
98689.650267220757087
98689.675399105399265
98689.695009139264585
98689.708970289415447
98689.718612838812987
98689.7265135597263
98689.736092333245324
98689.750586156311329
98689.771265353978379
98689.79667721381702
98689.823912734500482
98689.85054183039756
98689.875987903680652
98689.901431525257067
98689.928268940129783
98689.956583772640442
98689.984651715509244
98710.113027125044027
98710.639882525676512
98711.194171748371446
98711.777245522796875
98712.390126194368349
98713.033443333260948
98713.707442925006035
98714.412084750059876
98715.147090755708632
98715.912050200917292
98716.706414510743343
98717.529798754287185
98718.381907874965691
98719.262927763265907
98720.173432249284815
98721.114306318151648
98722.087369398432202
98723.092478883583681
98724.131629022973357
98725.196018708549673
98689.367754207371036
98689.395771911367774
98689.435508748574648
98689.479637187803746
98689.519919786369428
98689.551253681187518
98689.573131367680617
98689.588614482185221
98689.601005899792654
98689.611654261272633
98689.619664129058947
98689.623405408710823
98689.622701047701412
98689.62017974932678
98689.620512259672978
98689.627928408881417
98689.644375422154553
98689.66900393893593
98689.698665516756591
98689.729380047429004
98689.757798969047144
98689.781787452695426
98689.800510456989286
98689.814874053394306
98689.827507287773187
98689.842430919467006
98689.863673649262637
98689.893490239235689
98689.930824785289587
98689.971645617304603
98690.011164403666044
98690.046295457883389
98690.076928023147047
98690.104905219544889
98690.131797073147027
98690.157719535069191
98714.163157533141202
98714.766403320405516
98715.396772342690383
98716.055058565776562
98716.741938652747194
98717.457891349753481
98718.203141045625671
98718.977590916358167
98719.780970665073255
98720.612846052375971
98721.472848304765648
98722.360569899377879
98723.275887819996569
98724.219004550002865
98725.190472684087581
98726.191873019022751
98727.222993789211614
98728.285786359629128
98729.37206237121427
98689.378655118140159
98689.423724939042586
98689.472449208245962
98689.518051669365377
98689.556355794717092
98689.587056080723414
98689.612480206720647
98689.635348153184168
98689.656794224429177
98689.676004033419304
98689.691102638214943
98689.700905161793344
98689.706559551894316
98689.711482050319319
98689.719955339285661
98689.735282893641852
98689.75829670978419
98689.78742131384206
98689.819692015473265
98689.851683114087791
98689.880468696035678
98689.90454359780415
98689.924491404206492
98689.942881811337429
98689.963899629074149
98689.992425185031607
98690.03164928201295
98690.08056409980054
98690.133912006916944
98690.184644238470355
98690.227246975613525
98690.260091287695104
98690.285451752264635
98690.307120619516354
98717.053908200396108
98717.679171670781216
98718.328776226218906
98719.003256957075791
98719.703199207564467
98720.429266423598165
98721.18212132579356
98721.962341700927936
98722.770322226569988
98723.60627366162953
98724.470071035379078
98725.361447278497508
98726.279988063572091
98727.22549616410106
98728.198003641096875
98729.19775126411696
98730.225878357770853
98731.281865025841398
98732.367362155084265
98733.474537307338323
98689.362904666733812
98689.413784287447925
98689.467339559720131
98689.519014624936972
98689.565983307853458
98689.60764805371582
98689.645160767555353
98689.680110040557338
98689.713377349093207
98689.744396640904597
98689.7711957434949
98689.791822439146927
98689.8059543667041
98689.815669851261191
98689.825085056800162
98689.838773904441041
98689.859751979005523
98689.888261066414998
98689.922214967722539
98689.958081443692208
98689.992300896425149
98690.023090191403753
98690.050988216957194
98690.078270861427882
98690.108635387281538
98690.146355853154091
98690.194190660884487
98690.251131649769377
98690.311805054458091
98690.368373110410175
98690.413977217001957
98690.445853934987099
98690.466240795401973
98721.171749379616813
98721.865673338747001
98722.581599700599327
98723.319876875713817
98724.081189916701987
98724.866498264571419
98725.676940357021522
98726.513526649854612
98727.376973064165213
98728.267518676540931
98729.185169127114932
98730.129691288631875
98731.100952170556411
98732.098936471549678
98733.123660204291809
98734.175840424650232
98735.254664515887271
98736.361405892545008
98737.488606079859892
98689.399234080163296
98689.459726926259464
98689.518623652227689
98689.574236828135327
98689.626325878183707
98689.675776455609594
98689.72359179702471
98689.770095220053918
98689.814430921673193
98689.854201535505126
98689.886457235712442
98689.909784352901625
98689.925636685118661
98689.938393215474207
98689.953798202797771
98689.976204074686393
98690.006641155821853
98690.043155912731891
98690.082629450305831
98690.122228586755227
98690.160384536386118
98690.197184154851129
98690.234317261027172
98690.27454114491411
98690.320714250105084
98690.374458554113517
98690.434661208084435
98690.496743038776913
98690.553609370486811
98690.598148563294671
98690.627003587840591
98690.642717303227982
98724.612421709811315
98725.348120859838673
98726.102779899476445
98726.87662039193674
98727.670377978574834
98728.485241791539011
98729.322661205456825
98730.184113021517987
98731.070937676631729
98731.984103552953457
98732.924179511173861
98733.891209567518672
98734.885079948449857
98735.905565424342058
98736.952397006811225
98738.025979287675
98739.125342884188285
98740.251341032242635
98741.39687635183509
98689.465118962238193
98689.533099001593655
98689.597359581384808
98689.658646457799478
98689.718261466521653
98689.776855523945414
98689.833985198361916
98689.888357394025661
98689.93775724490115
98689.979612584153074
98690.012340243454673
98690.036631400376791
98690.056344689248363
98690.077407527947798
98690.104732202089508
98690.140151419502217
98690.182334396420629
98690.228161519306013
98690.274406696174992
98690.319639681474655
98690.364543741743546
98690.410731558280531
98690.45961820105731
98690.512073472360498
98690.567958400162752
98690.625802150330856
98690.682380225669476
98690.732731813957798
98690.771752890723292
98690.797119636408752
98728.747334323474206
98729.537426771814353
98730.344145180104533
98731.168338564209989
98732.011307464184938
98732.874720772684668
98733.760354690166423
98734.669862543290947
98735.60449624422472
98736.565125812892802
98737.552165813394822
98738.565712772440747
98739.60563218286552
98740.671515639827703
98741.763382402481511
98742.879985343170119
98744.021835068400833
98745.182515107851941
98689.547776628678548
98689.623176093708025
98689.694254220521543
98689.762528410021332
98689.828775958274491
98689.892725835030433
98689.953139967517927
98690.008231767555117
98690.056374457897618
98690.096981678929296
98690.131520269045723
98690.163503385934746
98690.19749758913531
98690.237329274532385
98690.284164659009548
98690.336397042483441
98690.391172780495253
98690.446081833317294
98690.50023816038447
98690.553975365197402
98690.607644797506509
98690.661081018726691
98690.713837200586568
98690.765477019405807
98690.815140881502884
98690.861309314030223
98690.901880242177867
98690.934686593391234
98732.023445125218132
98732.844936673340271
98733.681373438172159
98734.534032110052067
98735.404479233460734
98736.294412183488021
98737.205483852652833
98738.139179547972162
98739.096622926212149
98740.078592333578854
98741.08545416292327
98742.117366956561455
98743.1743812609202
98744.256334122066619
98745.363412116159452
98746.494550102681387
98747.649943852084107
98748.823568909530877
98689.652442203980172
98689.735410688852426
98689.813130018228549
98689.885951880554785
98689.953837907291017
98690.016458219572087
98690.073853635258274
98690.126669607023359
98690.176246847491711
98690.224244286451722
98690.272573561684112
98690.323202329251217
98690.377500442074961
98690.43582074365986
98690.497382803936489
98690.560749623342417
98690.624472229057574
98690.687386644072831
98690.748435643661651
98690.80643224605592
98690.860156931943493
98690.908956597500946
98690.952792117648642
98690.992002415441675
98691.027283046889352
98691.05926014961733
98691.087942174621276
98735.997771447451669
98736.863245594504406
98737.744881039427128
98738.644135544251185
98739.562363404707867
98740.500712652923539
98741.460095715679927
98742.441157082794234
98743.444361030677101
98744.470021603978239
98745.518407938245218
98746.589861165193724
98747.684647044836311
98748.80332751700189
98749.945370829576859
98751.11108865418646
98752.295397706577205
98689.555808126358897
98689.656817973867874
98689.753734765719855
98689.843871499673696
98689.925367922507576
98689.998147880469332
98690.063735993840965
98690.124667033494916
98690.183707386997412
98690.242982037831098
98690.303975035392796
98690.367865707376041
98690.435407611017581
98690.506443656748161
98690.58019496682391
98690.655377490635146
98690.730385395218036
98690.803571379976347
98690.873395688133314
98690.938367280949024
98690.99694923684001
98691.047816525344388
98691.09045985431294
98691.125778749294113
98691.155982810116257
98691.183704599810881
98691.210910208188579
98739.84369805039023
98740.754922206207993
98741.684582339366898
98742.633453521048068
98743.601805684826104
98744.589572012802819
98745.596550120753818
98746.622714213270228
98747.668302281730575
98748.733882119617192
98749.820270993368467
98750.928167075660895
98752.05837003274064
98753.210667049657786
98754.385238751696306
98755.577848267043009
98689.528699558213702
98689.635632329125656
98689.740762833433109
98689.840081373316934
98689.931096703920048
98690.01380997398519
98690.090139783816994
98690.162514971365454
98690.233094553870615
98690.303311492083594
98690.374138664628845
98690.446821538964286
98690.522617443450144
98690.602075620598043
98690.684506282443181
98690.768128742172848
98690.850464935429045
98690.929003421872039
98691.001637757814024
98691.066703538948786
98691.122937950465712
98691.169945151734282
98691.208836500707548
98691.24195077928016
98691.272110881327535
98691.3017097456177
98691.331908451902564
98691.362247536540963
98743.146706479790737
98744.100954333058326
98745.074028144037584
98746.065738036777475
98747.075686227282858
98748.103492101174197
98749.149028855390497
98750.21249643167539
98751.294422377322917
98752.395523784944089
98753.516472144328873
98754.658028181074769
98755.820133967572474
98757.002827441800036
98758.202742480876623
98689.592561719560763
98689.701512176194228
98689.807542819486116
98689.907318559024134
98690.000377831136575
98690.088305270459387
98690.172872427312541
98690.255109708130476
98690.335394897439983
98690.414232503186213
98690.492945329475333
98690.573535531977541
98690.657619285062538
98690.745209387503564
98690.834339817796717
98690.921726489192224
98691.004002121058875
98691.07837011392985
98691.143006745493039
98691.197581103886478
98691.243218818461173
98691.282374171598349
98691.318269695257186
98691.353577115485677
98691.389364386050147
98691.424846296780743
98691.458176590982475
98745.95421384718793
98746.945471561644808
98747.954458671738394
98748.98077780425956
98750.024103592819301
98751.084351717654499
98752.161772914696485
98753.256882568457513
98754.370255611982429
98755.50234611563792
98756.653574469994055
98757.823703605681658
98759.012455167845474
98760.217001526718377
98689.649112107552355
98689.7589076198783
98689.866826745783328
98689.971275189367589
98690.072158593276981
98690.169745151317329
98690.263704948607483
98690.353488489068695
98690.439242259410094
98690.522412986581912
98690.605600297290948
98690.691398789014784
98690.780864685773849
98690.872392293269513
98690.962353468043148
98691.046622033871245
98691.121763058690703
98691.185918489587493
98691.239544749259949
98691.285391382494709
98691.327581605757587
98691.369853239506483
98691.413993380920147
98691.459111904230667
98691.502462663032929
98691.540885681373766
98748.578503840282792
98749.600727640558034
98750.639553481087205
98751.695006189183914
98752.767286041504121
98753.856655686890008
98754.963349623983959
98756.087624901731033
98757.229602808234631
98758.389245434096665
98759.566073483423679
98760.759491060336586
98761.967018807743443
98689.700052956526633
98689.81244778058317
98689.924560838611796
98690.035027919366257
98690.142907760367962
98690.246663477781112
98690.344528759946115
98690.43601904688694
98690.522785020555602
98690.608057817924418
98690.695112602421432
98690.785566105187172
98690.878190531060682
98690.969349275110289
98691.054752445008489
98691.130737343090004
98691.195520963228773
98691.250380543191568
98691.299399403927964
98691.347618521976983
98691.398660557053518
98691.453282610978931
98691.509124433840043
98691.561864609306213
98691.607352230901597
98751.041184098503436
98752.089678958160221
98753.154386309572146
98754.235695317503996
98755.333966743681231
98756.449417095427634
98757.582039069326129
98758.731497693966958
98759.897244979569223
98761.078513480504625
98762.274479115614668
98763.483029792536399
98689.749355194187956
98689.864021958157537
98689.980128927956684
98690.095643093838589
98690.207847737372504
98690.313635742902989
98690.411385914121638
98690.502299672632944
98690.589667761436431
98690.677196648757672
98690.767193253122969
98690.859316601316095
98690.950469356961548
98691.036458316142671
98691.113678918700316
98691.180585303911357
98691.238860750963795
98691.293171055454877
98691.34915153257316
98691.410344691743376
98691.47637861352996
98691.543393646250479
98691.606058568591834
98691.65986034105299
98689.793330461849109
98689.910131035212544
98690.028833361124271
98690.145837975709583
98690.257221617430332
98690.360429025779013
98690.455644664121792
98690.545396458197501
98690.633446243533399
98690.722756468792795
98690.813916963292286
98690.904680873121833
98690.991379440092715
98691.070824829279445
98691.141997600891045
98691.206749400371336
98691.269638520039734
98691.335809038966545
98691.408020652015693
98691.48500512035389
98691.562169455908588
98691.633854813146172
98691.69579102449643
98689.950572023037239
98690.068840555395582
98690.183498453567154
98690.290949074842501
98690.390359349854407
98690.483627460547723
98690.57414864540624
98690.664834268100094
98690.756562357375515
98690.847666727830074
98690.935258063793299
98691.016963480375125
98691.092361025366699
98691.163638310696115
98691.234879263211042
98691.310487249269499
98691.392463046882767
98691.478907522265217
98691.564898783326498
98691.644856184386299
98691.714595628698589
98690.307962374819908
98690.405299241450848
98690.499151330441236
98690.592190665614908
98690.685268123983406
98690.77733361168066
98690.866254565436975
98690.950442610803293
98691.030261703795986
98691.108217773668002
98691.188022759306477
98691.272849058834254
98691.363606694809278
98691.45774326051469
98691.550468744608224
98691.636749177923775
98691.712958731033723
98690.609564405342098
98690.703936824473203
98690.794808309874497
98690.881592634817935
98690.965455780300545
98691.049090104992501
98691.135701633262215
98691.227564215747407
98691.324615112112951
98691.424049028399168
98691.521263721355353
98691.611832557988237
98691.692743173101917
98690.624000380150392
98690.717550843444769
98690.807007212933968
98690.894193418411305
98690.982172453950625
98691.074052403215319
98691.171255687397206
98691.272840024277684
98691.375727440739865
98691.475709764461499
98691.568972203487647
98691.652882047274034
98692.499558023453574
98692.39945165842073
98692.299416923749959
98692.197319838844123
98692.091033499862533
98691.979717932859785
98691.863613470020937
98691.742915637980332
98691.617432115774136
98691.487530838610837
98691.355083856760757
98691.223231705123908
98691.094238374047563
98690.968093017421779
98690.843436643772293
98690.718487426507636
98690.591162882483331
98690.459139884595061
98690.321198040808667
98690.178077109798323
98692.641648915669066
98692.541793808850343
98692.441592812741874
98692.342583055069554
98692.241432373019052
98692.134311632456956
98692.01965720015869
98691.898920408755657
98691.774342589065782
98691.646837794905878
98691.516294123633998
98691.382856900716433
98691.248295368553954
98691.115088054051739
98690.985022156091873
98690.858672216039849
98690.734792540664785
98690.609957966997172
98690.479694547917461
98690.34140466513054
98690.196092521291575
98690.047537800870487
98692.847903400659561
98692.775125078595011
98692.682990235087345
98692.581921298056841
98692.481213252278394
98692.382984911717358
98692.282774901585071
98692.174882117411471
98692.057227137847804
98691.932148307314492
98691.803834742604522
98691.674556848200154
98691.543635179739795
98691.409555949780042
98691.272743926689145
98691.135821695861523
98691.002262030204292
98690.874452714342624
98690.751740591949783
98690.629496274574194
98690.501180615785415
98690.362757002192666
98690.215461967192823
98690.064500348613365
98689.914984675298911
98689.768382511843811
98692.922879522433504
98692.878028904859093
98692.806560667537269
98692.71343119215453
98692.61084357809159
98692.509624429076212
98692.412192823045189
98692.31283298197377
98692.204474122685497
98692.084300514412462
98691.95545378891984
98691.824048316062544
98691.693519427761203
98691.562448089229292
98691.427819474876742
98691.288821541180369
98691.148424680854077
98691.011615118040936
98690.882304945611395
98690.760422394421767
98690.640213327525998
98690.513343393016839
98690.37464338177233
98690.225581121383584
98690.07257294858573
98689.921964246022981
98689.775389085916686
98689.628745779235032
98692.964552962148446
98692.94530709926039
98692.904837995170965
98692.835070741173695
98692.741241287789308
98692.637294791900786
98692.535455377670587
98692.438637133629527
98692.340350471233251
98692.231869068738888
98692.109545812214492
98691.977325478859711
98691.842978294196655
98691.711177305522142
98691.580092923715711
98691.445226336218184
98691.30468392081093
98691.16131418630539
98691.02160781234852
98690.891249062755378
98690.770484424690949
98690.652532330306713
98690.527162824946572
98690.388220776760136
98690.237548952136422
98690.082813222281402
98689.931420096385409
98689.785083400827716
98689.638840631509083
98689.485877999657532
98692.985767006830429
98692.974802684519091
98692.960639427285059
98692.923328734716051
98692.854266593858483
98692.759207379363943
98692.653308735854807
98692.550574099572259
98692.454364349454409
98692.357079532492207
98692.248592175703379
98692.124596850655507
98691.98977266845759
98691.85333156514389
98691.720734215516131
98691.589765776123386
98691.454550974172889
98691.312351131025935
98691.166471554068266
98691.024403645729763
98690.89311620616354
98690.773203501972603
98690.65702904103091
98690.532922678845352
98690.393784274187055
98690.241685511224205
98690.085379189898958
98689.933244192769052
98689.787345154632931
98689.641922182854614
98689.489005925745005
98689.326294044061797
98692.993917818719638
98692.987088248322834
98692.977113952176296
98692.942706938323681
98692.874401977911475
98692.778305582352914
98692.670904201688245
98692.567643338348716
98692.472016573592555
98692.375666536201607
98692.267158260205179
98692.141698321313015
98692.004450542342965
98691.865949979328434
98691.732609973958461
98691.60194506154221
98691.466885903908405
98691.323647181299748
98691.175545613223221
98691.031287046091165
98690.899419758236036
98690.780654788046377
98690.666300707511255
98690.543393468760769
98690.404084884765325
98690.250798123670393
98690.093227188597666
98689.94068775488995
98689.795212772107334
98689.65032599971164
98689.497218783813878
98689.333421729272231
98689.163791639541159
98700.369546676462051
98700.228764057450462
98700.121427648278768
98700.022397815031582
98699.90101756680815
98699.745703710519592
98692.99655433560838
98692.992917153955204
98692.985937084260513
98692.953235594715807
98692.884931294131093
98692.787546687002759
98692.678643754639779
98692.574806479009567
98692.479606889959541
98692.3838947496115
98692.275481329706963
98692.149041060227319
98692.010180426979787
98691.870462193895946
98691.736870879860362
98691.606450621256954
98691.471307148633059
98691.327152861762443
98691.177504090286675
98691.031818778501474
98690.89954947255319
98690.781584906115313
98690.668476801190991
98690.546299725727295
98690.406775182549609
98690.252605975401821
98690.094110511097824
98689.941254713092349
98689.796232030828833
98689.651942670650897
98689.498932981630787
98689.334567040932598
98689.163905325636733
98688.995521309770993
98700.545939351519337
98700.367488585965475
98700.227258628918207
98700.12203823326854
98700.025498344868538
98699.905799220912741
98699.750609493756201
98693.005014732101699
98693.003405018258491
98692.998028204136062
98692.96618018981826
98692.897907689708518
98692.79981818277156
98692.690179755038116
98692.586216202689684
98692.491403848383925
98692.396078567326185
98692.287747182548628
98692.160696749779163
98692.02087451571424
98691.880467997456435
98691.746730028244201
98691.616426615961245
98691.481348459899891
98691.336776440497488
98691.186194318332127
98691.039651788480114
98690.907231619028607
98690.789922311611008
98690.677570436659153
98690.555828268392361
98690.416220554820029
98690.261590662004892
98690.102581582963467
98689.949615823890781
98689.804943778959569
98689.66093216103036
98689.507886554958532
98689.343185191653902
98689.171835996137816
98689.002786784752971
98688.843644361040788
98709.179780121470685
98709.873654935901868
98710.604912885828526
98711.374567390666925
98712.183381724826177
98713.031700465420727
98713.919572448896361
98714.847541411116254
98715.8139987376926
98716.819312392253778
98717.851873797422741
98690.780514465179294
98690.781324914947618
98690.786582774366252
98690.796080149098998
98690.808039772440679
98690.819731867464725
98690.829971104161814
98690.839866142254323
98690.852194347142358
98690.869014939060435
98690.889593822837924
98690.909857963866671
98690.924537878905539
98690.930462524105678
98690.928035430377349
98690.921130518530845
98690.915398710683803
98690.915847902317182
98690.925493404836743
98690.94475209567463
98690.971121848459006
98690.999678358159144
98691.025159394994262
98691.043477292521857
98691.052910520884325
98691.054627815145068
98691.051789710501907
98691.047874808835331
98691.045522928063292
98691.046314141029143
98691.050793388174498
98691.058596677146852
98691.068910588146537
98691.081057920790045
98691.094851276182453
98691.11038745388214
98707.308104957424803
98707.7686684756045
98708.254845629111514
98708.766271608037641
98709.302592087828089
98709.863725717441412
98710.450126058218302
98711.062910804321291
98711.703799742434057
98712.374848642692086
98713.078226068304502
98713.815806377708213
98714.589228149008704
98715.399509471622878
98716.247333197345142
98717.132950553874252
98718.056223551015137
98719.017455861569033
98720.014769586559851
98721.04835056157026
98722.107074056941201
98690.752943573446828
98690.770443366098334
98690.790394240058959
98690.81266700582637
98690.835529258358292
98690.856565270689316
98690.874240177305182
98690.88951981284481
98690.905375685266335
98690.924758242384996
98690.948403384390986
98690.973755931016058
98690.996413457047311
98691.012734480653307
98691.021508590798476
98691.024436519190203
98691.025743496618816
98691.030184195697075
98691.041398569359444
98691.06095665047178
98691.087456026027212
98691.116490755070117
98691.142689544751192
98691.161921397302649
98691.172773308426258
98691.176874235068681
98691.17793658595474
98691.179667635326041
98691.184155370647204
98691.191762032016413
98691.20170768519165
98691.212703054188751
98691.223771665376262
98691.234773700634832
98691.246259919644217
98691.258735437630094
98710.712924923020182
98711.226204380000127
98711.76414462926914
98712.326455561589682
98712.912842016419745
98713.523287568095839
98714.158221465244424
98714.818619646233856
98715.50596434896579
98716.222052526398329
98716.968839049892267
98717.748049034838914
98718.561129949390306
98719.409053648909321
98720.292541579459794
98721.211879273076192
98722.166853710834403
98723.157570607145317
98724.181922967429273
98725.239930231226026
98726.321012798754964
98690.757536896562669
98690.790102734521497
98690.823655038344441
98690.85714301407279
98690.888212678022683
98690.91460672597168
98690.936377993231872
98690.956172909864108
98690.977816515500308
98691.003815392454271
98691.033626671458478
98691.064263711625244
98691.091843905029236
98691.113295465547708
98691.127841775858542
98691.137724671760225
98691.147132957514259
98691.160477328419802
98691.180655282194493
98691.207179679477122
98691.236126384086674
98691.262560098446556
98691.283009109654813
98691.296595366191468
98691.305132809255156
98691.312249227863504
98691.321166576759424
98691.333334574912442
98691.348218706858461
98691.364072211217717
98691.378905849647708
98691.391426937552751
98691.401598907614243
98691.410269296786282
98714.679178550970391
98715.266500144731253
98715.87746013031574
98716.511920631499379
98717.169932312026503
98717.851885218391544
98718.558553772178129
98719.291108591321972
98720.050967377188499
98720.839700102500501
98721.658743730702554
98722.5093615767546
98723.392358485943987
98724.308354699314805
98725.257670829669223
98726.240190485725179
98727.256093225994846
98728.303289897186914
98729.38165708858287
98730.481205494375899
98690.736443583504297
98690.778742444876116
98690.821743987762602
98690.865095040848246
98690.906526842751191
98690.943115212736302
98690.973506281108712
98690.999288139981218
98691.024368958707782
98691.052581305732019
98691.085691247470095
98691.122720886400202
98691.160259465250419
98691.194004531076644
98691.220954308868386
98691.241119905331288
98691.25754285507719
98691.274755225385888
98691.296515155350789
98691.323582445576903
98691.353397887796746
98691.381943119282369
98691.406125299719861
98691.42510656605009
98691.44041141193884
98691.455107331290492
98691.471788724607904
98691.491052152880002
98691.511684610886732
98691.531602075061528
98691.548752769405837
98691.561780501811882
98691.57050001884636
98691.575848045933526
98718.11037857599149
98718.744942684003036
98719.402567442404688
98720.083224133777549
98720.787020760457381
98721.514285369266872
98722.26560435607098
98723.041838839053526
98723.843988849519519
98724.673149090886
98725.530300067432108
98726.416396476444788
98727.332124243446742
98728.278038752963766
98729.254392010596348
98730.261017311408068
98731.298093395205797
98732.363736633167719
98733.458006443892373
98734.571820864613983
98690.752954431736725
98690.804952119025984
98690.858056074881461
98690.910094982318697
98690.957734837735188
98690.998815857194131
98691.033681921762764
98691.065101911211968
98691.097285868352628
98691.133682205079822
98691.175122990607633
98691.219280014760443
98691.261863231004099
98691.299090976113803
98691.329613068563049
98691.355324553296668
98691.380151654971996
98691.407803399095428
98691.439531874813838
98691.473714575477061
98691.507327319777687
98691.537974189704983
98691.564925165948807
98691.589000548745389
98691.611874231821275
98691.634920415279339
98691.658401049746317
98691.68145871112938
98691.702452426950913
98691.719358433052548
98691.730614207335748
98691.735943374660565
98722.185576834177482
98722.888550271803979
98723.614170952336281
98724.362452429340919
98725.133558593413909
98725.927804974024184
98726.74567745202512
98727.587734676708351
98728.454647052276414
98729.347060578496894
98730.265610321293934
98731.210744383730344
98732.18288208154263