/*--------------------------------*- C++ -*----------------------------------*\
  =========                 |
  \\      /  F ield         | OpenFOAM: The Open Source CFD Toolbox
   \\    /   O peration     | Website:  https://openfoam.org
    \\  /    A nd           | Version:  12
     \\/     M anipulation  |
\*---------------------------------------------------------------------------*/
FoamFile
{
    format      ascii;
    class       volScalarField;
    location    "0.00517";
    object      rho_0;
}
// * * * * * * * * * * * * * * * * * * * * * * * * * * * * * * * * * * * * * //

dimensions      [1 -3 0 0 0 0 0];

internalField   nonuniform List<scalar> 
106891
(
1.1475857450447044528
1.1477030324700381314
1.147829631943237727
1.1479573801917541953
1.1480724206608268201
1.1481673419549311976
1.1482356142227139184
1.1482683899948917805
1.1482765654447215642
1.1482441649703010178
1.1481960685602863315
1.1491658987047450591
1.1489404039854189676
1.1486959229518323156
1.148515462292947209
1.1484527723333404214
1.1485017096207983389
1.1486024921973110313
1.1486838692967813458
1.1487082212013788318
1.1486849054610113186
1.1486483231329513988
1.1486170293310968837
1.1485780564610408305
1.1484960787448716957
1.1483449701767751705
1.1481342172458259832
1.1479073135721049592
1.1477155856550429469
1.1475934440989770113
1.1475455735150033032
1.1475540405289106349
1.147592563905065477
1.1476362868363827463
1.1476660230737472101
1.1476654070615910364
1.1476217092487275284
1.1475337151139164416
1.1474190546745060004
1.1473053292198553965
1.1472103015350096911
1.1471282825473085865
1.1470339583538140538
1.1469064843241445484
1.1467513817700112355
1.1466004060960248712
1.1464934312693866314
1.1464531422134234262
1.1464692825427662548
1.147641728463369315
1.1475916059242785572
1.1475292987300766967
1.1474649783929586899
1.1474092048016966139
1.1473718205363434564
1.1473604814587010647
1.147379782725549191
1.1474318217597900826
1.1475141631717975521
1.1476245780198590651
1.1477539589473775283
1.1478951376989239286
1.1480332385635678705
1.1481575828708072695
1.1482571533955452381
1.1483196809905968916
1.1483526392109604242
1.1483383861175739948
1.148302627355950456
1.148886354549584432
1.1486495381556136586
1.1484941577253406919
1.1484697172036146817
1.1485590475152156476
1.1486901207605657582
1.1487842301774848774
1.1488037258298742227
1.1487662844163597509
1.1487135120425155943
1.1486744017695160736
1.1486406081427740222
1.1485740934272481439
1.1484417062372089813
1.148241552115377262
1.1480096208434016347
1.1477988300677957056
1.1476494778065049474
1.1475745260739129705
1.1475634110701675716
1.1475923744707721141
1.1476362179624581827
1.1476712251059169034
1.1476720589964080066
1.1476154235326927466
1.1474940114998681828
1.1473275213793885374
1.1471548325402503021
1.1470106359889065128
1.1469046099608977141
1.1468189924087124343
1.1467269453190043205
1.1466174184284869675
1.146507224484511589
1.1464288279804208948
1.1464057104427343159
1.1477540826906160731
1.1476910752089248824
1.1476207123005182087
1.1475512201784561217
1.1474903015075399448
1.1474446774516784409
1.1474203965748597245
1.1474223161849042008
1.1474546799492157945
1.1475175870559051194
1.1476115086224438766
1.147729562282219451
1.1478664722808165077
1.1480081916555244792
1.1481432469702317345
1.1482588951022671964
1.1483404559036982651
1.1483923585718061045
1.1483951161471503966
1.1483738963467235994
1.1487926814078732729
1.1485824959469930207
1.1484585770318056497
1.1484602907848631137
1.1485647360743846956
1.148701719857756931
1.1487957073177765821
1.1488136806914390764
1.1487717809793411838
1.1487138965123078194
1.1486726257925752304
1.1486449425387119661
1.1485975572350026752
1.14849446985251058
1.1483234680009231088
1.1481081850373031639
1.1478938305098915773
1.1477222796494348511
1.1476158316861579944
1.1475733108520604908
1.1475786649473473933
1.1476096697038777883
1.1476383456917276238
1.1476324329468845509
1.1475615191331871578
1.1474115613255448931
1.1471995618863481958
1.1469725040250140502
1.1467849201585356145
1.1466693128710929717
1.1466189791382812579
1.1465971101330028059
1.146566597635489515
1.1465171332885315536
1.1464661967378957375
1.1464396913638017494
1.1477946936021581337
1.1477327308037725828
1.1476759282772748261
1.1476272843786947675
1.1475889801532317414
1.1475639079939448095
1.1475559839884559299
1.1475704475750747591
1.1476103419489043223
1.1476788427634967427
1.1477723246039122085
1.1478877667298144072
1.148013508381855452
1.1481390165759386424
1.1482515773132186965
1.1483356823945152225
1.1483946475031210355
1.1484084696829448546
1.1484010210229482762
1.1484729007507434861
1.1483842268873065695
1.148396724440628569
1.1484882758302361605
1.1486028070871043827
1.1486849634218727623
1.1487042946541687893
1.148671042627261496
1.1486214715154419164
1.1485861670109824839
1.1485697559234346876
1.1485497071028032412
1.1484916630482782107
1.1483726113040524375
1.1481962084677301839
1.1479926317398021496
1.1478029737008195177
1.1476592159754162026
1.1475740319382941035
1.147542426221585421
1.1475461908172575054
1.1475563229281939837
1.1475370114058485171
1.1474541793255963462
1.1472882210901489408
1.1470508668329233437
1.1467920813112482126
1.1465820521459724191
1.1464740622465585673
1.1464739847018217134
1.1465379956410364226
1.1466019540417651257
1.1466205862508855873
1.1465893306185075406
1.1479630771643047904
1.1479130400165795667
1.1478742688649303805
1.1478462751545304155
1.1478259623728488403
1.1478097149417489931
1.1477958044120717407
1.147785643805437017
1.1477844488133288614
1.1477969567337704682
1.147830043269833622
1.1478839946222940682
1.1479589825990212937
1.1480466724287952118
1.1481393354804592111
1.1482268468211362933
1.1482947278907735811
1.1483459896101682052
1.1483619131201874275
1.1483647595307704403
1.1482901524648632119
1.1482395731299437358
1.1482596199358250377
1.1483298472209768626
1.1484146550222409378
1.1484760861050513636
1.1484937394731331572
1.1484724160124635262
1.1484362725804606598
1.1484126937845380301
1.1484146262593994958
1.1484311907552027243
1.1484302251213214241
1.1483758407038369143
1.148250108487498089
1.1480660642069071553
1.1478623725440046943
1.1476817969659067753
1.1475524238136416422
1.147479910365271305
1.1474488066927404084
1.1474303333396849158
1.1473903437817776219
1.1472955246675968777
1.1471259598039880157
1.1468915631316194403
1.1466396453984160075
1.1464416837051489839
1.1463601904183116087
1.1464115966914201206
1.1465517052112668139
1.1466970605301434194
1.146771844564983045
1.1480652097487789032
1.1480620249585307135
1.1480749275604080761
1.1480947677869406398
1.1481117856298295177
1.1481190838162798062
1.1481141972617217029
1.1481006765720611629
1.1480840917909977961
1.1480738007444908355
1.1480746307702143216
1.1480914122894776419
1.1481213181103793186
1.1481605419272453705
1.1482023255105893167
1.1482352995792250994
1.1482627381638215169
1.1482678478058989668
1.1482709330294278427
1.147967455373894774
1.1480121864721699598
1.1480812938516971045
1.148148119554276203
1.1481936560682743931
1.1482089644663848738
1.1481975617806301493
1.1481754100377958849
1.1481670705394033671
1.1481918996701621083
1.148246794028919382
1.148299613433490185
1.1483034273695393868
1.1482238971245166681
1.1480615334117312276
1.1478526655992837835
1.147648711715133496
1.1474888971368832902
1.1473838296036205087
1.1473190214936095366
1.1472680661504233157
1.1472006670745622525
1.1470915803884287332
1.1469323096014025776
1.1467351094306938997
1.1465350966353924367
1.146387494586693867
1.1463473352884561152
1.1464365743563784683
1.1466177993843287286
1.146803430972169302
1.1469036308887170517
1.148260925559237533
1.1483007817800143791
1.1483590715220637346
1.1484218375165593518
1.1484746156962291064
1.1485063183185226787
1.1485106445383908014
1.1484886350335856697
1.148445701644587702
1.1483928368106404161
1.1483380991583860276
1.1482912071078197336
1.1482550305559009463
1.1482308715298221724
1.1482165967676869478
1.1482042191245700469
1.1481970475358320716
1.1481808125947039478
1.1481730803727785428
1.1476423825302983772
1.1477405570818695058
1.1478231273020353953
1.147872468426193171
1.147889257636923066
1.1478860131989363502
1.1478800665790700464
1.1478918749361011198
1.1479372581881623905
1.1480130447238474645
1.1480892464288880994
1.1481192619027018598
1.1480650739326416776
1.1479215982320372103
1.147721858042994425
1.1475181348050911279
1.1473513929041030401
1.1472334056562405458
1.1471482334602498554
1.1470680905555914464
1.1469737301265530149
1.1468605642622826668
1.1467339083288681234
1.1466043274975021848
1.146490153389496891
1.1464206759845720907
1.1464281791296386803
1.146528053011185655
1.1466948327385746431
1.1468617697063099303
1.1485862658083301202
1.1486823277731186277
1.1487753617063896083
1.1488498436255569768
1.1488935072159704998
1.148899280446094906
1.1488679868059781253
1.1488051995211121525
1.148722320050708845
1.1486287280724916116
1.1485350352544188013
1.1484465245834105662
1.1483674493871716127
1.1483002488851103973
1.1482407805608665363
1.148193893026615342
1.1481494575907278399
1.1481216291015008402
1.1472758838920900093
1.1474002330490560286
1.1474864250156326939
1.1475327561451471592
1.1475560203854668906
1.1475781129768742872
1.1476156259951262317
1.1476742384238856065
1.1477441013104980883
1.1477998431793787759
1.1478088752632171765
1.1477478831200766951
1.1476177614918101622
1.1474459165307460129
1.1472712952502137629
1.1471232209889044018
1.1470079897607661223
1.146912528225665362
1.146821182272730999
1.1467295128433654394
1.1466463553258285923
1.146581568177479582
1.1465374989078531698
1.1465132774323372189
1.1465134561193068841
1.1465489822869447956
1.1466254587337734172
1.1467311452401502958
1.1488936861111989085
1.1490046493240826386
1.1490997051650295724
1.1491666731972420834
1.149197700375962361
1.1491898090654153464
1.1491460395426777996
1.1490724471301998477
1.1489788339506519232
1.1488729056158175634
1.1487630512133677474
1.1486536932734474625
1.148547842730346602
1.1484482733379273167
1.1483541804196415459
1.1482720516050319848
1.1481958974899098003
1.1481370889676283387
1.1468689283210034002
1.1470016517880221585
1.1471094482288244354
1.1472002935442586757
1.1472799911318982691
1.1473469382519254633
1.1473952255562052116
1.1474191242661293533
1.1474128720605427656
1.1473697836682821283
1.1472869566950505416
1.1471710223541846663
1.1470383055817401363
1.1469078899202544974
1.1467928446945980792
1.1466958837134528792
1.1466139423020969001
1.1465473183047787398
1.1465028339143359393
1.1464882259925415209
1.1465027000848464489
1.146535797797546552
1.1465740229209575585
1.1466075119172955965
1.1466325770505052528
1.1466533572834372023
1.1466779525564192443
1.14927763673903649
1.1493397864101506656
1.1493665989745798228
1.1493600449684582276
1.1493256457331755271
1.1492705003352317039
1.1491995314843919118
1.1491180603925394976
1.1490282440593724278
1.1489327707299679115
1.1488322428158226352
1.1487266684664052541
1.1486187207286224776
1.148508537752662706
1.1484032237464947279
1.1483028167815849674
1.1482168400136598674
1.1461186567135137615
1.1462582578800508681
1.1464222051124473012
1.1465984492162384356
1.1467664612313370753
1.1469015814127934139
1.1469861259484657179
1.1470176643036829045
1.1470046717282480486
1.1469566757994464901
1.1468810871280514796
1.1467849292992520205
1.146677619677513027
1.1465709676324669086
1.1464763665801476211
1.1464002536406350252
1.1463442935508898479
1.146310320999166299
1.1463036588851460706
1.1463302767080782996
1.1463895590543664582
1.146470173462890374
1.1465510376901328904
1.1466078372066621505
1.1466246974833356198
1.1466044284712615386
1.1465665905150967951
1.1494593014051375235
1.1494337084115686665
1.1493847339021505682
1.1493232217413829055
1.1492593844089828981
1.1491984137712343284
1.1491414080800963493
1.149084089292759181
1.1490213700914129191
1.1489481044592968484
1.1488611490090003819
1.148762706752574525
1.1486540377712262107
1.148542918637554866
1.1484334024660562967
1.148332082310062674
1.1457136571901234134
1.1457969305722892628
1.1459357035332009556
1.1461144844251682784
1.1462964367177685965
1.1464424014248013606
1.1465320850397515695
1.1465692245264884619
1.1465697912979664341
1.1465467435413936315
1.1465006652609202042
1.1464271700566726064
1.1463306536421005166
1.1462286538120840529
1.146143760144084256
1.1460919284231316784
1.146078098881494256
1.1460999073981257279
1.1461535122735413417
1.1462350079971086458
1.1463348536522368626
1.146432966351788485
1.1465037388034151622
1.1465293332903978563
1.1465093973437372465
1.1464614058256532569
1.1464136654589454078
1.1463939714333986064
1.1494033067240372326
1.1493372768186616018
1.1492711737599057287
1.1492126797352433254
1.1491635680881993054
1.1491214449048317015
1.1490800268425795938
1.1490329580302147683
1.1489763754274417984
1.1489079947686895444
1.1488303537098571994
1.1487448470917740462
1.1486565684963150336
1.1485693393871316825
1.1484854794229224506
1.1455221167292213291
1.1456014307562072396
1.1457356271198346764
1.1458865213573454778
1.1460141143227904337
1.1461020698896353665
1.1461578263763025909
1.1461965435914429623
1.1462224113296839434
1.146223946628334156
1.1461863854323015577
1.1461093044421053477
1.1460132542828167512
1.1459311190216801002
1.145890908278106135
1.1459048188549121328
1.1459689289131067547
1.1460698719417723446
1.1461889041892447949
1.1463020871258922107
1.1463833443181328242
1.1464136524034169717
1.1463914183329393381
1.1463359040833720481
1.1462789685846557219
1.1462501495871322277
1.1462637624403111403
1.1493004957203905025
1.1492429372289392209
1.1491952266258118609
1.1491551787598786039
1.1491202376830895737
1.1490843347464574364
1.1490420843993425226
1.1489930459174499955
1.1489387095185872312
1.1488814862703553565
1.1488229610429092631
1.1487668040866527708
1.1487145201815120998
1.1486620068567419128
1.1453820318750100871
1.1454416054283484971
1.145535095234167855
1.1456308181721270856
1.1457129388351816601
1.1457885014448199179
1.1458693956522143509
1.1459495952330192026
1.1460055858703748211
1.1460120571713554583
1.145962613801145169
1.1458785955421515457
1.1457991198798147536
1.1457623141150512502
1.1457899058220277766
1.1458810711638569568
1.1460138207875611993
1.1461527597739566975
1.1462594691857301843
1.1463048071242967207
1.146280653759188084
1.1462056320751730087
1.1461197223203269946
1.1460653027521516822
1.1460663689287839961
1.1461193730399985569
1.1492562222470461553
1.1492228672289395153
1.1491911840374442466
1.1491555351773976579
1.1491150083498338219
1.1490709149443680825
1.1490262639448158843
1.1489827796257163772
1.1489472689543682726
1.1489202526938375737
1.1489009511863415014
1.1488889240981188244
1.1488746632768536138
1.1452820467383670877
1.1453079490375903671
1.145358593783081691
1.1454240028132423035
1.1455091286677008267
1.1456186288414271779
1.1457412083140323666
1.1458449236673737825
1.1458953506338540596
1.1458788895175799905
1.1458131164619731468
1.1457386900659818352
1.1457011017352891624
1.145730306665046383
1.1458285943744772606
1.1459701369821941874
1.1461091278037403018
1.1461962451930205464
1.1462000434239789648
1.1461228249012940239
1.1460024171084675082
1.1458950060805936921
1.1458476374487289728
1.1458762347274766835
1.1459605183772707537
1.1492793322959145019
1.1492565811756645378
1.1492244585762683151
1.1491839401408761034
1.149139637500079747
1.1490994081039291874
1.1490700441979100344
1.14905757229520189
1.1490625368279139273
1.1490800950687867221
1.1491046076567903444
1.1491204763742326467
1.1452382091814887755
1.1452347700227860638
1.1452664524054456674
1.1453390205164488691
1.1454554812758974691
1.1456003986311444898
1.1457375342677398322
1.1458262450598775128
1.1458441936017464968
1.1458009686617343093
1.1457344537770322024
1.1456925475929387037
1.1457105855718003884
1.1457961544695904887
1.1459240904164014196
1.1460443434874008073
1.1461034815647912488
1.1460696518064532601
1.1459521850160350187
1.1458009475834407542
1.1456822170515006398
1.1456424354341459004
1.1456891638062591809
1.1457918333316454707
1.1452641706818103007
1.1452487333717684681
1.1452853925558792447
1.145381080169504795
1.1455226244537157765
1.1456735036189982235
1.1457882671664438856
1.1458359665133517336
1.145817159979838129
1.1457631166764989938
1.1457192925731558564
1.1457233152616486116
1.1457865122237680389
1.1458857280605341256
1.1459719546334379281
1.1459933894863503223
1.1459238891139069683
1.145781733694813509
1.1456203554139221534
1.1455019461091551225
1.1454701348205960088
1.1455261800928118188
1.1456369382351418995
1.1453296244769333168
1.1453827540876417856
1.1454964556926070518
1.1456383983069196031
1.1457619396105693799
1.1458298047462478486
1.1458328364264489529
1.1457936898310190355
1.1457529899391809547
1.1457471550062208188
1.1457877437215904237
1.1458528192477324126
1.1458984983402165092
1.1458818937401191729
1.1457862488933627798
1.1456324556994954555
1.1454724083084164565
1.1453647293059223689
1.1453435028727352307
1.1454042847634444691
1.1455154303933658966
1.1457446725255990838
1.1458192632008132872
1.1458369262031375957
1.1458129131437473358
1.1457820220441876646
1.1457754476424386603
1.1458000307346214441
1.1458341697419374139
1.1458400959424877019
1.1457875326720461384
1.1456706804279999101
1.1455162139689214484
1.1453711881806907247
1.1452817252473019849
1.1452702921564710259
1.145331237077848785
1.1454387614362084857
1.1457935151478524372
1.145795795804129602
1.1458150514282638976
1.1458275807117439538
1.1458020673987880933
1.1457203082495361901
1.1455902496326957341
1.1454421506098182437
1.1453174913288306502
1.1452486380480433326
1.1452489157727152591
1.1453098264096932546
1.1454120685597675156
1.1458021646202491972
1.1458251185947023743
1.145828138825688125
1.1457846095744539383
1.1456867388069857938
1.1455528455342025573
1.1454161649568124215
1.1453117754584414278
1.1452620118176137787
1.1452720544655032864
1.1453318876986289254
1.1454284340276568166
1.1466765462390453578
1.1472148622731213052
1.1476355166497540505
1.1479763227504460321
1.1482481067871459501
1.1484521015848527803
1.1485989248640153804
1.1487062025848491231
1.1487814610819011563
1.1488182605741439346
1.1488020215447760641
1.1487379626775420238
1.148651987010892439
1.1485759752527018307
1.1485320785569264057
1.1485302173600708819
1.148572892989552674
1.1486527927255156811
1.1487472251566701598
1.1488220498554650995
1.1455638076273075843
1.1463613122589801918
1.1469627564568045663
1.147451070129601236
1.1478754843439109568
1.1482363435844800126
1.1485101580742733685
1.1486855274890226397
1.14878635533393747
1.1488458046444978145
1.1488838289027001327
1.1488954128251620546
1.1488658020928284031
1.1487930067985194782
1.1486955833325194209
1.1486041023722750598
1.1485596088906024903
1.148590109747163801
1.1486921599756727552
1.1488248628624304626
1.1489312580832420352
1.1489752705485829498
1.1429270887086449004
1.1441642957539723824
1.1452237714417345948
1.146037569044731308
1.1466572962208330111
1.1471825800981099164
1.147674092854475969
1.1481225549153726284
1.1484773121376703475
1.1487032730982327244
1.1488205660521488838
1.1488858100903238668
1.1489389804571854548
1.1489826167513794708
1.1489862838765683151
1.1489235500237584553
1.1488025567922857118
1.148666592418625676
1.1485828079654953893
1.1486022928154795419
1.1487235642794952906
1.1488872025481529082
1.1490146643306728969
1.1490624237872637536
1.1490513811995530791
1.1490424884464167654
1.1415258167100788
1.14278654961656434
1.1440515648190030529
1.1451232343274357905
1.1459271937942181463
1.1465219619210564872
1.1470298462694894503
1.1475282846809697901
1.1480040423042963127
1.1483828967906641871
1.1486104722721932614
1.1487047753493950797
1.1487447560875865271
1.1487934205616852079
1.1488578321418740913
1.148892241216042942
1.1488449321216158694
1.1487101232174312671
1.1485415972431742837
1.1484274254472692789
1.1484391271681921864
1.1485749105031588524
1.148759627550319351
1.1488949845040727915
1.1489330890890641079
1.1489057005401517308
1.148891041148264458
1.1489395497475021202
1.1423945915912276927
1.1433380183573635946
1.1444245127393961603
1.1454510848883696639
1.1462303243409546205
1.1467071710553347064
1.14697536975120995
1.1471929453294194001
1.1474655656921570746
1.1477810237203092125
1.1480417937454667765
1.1481687360555237198
1.1481713289292712066
1.1481346617015546485
1.1481383321307911949
1.1481890488021753161
1.1482259605452498352
1.1481750079240096163
1.1480176178399454923
1.1478192741986030789
1.147683922098425402
1.1476942868256745367
1.1478433622774693035
1.1480367044292338896
1.148157089678661924
1.1481552812574091771
1.148080125546095287
1.1480324235733831983
1.1480776338264071512
1.1481948793153873289
1.1443215538441862122
1.1444598966399548434
1.1448735554804654324
1.1454737552441385251
1.146061389156419752
1.1464476395063063485
1.1465748833988180788
1.1465481073829129066
1.1465393194692612422
1.1466632592822221248
1.1468919861326487553
1.1470992288057679787
1.1471761647061764489
1.147122526499446904
1.1470323811061868824
1.1470038226954941685
1.1470483190482281266
1.1470900057965529584
1.1470349416892933192
1.1468512310894798389
1.1466136649527971514
1.1464431214725636643
1.1464348526110916815
1.1465838782417363539
1.1467829797423489957
1.1469017979776261473
1.1468880046910110426
1.14680252039907149
1.1467589991179680808
1.1468290923008721549
1.146981843540183954
1.1471192456312606645
1.1436902172265299704
1.1436775853521499169
1.1439856752888239999
1.1445230814364164562
1.1450673421698867038
1.1454105016385591753
1.1454845986335548957
1.1454038015138781059
1.1453549193717558197
1.1454614467385946242
1.1456924323408435029
1.1459036058867004826
1.1459718596879211461
1.1458973145777955338
1.1457877307835599989
1.1457561269033109674
1.1458181074785473985
1.1458818929768403994
1.1458347400268706906
1.1456367458657339409
1.1453711871548810652
1.1451797084749906208
1.145167152411489031
1.1453296389446521175
1.1455461352883149484
1.1456733382275030575
1.145652786673076351
1.1455551959099010695
1.1455060430681163197
1.1455824620206869202
1.1457509594382562224
1.1459017298249525307
1.1459453347516193045
1.14312409982859986
1.142835352501805124
1.1427601015931010409
1.1431160002729463532
1.1438105452662514772
1.1444664672769133684
1.1422638859726794713
1.1422371689569887909
1.1425483790631161263
1.1431030881698198698
1.1436685412912344084
1.1440221359460216455
1.1440941996695663807
1.1440031120223488337
1.1439510563021129119
1.144067572321047388
1.1443199267564787558
1.1445504817024156896
1.1446265453242145949
1.1445472914026000311
1.1444309244425978633
1.1444011379204299672
1.1444774208142771688
1.1445599070517473717
1.1445230149132603614
1.1443244444331646115
1.1440495637504370929
1.1438555096307871928
1.1438527979614454555
1.144035169468072155
1.1442725918055458578
1.1444117239220974458
1.1443918099370988806
1.1442897930394542172
1.1442426243010730413
1.1443302998235629353
1.1445177260214198789
1.144687578508060577
1.1447426207854058955
1.144671238237072286
1.1440972588554703115
1.1438134320799091537
1.143432456305203182
1.1432824946467776694
1.1435811400460873521
1.1442286417714924163
1.1448318460804174368
1.1408099161832641055
1.1407898312738908864
1.1411162203350420086
1.1416890603835549989
1.1422736434820222051
1.1426389094207949348
1.1427143966993014157
1.1426210501039970602
1.1425722667371103203
1.1426978632874775776
1.1429638028264361704
1.1432052251908195739
1.1432837026499185207
1.1432009770377939972
1.1430824745137020404
1.1430588564162582621
1.1431486979235028212
1.1432466637607017201
1.1432170747131167321
1.1430166516952937616
1.1427323753248752602
1.1425346363494850443
1.1425376103791380356
1.1427312664894591077
1.1429812791423668017
1.1431255985323260926
1.1431041346269963377
1.1429960433639148043
1.142947911425852503
1.1430406555448464623
1.1432362815841963233
1.1434138749210576158
1.1434720613047240079
1.1433993301933995657
1.1432625637238125194
1.1482205836772036989
1.1481703379037755397
1.1481009569910536339
1.1480323251077866331
1.1479752687824846813
1.1479405280067789263
1.1479315969303562905
1.1479398941401162126
1.1479698279803907113
1.1479988398582037235
1.1480395905524789502
1.1488499917621828317
1.1487415521857904377
1.1486196386925828783
1.1485072428200946426
1.1484229771672889164
1.1483627854056523976
1.1482968968550424371
1.1481950289763833695
1.1480565412731786878
1.1479200962218421012
1.1478379391324022851
1.1478440544116026434
1.1479287826169732867
1.1480385369301302489
1.1481078604596890447
1.1480940354750119869
1.1479915283736457088
1.1478252416228871269
1.1476375735180597282
1.1474726352835344922
1.147370314717915285
1.1473540965257686963
1.1474175178719976387
1.1475255676495637047
1.1476260240815194802
1.1476736807578067356
1.1476490868258530931
1.1475582996274280578
1.1474225751965922981
1.1472669666392016907
1.1471132006564233041
1.1469750494036643484
1.1468539764560663485
1.1467410847549268649
1.1466277321616920037
1.1465174481141355844
1.1474266563112529571
1.1474524248730864073
1.1475162252420041398
1.1476185537482399557
1.1477510298876649752
1.1478978280783427302
1.1480387881040217124
1.1481548430588151
1.1482313617928585625
1.148262495295196306
1.1482498700537071556
1.148205511549166058
1.1481419068382081594
1.148077883006445532
1.1480244490021327408
1.1479931798330500481
1.147988417493197133
1.148003418307576684
1.1480445370966998464
1.1480894592570380919
1.1481529783016115598
1.1485797367452332818
1.1485198397705307372
1.1484506639065132916
1.1483899744579382229
1.1483602734100284426
1.1483553907460071208
1.1483449732656119124
1.1482913688880223013
1.1481836058054630811
1.1480455818645598498
1.1479275305972123089
1.1478766680119381061
1.1479018606606465891
1.1479709219903146966
1.1480347306117426598
1.148050443376336327
1.1479951226857552093
1.1478732593667173578
1.1477152693042398379
1.1475644401102316206
1.1474667351141449867
1.1474515976140733375
1.147516120899358949
1.1476200741878201939
1.1477050777308523966
1.1477262248669237721
1.1476693123185981449
1.1475499920524707687
1.147400391493967664
1.1472513422183849841
1.1471209050372705995
1.1470129954728105481
1.1469195680733232923
1.1468270331303769272
1.1467275146921838136
1.1466288960404718011
1.1475394282895508002
1.1475525618329467381
1.1476002532637814557
1.1476822187299438038
1.1477911995502019238
1.1479140783258687808
1.1480341425579012604
1.1481344816256509045
1.1482020126200940258
1.1482308961882614629
1.1482210122504543648
1.1481829406133745586
1.1481274464179365147
1.148071234836686827
1.1480243654841024714
1.1479981944303285779
1.1479981926575231199
1.1480200653201191319
1.1480714099605069389
1.148130028276155512
1.1482125169659642694
1.1483090954102690429
1.1482885525347388267
1.1482694156165091925
1.1482750957628142796
1.1483127626661038256
1.148355935713549103
1.1483605552873477063
1.1482965064736359029
1.1481705832495738839
1.1480252874456216006
1.1479114364135600823
1.1478620821550284958
1.1478794018297859836
1.1479337074193078916
1.1479791298559549606
1.1479735149767111846
1.1478987194944840766
1.1477705360032854909
1.1476330902735847328
1.1475387392413587406
1.1475199023139606158
1.1475718294525727448
1.1476544093667011559
1.1477127034450513854
1.147705140321921391
1.1476218370237718513
1.1474844414499618672
1.1473309486779912358
1.1471951718073467585
1.1470932223699992214
1.147022349362576854
1.1469674941702892035
1.1469105217298571908
1.1468413407488786682
1.1476906175201460059
1.1477142833217506279
1.1477653797246949452
1.1478386006275596021
1.1479242547646320016
1.1480103584552550089
1.1480843299553928905
1.1481359958995338566
1.1481605628856708101
1.1481565980188981335
1.1481307460136227494
1.1480905221059292121
1.1480493038903742953
1.1480151810584493521
1.1479983794241244155
1.1480045212553424694
1.1480312412739412942
1.1480879302281734589
1.1481536121358231206
1.1482455643573841186
1.1481179660951026378
1.1481303756152609896
1.1481321189680500083
1.1481534578353680409
1.1482135505527031327
1.1482957895524079639
1.1483568446992187262
1.1483510111886212623
1.1482629325328819192
1.148116338377449086
1.1479594411542624055
1.1478445534419408069
1.1478035142633264964
1.1478295305974755003
1.1478813390251172422
1.1479063950312857756
1.1478689294518338304
1.1477705992508029365
1.1476488084546441204
1.147552903590533413
1.1475160214946957815
1.1475396649638214264
1.1475911617241012497
1.147621961171230609
1.1475957913541363631
1.1475068683296807404
1.1473770526391997571
1.1472419421363375669
1.147133054912874206
1.1470646724284088158
1.1470317698203604806
1.1470162526450642382
1.1469960298445933677
1.1469565285303455759
1.1478436341653466268
1.1478346982226803608
1.1478474889475089871
1.1478787860042447555
1.1479221937833368195
1.1479698324733680348
1.1480141253783098243
1.1480478343958175902
1.1480677328128399139
1.1480722092926174405
1.1480651969566546544
1.1480499818815164126
1.1480352984533974681
1.1480254299402981033
1.1480278881129410973
1.1480472199269333711
1.1480812345445279288
1.1481398904391251214
1.1482045591737566337
1.148292885903343441
1.1479610213494031434
1.1479702356536858332
1.1479931060692503131
1.1480551100155693689
1.1481535221182217477
1.1482530224239511085
1.1483071007916854089
1.1482802986563358516
1.1481698549294898637
1.1480093737810523891
1.1478545532052664147
1.1477559018970402427
1.1477301867276121783
1.1477524069490592229
1.1477740304834287421
1.1477519899397368164
1.1476742905004093664
1.1475641960891156401
1.1474627922570737049
1.1474037500181835103
1.1473937984381914479
1.1474111838096090477
1.1474219249590698055
1.1474000788754887825
1.1473406034981015189
1.1472561596283654684
1.1471683922013977686
1.1470987026064838332
1.1470607622805042425
1.1470551995348872154
1.1470671885738799034
1.147073307773807338
1.1479486862068097874
1.1479214336616760939
1.1479105882733964261
1.1479128797908306758
1.1479241163084257238
1.1479402886275449358
1.1479578121803135637
1.1479749950570339312
1.1479901425926783975
1.1480051821656298561
1.1480201987716005529
1.1480394035783687556
1.148062878784466001