/*--------------------------------*- C++ -*----------------------------------*\
  =========                 |
  \\      /  F ield         | OpenFOAM: The Open Source CFD Toolbox
   \\    /   O peration     | Website:  https://openfoam.org
    \\  /    A nd           | Version:  12
     \\/     M anipulation  |
\*---------------------------------------------------------------------------*/
FoamFile
{
    format      ascii;
    class       volScalarField;
    location    "0.0051";
    object      alphat;
}
// * * * * * * * * * * * * * * * * * * * * * * * * * * * * * * * * * * * * * //

dimensions      [1 -1 -1 0 0 0 0];

internalField   nonuniform List<scalar> 
75962
(
6.1169850112214169452e-07
7.3023254451893104106e-07
7.9867614356524587802e-07
8.3559496725621153012e-07
9.0464148457221989973e-07
1.0643003217844837141e-06
1.2181284008981153163e-06
1.2963864663266885593e-06
1.354717528385298959e-06
1.4509928681618615633e-06
1.5820661499559507811e-06
1.7080627164784798746e-06
1.7957103320379070708e-06
1.8645018168824176656e-06
1.955964144882733636e-06
2.0897788384983780756e-06
2.2337810162430589246e-06
2.3350307231735988143e-06
2.3821591878732766815e-06
2.4161396809086164632e-06
2.4864978244870307946e-06
2.6024939824806404266e-06
2.7204293440877110735e-06
2.8070626261686518176e-06
2.8563948477687471212e-06
2.8978630305655361217e-06
2.9769473250841763042e-06
3.1163839367384582469e-06
3.2931329955705230783e-06
3.4582237237466290086e-06
3.5779329091939954546e-06
3.6576150905521636605e-06
3.7238257761811080754e-06
3.7872927413230202142e-06
3.8366908213457068559e-06
3.8635259883524963398e-06
3.8799681260690407149e-06
3.9078417908365173109e-06
3.9752382278121931456e-06
4.1341769456883123809e-06
4.2863534422721546931e-06
4.3791021948831964321e-06
4.4227770382891052201e-06
4.473325331729558476e-06
4.6009637548760210543e-06
4.9573921595479526013e-06
5.3134653693092594404e-06
5.4925512248879266707e-06
5.540196456391153648e-06
5.5367795993469077231e-06
5.5193224926640624948e-06
5.502328455571384092e-06
5.4984311598809564096e-06
5.5006762097564877774e-06
5.5201319150998318688e-06
5.6066722228818623774e-06
5.7710622707933431665e-06
5.8746370793107848384e-06
5.9065486941266813351e-06
5.9007976615285081038e-06
5.8928505299729964375e-06
5.9126848675922966846e-06
6.0308678943828469688e-06
6.2096393378924776281e-06
6.342360118414891985e-06
6.4436381211298189434e-06
6.5220922452883600015e-06
6.5756220919427493346e-06
6.6028817761056960396e-06
6.6185012979942271292e-06
6.6479071305384492569e-06
6.7404644718682761763e-06
7.0589107437098982988e-06
7.4519008237484949428e-06
7.6641853935388333242e-06
7.7263383098202692329e-06
7.7193140125868917083e-06
7.6933890189726450508e-06
7.6801915901604330723e-06
7.7061457854931952741e-06
7.8766954330413692609e-06
8.1485507616372692677e-06
8.3098111847866254774e-06
8.3689611574669576832e-06
8.3723078131037434766e-06
8.3642633987662193409e-06
8.3648941146070869199e-06
8.4028263437125526948e-06
8.4765174479018448134e-06
8.4926186300405786373e-06
8.4748827296149309738e-06
8.403768131608675785e-06
8.348658431885032415e-06
8.3363708871614447814e-06
8.359271855833631855e-06
8.4740223816229430444e-06
8.5710766451453642643e-06
8.6145574158803406853e-06
8.6300686361612436408e-06
8.6345313674644832709e-06
8.6342328020404310437e-06
8.630488042350666799e-06
8.6212936836145020759e-06
8.6025731799777663695e-06
8.5830311677976728503e-06
8.5669131439962649193e-06
8.5543677985833542065e-06
8.5446527831328749475e-06
8.5418017646540764557e-06
8.5628152702337151402e-06
8.6307598683405488795e-06
8.691560750709580738e-06
8.7343987988999477847e-06
8.7715075544119983948e-06
8.8162435782944107321e-06
8.8737420924029014531e-06
8.9379392551971183304e-06
8.9963824400798419589e-06
9.0375971082826622797e-06
9.0581202133130151908e-06
9.0640302716020889836e-06
9.0681994219444038007e-06
9.083469912069092961e-06
9.1304511385089783611e-06
9.2141615826636278589e-06
9.2990087901219813701e-06
9.3706377932868780881e-06
9.4235053274398244164e-06
9.4599931396057783227e-06
9.4893856785427796376e-06
9.5221071898642789533e-06
9.563491684527255043e-06
9.612705084235546849e-06
9.6635048416942349598e-06
9.7084606984651411943e-06
9.742189213561893094e-06
9.7638470043841627422e-06
9.7782734410903341033e-06
9.7925885401754793851e-06
9.8145274928924627119e-06
9.8494581436871179851e-06
9.898471694742023088e-06
9.9588406751970737609e-06
1.002519225309500313e-05
1.0090406524154073111e-05
1.0147803803243467751e-05
1.019249507918712723e-05
1.0223129325052279692e-05
1.0242020106831914498e-05
1.02542869378827021e-05
1.0266303189925537543e-05
1.0283349032360806667e-05
1.0308957197572166047e-05
1.0343366402168124849e-05
1.0384939038572705902e-05
1.0430811085315047572e-05
1.0477985122330318621e-05
1.0523000016341573594e-05
1.0562949966793737106e-05
1.0595813278643786905e-05
1.0620505740537049665e-05
1.063849437624374793e-05
1.0652340248143793108e-05
1.0665555912363096082e-05
1.0681963780993785506e-05
1.070396477773530586e-05
1.0733508683995244304e-05
1.0771029145208953746e-05
1.0815185504278530853e-05
1.0863534866856293027e-05
1.0913283193525396428e-05
1.0961714025579958337e-05
1.1006408917809514718e-05
1.1045392703803244363e-05
1.1077856765098773392e-05
1.1103362951235835396e-05
1.1121385183421697132e-05
1.1132504197301972763e-05
1.1137714625882795639e-05
1.1138172406522625678e-05
1.113560077298411125e-05
1.1131329593563596807e-05
1.1126240677190877548e-05
1.1120609482486227588e-05
1.1114407852805941631e-05
1.1107396867409680526e-05
1.1098892793684431586e-05
1.1087279331661698974e-05
1.0563598907232621844e-05
1.0552561086446089967e-05
1.0541532290886163989e-05
1.0530630734879316252e-05
1.0519799606616280109e-05
1.0508724809914649434e-05
1.0496991699398794227e-05
1.0484449602181487063e-05
1.0471252187912314098e-05
1.0457694925437867713e-05
1.0444029734554747234e-05
1.0430505780835035279e-05
1.0417364335173464194e-05
1.0404748172120955807e-05
1.0392549140558851142e-05
1.0380522115981570408e-05
1.0368427532225586092e-05
1.0356164988616809068e-05
1.034367474479336455e-05
1.0331000085887827802e-05
1.0318259512511928548e-05
1.0305659897125367619e-05
1.0293254538452741893e-05
1.0280983981175294029e-05
1.026865642010624454e-05
1.0256221956426895897e-05
1.0243603233914439654e-05
1.0230837900109659636e-05
1.0217814510250654137e-05
1.0204572736104925234e-05
1.0190993696560688724e-05
1.0177162881403546056e-05
1.0163023002281222715e-05
1.0148911395799648525e-05
1.0135044638036982184e-05
1.0121907861134547853e-05
1.0109416093319089139e-05
1.0097472327316608614e-05
1.0085377126132818434e-05
1.0072828530925090722e-05
1.0059409527429954059e-05
1.0045464574674553565e-05
1.0031216106407794236e-05
1.0017379248819710321e-05
1.0004076160616078811e-05
9.991604598099461287e-06
9.9795032196687298082e-06
9.9677222046682505005e-06
9.9556253125793454879e-06
9.9432604402376586133e-06
9.9302196625486806086e-06
9.9170505936735175263e-06
9.903832612227700326e-06
9.8913262992765277353e-06
9.8793242365173328289e-06
9.8680270652460872464e-06
9.8566809923171330336e-06
9.8452154213961989431e-06
9.8328991281442612815e-06
9.8200524730443803723e-06
9.806531468743011641e-06
9.7931390966953054571e-06
9.7797641551702430772e-06
9.7668011268108751046e-06
9.7536333799771009418e-06
9.7404643136316458021e-06
9.7268172221319404067e-06
9.7133036196926234235e-06
9.6997007783238365031e-06
9.6866839670663844195e-06
9.6738409224624474081e-06
9.6616043026271284766e-06
9.6493183263062293822e-06
9.6373331372618384946e-06
9.6250380392191949616e-06
9.6129784527455620924e-06
9.6006493556012058023e-06
9.5886165646766949712e-06
9.5761587101154059504e-06
9.5636553672005104843e-06
9.5503647841939707754e-06
9.5369018700915146245e-06
9.5228998496293392346e-06
9.5092920618446829118e-06
9.4958112282925688475e-06
9.4832874617312431722e-06
9.4712080053455625239e-06
9.460133824299151863e-06
9.449268168210580901e-06
9.4388824358206058153e-06
9.4280615151638481896e-06
9.4171577169998552147e-06
9.4056321586469139714e-06
9.3941868209987600862e-06
9.3825461891498817423e-06
9.3713537686634933746e-06
9.3602150670984704333e-06
9.3495294018060503643e-06
9.3387073595588030524e-06
9.3280095918142519768e-06
9.31681983037889439e-06
9.3055725847833030043e-06
9.2939021922719420237e-06
9.2824489690958861677e-06
9.2708379212127984469e-06
9.25957142972265447e-06
9.2480284346015245023e-06
9.2366064445268704613e-06
9.2246037661145765109e-06
9.2125831615671901061e-06
9.2000134234409120898e-06
9.1876454385368187778e-06
9.1749799604309487371e-06
9.1627578775159592681e-06
9.1504791288756961033e-06
9.1388582236199218575e-06
9.1273269295908321716e-06
9.1163953519917115183e-06
9.1053151188533999695e-06
9.0944576438226685768e-06
9.0830849992827970027e-06
9.0716029645906409983e-06
9.0594444196502327965e-06
9.0472180648526503142e-06
9.0345752171317238535e-06
9.0221974704838778654e-06
9.0097430894056239928e-06
8.9977632283256160623e-06
8.9859176772501375935e-06
8.9746304617953079005e-06
8.9634428638882112105e-06
8.9525781755477590313e-06
8.941484049839800043e-06
8.9303521494619489374e-06
8.9187527172693771858e-06
8.906900097136075887e-06
8.8946083367135974078e-06
8.8822249004095450524e-06
8.869820021531464756e-06
8.8577609285363097756e-06
8.8460156563343134503e-06
8.8347882056990740607e-06
8.82379557297354128e-06
8.8131896921433527502e-06
8.802527783580362081e-06
8.7920217180594609333e-06
8.7812108719298279135e-06
8.7704634773255059739e-06
8.7593702598645150172e-06
8.7484083805948503521e-06
8.7372097792785340489e-06
8.7263095606128365404e-06
8.7152996938790735164e-06
8.7046232733585190717e-06
8.6938433327267158841e-06
8.6832988191556207015e-06
8.6727637481779340896e-06
8.6624264990725288347e-06
8.6522199408149768289e-06
8.6421368683652077125e-06
8.6321217075980687669e-06
8.6221893975923663306e-06
8.6121411545057168787e-06
8.6022460002160522574e-06
8.592067264218785345e-06
8.5821348976925055735e-06
8.571899318599331187e-06
8.5619078877512839727e-06
8.5518108944440908361e-06
8.5419449741631065637e-06
8.5322847275405076079e-06
8.5228727529761313649e-06
8.513684500180796223e-06
8.5046650261796565847e-06
8.4955652373299833094e-06
8.486423282453512597e-06
8.4769833568584726367e-06
8.4672620613782541402e-06
8.4573010144575875067e-06
8.4469502998407005256e-06
8.436561354821547456e-06
8.4258948740519704654e-06
8.4153516447642069556e-06
8.4048235243408170222e-06
8.3946977675136512766e-06
8.3845871900915630549e-06
8.3750766253106517578e-06
8.3653751854063891158e-06
8.3562064828135414137e-06
8.3469114988224779556e-06
8.3380769927304052155e-06
8.3291811376464228194e-06
8.3206751257206785973e-06
8.3117874574436668679e-06
8.3031865831365617273e-06
8.2938112711223378374e-06
8.2847040284527088922e-06
8.2748000763195683971e-06
8.2654630382343111908e-06
8.2555542453092781299e-06
8.246556361775474276e-06
8.237060130756831863e-06
8.2283949647223537325e-06
8.2189710650664005691e-06
8.210231997007545049e-06
8.2006603694780940046e-06
8.1918245057911799373e-06
8.182371531254831518e-06
8.1737863370041583813e-06
8.1645819482255656047e-06
8.1563301760445500513e-06
8.1473843797698939728e-06
8.1391905214392803493e-06
8.1300843792396489893e-06
8.1214193799724903493e-06
8.1115448725751009652e-06
8.102188017745645809e-06
8.0916586162881442825e-06
8.0820123015377908751e-06
8.0714665941690934839e-06
8.0621576430426204253e-06
8.0521101707773693558e-06
8.0435799001373606732e-06
8.034211431748034858e-06
8.0262699653260279812e-06
8.0172102793688783965e-06
8.009305418193799953e-06
8.0001574124347796431e-06
7.9919393435792407019e-06
7.9824018230841607224e-06
7.9736025012223680163e-06
7.9633141499739888177e-06
7.9537814131777737921e-06
7.9428172701784052214e-06
7.9328376487588998832e-06
7.9216119276596983314e-06
7.9115172907361463978e-06
7.9003963519867084569e-06
7.8906242335205216718e-06
7.8798953833803563523e-06
7.8707425334068323644e-06
7.8605501345275858238e-06
7.8518413848959238232e-06
7.841995673448535627e-06
7.8336744940962763827e-06
7.8240984108738391358e-06
7.8161133180555490956e-06
7.8069051281943641242e-06
7.7992213194816091169e-06
7.790248803458421509e-06
7.782774924137678783e-06
7.7739817303058356742e-06
7.7665538228096608875e-06
7.7576652324113119438e-06
6.1841536088121242542e-07
7.304409229118405274e-07
8.6076478369778047348e-07
9.6553875361535501519e-07
1.0473315377617702524e-06
1.1298806183697715666e-06
1.2143178440544101124e-06
1.3177005454843589218e-06
1.4577035145429575145e-06
1.5996135625048868712e-06
1.7067874467595017261e-06
1.7910458177208516739e-06
1.8852797607775580683e-06
1.9960157293024460516e-06
2.1138813744951485492e-06
2.240416676627885307e-06
2.3587622544650645551e-06
2.4371912723063640183e-06
2.4764342910398445378e-06
2.5205316550540999944e-06
2.6118803357180805027e-06
2.7472250129219172525e-06
2.8833987268328320517e-06
2.9797666213332780088e-06
3.0272543686450705093e-06
3.0528842785264190767e-06
3.0968617743838291499e-06
3.2013911343546084238e-06
3.3851434922677918e-06
3.5763752348164863149e-06
3.7310485612761558383e-06
3.837613978904512598e-06
3.909363786783772216e-06
3.9590813280612294233e-06
3.9899885095262815289e-06
4.0092614952561949279e-06
4.0346773214953286589e-06
4.0880111825347994331e-06
4.2142488529884484843e-06
4.3867056230406749806e-06
4.5374758215898741993e-06
4.6327893173689184558e-06
4.6757962841771830408e-06
4.71583809650964272e-06
4.8126404479724448182e-06
5.1064875192033229348e-06
5.478614976697812482e-06
5.6893047310601514157e-06
5.7599962189091792849e-06
5.7618628584744455975e-06
5.7503954095870647752e-06
5.7406477813955450511e-06
5.7395979131935017292e-06
5.7445567897096017215e-06
5.767044824315149599e-06
5.8526085449168938497e-06
6.0024096156758477533e-06
6.1040933658680708086e-06
6.1431860525982167202e-06
6.1433496733710624707e-06
6.1386453676433392146e-06
6.150904327803316704e-06
6.2346899564569143324e-06
6.4374463670652356579e-06
6.6187009793653584492e-06
6.7666722460126778167e-06
6.8819828458401786017e-06
6.9585030130825867488e-06
6.9961933332926518839e-06
7.0130774386745096274e-06
7.0384221286339161095e-06
7.1164631270164867952e-06
7.3824757224010216755e-06
7.7099247546388689702e-06
7.8950079818402505967e-06
7.9543817144458120466e-06
7.9509271338788081534e-06
7.9364048209823981919e-06
7.9364718269004428492e-06
8.0164383017612208268e-06
8.3232733383979954267e-06
8.6349307436950950746e-06
8.7977025039662036391e-06
8.8477590693749949145e-06
8.8458746561915978473e-06
8.8356253068309433977e-06
8.8392413801019715185e-06
8.8953720738006894595e-06
8.991340618418635402e-06
9.0138453633612691991e-06
8.9956244132991994002e-06
8.9161711718393850856e-06
8.8507318487591474926e-06
8.8363397524978789708e-06
8.8614893891427768622e-06
8.9907832821050842685e-06
9.1006201066378027207e-06
9.1460252991328754892e-06
9.1594270848480014422e-06
9.1618476010622174082e-06
9.1599976828154668106e-06
9.1507885400433935539e-06
9.1234399199816877197e-06
9.0852810560829414286e-06
9.0597571707096072725e-06
9.0455547165846770965e-06
9.0364358291958694349e-06
9.0375696521699039131e-06
9.0695446585763400091e-06
9.0994579820237721056e-06
9.1163719675567015326e-06
9.1345530685604124285e-06
9.1674835017652248894e-06
9.2218885489371988902e-06
9.2929494760436424271e-06
9.3675344645803219321e-06
9.4318541222447718547e-06
9.4756083909649328474e-06
9.4982942667073770436e-06
9.5077827295658656287e-06
9.5178574824703206497e-06
9.5431621992177850355e-06
9.5925033539485615405e-06
9.6591743308024591546e-06
9.7324739672344219804e-06
9.8001983994490803623e-06
9.8551914850894251064e-06
9.8976564474419811545e-06
9.934238655227421399e-06
9.9731664146451655173e-06
1.002041241891973523e-05
1.0076496274222976167e-05
1.0136665096026963059e-05
1.0193580951441249264e-05
1.0240144982805819205e-05
1.0271726943472044114e-05
1.0288985930684594553e-05
1.0297263271930592676e-05
1.0304747704985411905e-05
1.0320362315511519063e-05
1.0350655070275385365e-05
1.0398214632578111377e-05
1.0462115321390546725e-05
1.0537252176698882702e-05
1.0615590206744316543e-05
1.0687472308870122728e-05
1.0744203332081773614e-05
1.0781105107073532618e-05
1.0798440186097886203e-05
1.0802105931663796753e-05
1.0801329145804587685e-05
1.0804980942184379166e-05
1.0822527027715438789e-05
1.0859312638823804598e-05
1.0905391128802548282e-05
1.0956570030555792708e-05
1.1008684182259116435e-05
1.105830924693736514e-05
1.1102404591398315576e-05
1.113879447276499806e-05
1.1166280691535057664e-05
1.1186498847861584246e-05
1.1202344712312953126e-05
1.1217827197621731356e-05
1.1237063644507494915e-05
1.126270719782128434e-05
1.1296814528362216873e-05
1.1339281800296482762e-05
1.1388162650498943394e-05
1.1440558069879620459e-05
1.1493691315903870241e-05
1.1545020436601760599e-05
1.1592187730006709256e-05
1.1633555788767133192e-05
1.1668399993592263472e-05
1.1696169062045443037e-05
1.171598130663576333e-05
1.1728301306728870456e-05
1.1733962243199538256e-05
1.1734067236285959348e-05
1.1730686806009584151e-05
1.1725319432956314989e-05
1.171917199253337877e-05
1.1712700006843005223e-05
1.1705883621510812328e-05
1.1698396794805512771e-05
1.1688931139163847932e-05
1.1673861594842695679e-05
1.1649899482279301989e-05
1.113269538465854475e-05
1.1120847638266878602e-05
1.1109021379600663684e-05
1.1097346003433970283e-05
1.1085941550823467832e-05
1.1074700121991561274e-05
1.1063235976469749513e-05
1.1051083279811218667e-05
1.1037945076501521699e-05
1.1023890760484806898e-05
1.1009315573768872393e-05
1.0994751422459574168e-05
1.0980615752335899302e-05
1.0967067213155680383e-05
1.0953975499069593734e-05
1.0941018567328505693e-05
1.0927868908316597506e-05
1.0914347975327112175e-05
1.0900460687261158342e-05
1.0886320949379319072e-05
1.0872159891232012642e-05
1.0858213060722476766e-05
1.084465971489257779e-05
1.083139823052391688e-05
1.0818287070762720281e-05
1.0805146974748432845e-05
1.0792054801107815672e-05
1.0778973255243702939e-05
1.0765902701001340083e-05
1.0752576515797913309e-05
1.0738894421948668207e-05
1.0724635475078082703e-05
1.0709877134539890335e-05
1.0694677791027867254e-05
1.067950415803583207e-05
1.0664721946518436178e-05
1.0650776638282698e-05
1.0637568748868693426e-05
1.062489588536879975e-05
1.0612110536673085946e-05
1.0598890683384113823e-05
1.0584901316404387277e-05
1.0570441734399679728e-05
1.0555826503627756353e-05
1.0541702684000963294e-05
1.0528228722629240507e-05
1.0515479680486658051e-05
1.050296573364733155e-05
1.0490420987654745005e-05
1.0477359418089864066e-05
1.0463832792764204169e-05
1.0449754378765371967e-05
1.0435645477984053432e-05
1.0421719238814284331e-05
1.0408514415712498541e-05
1.0395930360341631131e-05
1.0384029114865140359e-05
1.0372242117955047201e-05
1.0360320587921131359e-05
1.0347646138295352034e-05
1.0334340996916141888e-05
1.0320388052249921066e-05
1.0306353380568350627e-05
1.0292244109608321409e-05
1.0278279464090888713e-05
1.0264188869132897017e-05
1.0250165696743708267e-05
1.0236074600081633969e-05
1.0222269587735381563e-05
1.0208667269788456323e-05
1.0195545689627046716e-05
1.0182670905177174469e-05
1.0170104919902665219e-05
1.0157474783819370813e-05
1.0144830687351419446e-05
1.0131992024988143144e-05
1.0119205861528100067e-05
1.0106350941051636127e-05
1.0093515035759811866e-05
1.0080345958309331272e-05
1.0066791863245678237e-05
1.0052628070788168895e-05
1.0038132430947614492e-05
1.0023495789494117213e-05
1.0009229190213313424e-05
9.9955380558071045896e-06
9.9826542292040045294e-06
9.9704501182230265068e-06
9.9588615786570161613e-06
9.9475225292924329722e-06
9.9362059595469409917e-06
9.9245051715428030982e-06
9.9124177968917917851e-06
9.8999806728057090238e-06
9.8875990413670771981e-06
9.8754557020539756609e-06
9.8637393410534829162e-06
9.8523406117557208139e-06
9.8411778395956154414e-06
9.8300309905640416577e-06
9.8187650335137826739e-06
9.8071848586614029393e-06
9.7953400374817689594e-06
9.7833096068936937763e-06
9.771368052480121881e-06
9.7595637023974561868e-06
9.7479036927478612004e-06
9.7361352925657362276e-06
9.7240951083287447472e-06
9.7115713319441594482e-06
9.6986389558372765557e-06
9.6853435404707811381e-06
9.6719955652895224301e-06
9.6586217037451914272e-06
9.6454436002539436411e-06
9.6324361551183866804e-06
9.6198031590244495188e-06
9.6075534350195121387e-06
9.5957486543532347371e-06
9.5841940460381387911e-06
9.5727247902835504041e-06
9.5610760390889442165e-06
9.5490814695798086526e-06
9.5366514246312645105e-06
9.5238348711128266449e-06
9.5107725136873648945e-06
9.4976417585561063414e-06
9.4845956426308344265e-06
9.4717519126617077924e-06
9.4592415172088865189e-06
9.4470854312094372881e-06
9.4352876281151597574e-06
9.4236597202877147282e-06
9.4120543223018318906e-06
9.400235447896822133e-06
9.3881520530658006863e-06
9.3756324632636485207e-06
9.3628816985099257581e-06
9.3498804893386216406e-06
9.3370200372959536041e-06
9.3243187009056157516e-06
9.3120903849658945566e-06
9.3002389404108979357e-06
9.2888689327209458184e-06
9.2777332915085161002e-06
9.266718029836792963e-06
9.2555863458742640708e-06
9.2442363878822723846e-06
9.2326734014852059859e-06
9.2209493600935458959e-06
9.2091386903071714237e-06
9.1973210355281057542e-06
9.1855639336781135255e-06
9.173981591146452411e-06
9.1625653992915162435e-06
9.1514333052842085261e-06
9.1403940751893529218e-06
9.1296948244487960503e-06
9.1190261860924301139e-06
9.1087053784231958228e-06
9.0982954422366813072e-06
9.088070663203327989e-06
9.077654210666657333e-06
9.067219615134190227e-06
9.0566488886864212335e-06
9.0459284034003771037e-06
9.0351785953311567189e-06
9.0243397027525849212e-06
9.0135598139652594734e-06
9.0029493197790768613e-06
8.9924034893721014992e-06
8.9823076259214248686e-06
8.9722422239384674029e-06
8.9626267600575483112e-06
8.9529508932201058908e-06
8.9434461888171971038e-06
8.9336705036482520515e-06
8.9238361832934482901e-06
8.9135433430097930495e-06
8.9032457501587440216e-06
8.8923964963124151593e-06
8.8817532606769628066e-06
8.8706140569420450462e-06
8.8598596695129011049e-06
8.8488315363111439278e-06
8.8384020500957057997e-06
8.827680156818543632e-06
8.8176616368251181319e-06
8.8071727661100412574e-06
8.797362062249936194e-06
8.7872237218900354182e-06
8.7777480753234944291e-06
8.7680585172459785126e-06
8.7590242925458770964e-06
8.7494543347898611727e-06
8.7404777753614179022e-06
8.7305879803220147348e-06
8.721197301238428642e-06
8.7108164195957411916e-06
8.7011366197399590524e-06
8.690606414511447002e-06
8.6810840787784146358e-06
8.6707401537135821824e-06
8.6613903420005629595e-06
8.6510434358181482372e-06
8.641587385323175113e-06
8.6311761373030283556e-06
8.6217942691119502742e-06
8.6116470760542574803e-06
8.6026272446017039962e-06
8.5928119922485944365e-06
8.5840930090797990296e-06
8.5744500504969488206e-06
8.5656705435575505192e-06
8.5557806334693382492e-06
8.5464906585385579791e-06
8.5358739324295403319e-06
8.5260284927053986594e-06
8.514939987424452331e-06
8.5050562651467037341e-06
8.4941558699197988258e-06
8.4847223585683610676e-06
8.4744019228041329574e-06
8.4656904240070143802e-06
8.4558885806139772124e-06
8.4476012116443765745e-06
8.4379766380902315585e-06
8.4296409413819575518e-06
8.4198422668466459085e-06
8.4112200746214577085e-06
8.4010581592062646657e-06
8.3918578540761269496e-06
8.3810174932600955749e-06
8.3711184022816179535e-06
8.3596161036432521137e-06
8.3492369807414955351e-06
8.3374082246253222587e-06
8.3268552375546185315e-06
8.315017296955416813e-06
8.3047105453352487655e-06
8.2932599756756223216e-06
8.2835216312162015428e-06
8.2725844680325770855e-06
8.2633199810490361111e-06
8.2526805912546047551e-06
8.2437611175864831156e-06
8.2334177294707775878e-06
8.2249068747958526407e-06
8.2150429913817728944e-06
8.206929427444008168e-06
8.1974665082578791026e-06
8.1896931393928152482e-06
8.1804738141252413924e-06
8.1727980641978369185e-06
8.1635006272009929856e-06
6.2560746818012661383e-07
7.5651942296938677212e-07
8.6020284856505726189e-07
9.5653658627536259394e-07
1.074897610134217753e-06
1.1804631528684325159e-06
1.2708683558352548076e-06
1.382171261566998683e-06
1.5347934706692048735e-06
1.683142140929810092e-06
1.7891918749089916248e-06
1.8677439714238460485e-06
1.9603222809086143923e-06
2.0853517553794957303e-06
2.2215361899725654722e-06
2.3542829707614613471e-06
2.4726221919799815201e-06
2.5519073025121678874e-06
2.5924841942633440301e-06
2.6372173494777626525e-06
2.7320096144638189296e-06
2.8690974768751213391e-06
2.999125117294686744e-06
3.085098734909024507e-06
3.1300252051247831471e-06
3.1753054222210483743e-06
3.2707667799470556476e-06
3.4531483610306079704e-06
3.6824973248306156826e-06
3.8972758537451953538e-06
4.0467430932886926326e-06
4.1201423038948043181e-06
4.1409494185767065501e-06
4.1431275185350921656e-06
4.1493433859007843484e-06
4.1704087341044116798e-06
4.2303533311256450412e-06
4.3570715657092937937e-06
4.500403888874581695e-06
4.6332715413379036389e-06
4.7332083260069403554e-06
4.79019772662145273e-06
4.8198191397806688384e-06
4.8630998331024611288e-06
4.9757088764688878695e-06
5.2960740176920590339e-06
5.639241045274330112e-06
5.8287651653807461257e-06
5.8914809058645071564e-06
5.8966653347137909012e-06
5.8982115918354751104e-06
5.9141010381751473601e-06
5.9622108820545503447e-06
6.0391863083457542066e-06
6.1299133941802584047e-06
6.2248170712418023697e-06
6.3064841160949677165e-06
6.3565851420028688396e-06
6.3715662529215372117e-06
6.3689335056730794957e-06
6.3684977902739108884e-06
6.4020069188770896678e-06
6.5636414058037439431e-06
6.8426161009755514478e-06
7.0527681685750161393e-06
7.1971824007558413746e-06
7.2883744443443735354e-06
7.3358361981915416199e-06
7.3550002875200390267e-06
7.3702755047549194391e-06
7.4075995908272653352e-06
7.5486270703771864943e-06
7.9471918196396962043e-06
8.2577403906946719671e-06
8.3822162754235383242e-06
8.3959062211119777171e-06
8.3706609640051563362e-06
8.3328763335253508985e-06
8.3294026166091695722e-06
8.4037949683621085656e-06
8.7229670649916580199e-06
9.0743462372631540771e-06
9.2552337808360512247e-06
9.3100006024552489479e-06
9.3082148221163025636e-06
9.2996140787264505083e-06
9.3087391175306846041e-06
9.3976261670389281286e-06
9.5336357433570466602e-06
9.5680261808088726451e-06
9.5494727741501606543e-06
9.4538425960818309559e-06
9.3571309739266728589e-06
9.3296313747757967272e-06
9.3335242478308597547e-06
9.4046295789062389208e-06
9.5041706467861567138e-06
9.5703104172652649604e-06
9.6224396818354250268e-06
9.6645789412220237721e-06
9.6910245744698487937e-06
9.6983426009523626752e-06
9.6919356860307866549e-06
9.6771616159485960706e-06
9.6351738479392131981e-06
9.5842209225637376417e-06
9.5553659359170603542e-06
9.5413099191085334102e-06
9.5353197649546875649e-06
9.5486315887038176385e-06
9.6072808081171863248e-06
9.6644364054126253086e-06
9.6970266746749612317e-06
9.7134873644983236193e-06
9.7282701830931097138e-06
9.7572050657001231264e-06
9.8262230273906149954e-06
9.9158549307550222909e-06
9.9968826496677431847e-06
1.0060672844409847311e-05
1.0108249059676965915e-05
1.0148508296292551556e-05
1.0189729267051378058e-05
1.0235613499755222028e-05
1.0284288917467997006e-05
1.0331540008917434477e-05
1.0373600449779501044e-05
1.0411212860133708396e-05
1.0447632726606108036e-05
1.048769214224823577e-05
1.053531207170791881e-05
1.0591926523258749022e-05
1.065452110226452406e-05
1.071789664020154048e-05
1.0776871923965135604e-05
1.0827855924961352654e-05
1.0869809596084711943e-05
1.0904070446729341183e-05
1.0934996021592457391e-05
1.0967102441327344626e-05
1.1003534861514544473e-05
1.1045308182435038002e-05
1.1091315482623091042e-05
1.1139209877803693815e-05
1.1186528843153180913e-05
1.1228655462702745297e-05
1.126339248763150031e-05
1.1289794898925973679e-05
1.1310809640795411806e-05
1.1332211097857704314e-05
1.1360567422741335838e-05
1.1400146724889300738e-05
1.1450504132621618054e-05
1.1507781134604214569e-05
1.1566044853486224717e-05
1.1621014151335388176e-05
1.1670220440029240545e-05
1.1712009636892880792e-05
1.1745720883072089798e-05
1.1771184243953879131e-05
1.1789060916320859911e-05
1.1801238490609982572e-05
1.1811514222186955881e-05
1.1823568828339139046e-05
1.1840710602198589529e-05
1.1865567371227242699e-05
1.1898887020957270519e-05
1.1940315571386902308e-05
1.198800316429202083e-05
1.2038915052914648217e-05
1.2089809748143334975e-05
1.2138786036470795623e-05
1.2184351629430996991e-05
1.222563040195684987e-05
1.2261744363228180456e-05
1.2292422512846112818e-05
1.2317184766290210007e-05
1.2335361678188478163e-05
1.2346724504865062722e-05
1.2352503157189290069e-05
1.2353747781468755218e-05
1.2351469798417720391e-05
1.2347258214996265508e-05
1.2341853470578240099e-05
1.2335805652779811861e-05
1.2328947673075488694e-05
1.2321109035459874861e-05
1.231053653847179767e-05
1.229281676974418834e-05
1.1722903284701374278e-05
1.1710215687447480696e-05
1.1697371917644817067e-05
1.1684624206165004388e-05
1.1672162172110353386e-05
1.1659999808556610235e-05
1.1647901014225013855e-05
1.1635359158338255713e-05
1.1621816759937749931e-05
1.1607113356801109327e-05
1.1591646654648088782e-05
1.1576185553564172879e-05
1.1561349005041517693e-05
1.1547306467669118146e-05
1.153370957300922768e-05
1.1520020584719828027e-05
1.1505738247222118455e-05
1.1490725698907200018e-05
1.1475046172630703722e-05
1.145908041261589184e-05
1.1443188655984811336e-05
1.1427859547959403935e-05
1.1413122010949953433e-05
1.139891233416779076e-05
1.1384827044529918305e-05
1.1370940233643839472e-05
1.135718205347705519e-05
1.1343753754582505704e-05
1.1330294297196131885e-05
1.1316680243313779981e-05
1.1302412595668427197e-05
1.1287469422031248917e-05
1.127160761833236059e-05
1.1255298425668453996e-05
1.1238868281633632854e-05
1.1223156753040093987e-05
1.1208231352869092986e-05
1.1194247759236961316e-05
1.1180503670283043589e-05
1.1166814061660237237e-05
1.1152544484703349431e-05
1.1137955425392654304e-05
1.112298626624203374e-05
1.1108396650895362682e-05
1.1094242555018551621e-05
1.1080942203381310474e-05
1.1067885181743594e-05
1.1054944719803367484e-05
1.1041284329049096434e-05
1.1027085616338074749e-05
1.1012031094028868695e-05
1.0996905503830870567e-05
1.0981686434249811142e-05
1.0967214672542422609e-05
1.0953201346353145845e-05
1.0940187403370842066e-05
1.0927503786766671497e-05