/*--------------------------------*- C++ -*----------------------------------*\
  =========                 |
  \\      /  F ield         | OpenFOAM: The Open Source CFD Toolbox
   \\    /   O peration     | Website:  https://openfoam.org
    \\  /    A nd           | Version:  12
     \\/     M anipulation  |
\*---------------------------------------------------------------------------*/
FoamFile
{
    format      ascii;
    class       volScalarField;
    location    "0.0051";
    object      k_0;
}
// * * * * * * * * * * * * * * * * * * * * * * * * * * * * * * * * * * * * * //

dimensions      [0 2 -2 0 0 0 0];

internalField   nonuniform List<scalar> 
75962
(
4.208263956554732677e-05
5.9774032338664414329e-05
7.17454377641550022e-05
7.8917022757083493309e-05
9.2648244511057598516e-05
0.00012810225450804576999
0.0001677228602620839306
0.00019047510835528037735
0.00020872040896880884463
0.00024017900247200697967
0.00028636031208539993809
0.00033425610288865327839
0.00036939002842627602103
0.00039813732129728311758
0.00043856408308153070705
0.00050183545857003302934
0.00057489422481737950405
0.00062912216330297560541
0.0006554677455464494101
0.00067511410502451099386
0.00071566764825403000883
0.00078408508649510091568
0.00085670253975298166042
0.00091311138604176624121
0.00094768204601526954099
0.00097761260585343609519
0.0010331416539002787666
0.0011330206824467826694
0.0012654268829977600302
0.0013953816671713106107
0.001494752687972373097
0.001565619148348163913
0.001627881195129471251
0.0016886609937716526731
0.0017364455837589754927
0.0017629764546777508278
0.0017791723895490380806
0.001805674376496048698
0.0018701121755583859172
0.0020254825314823701569
0.0021809618282280546393
0.0022800126930415183686
0.0023287552013776719774
0.0023843947818356862195
0.0025236672999670805261
0.0029315468761049261713
0.0033720522323792715899
0.0036102621722998184429
0.0036807382276208369144
0.0036824676566443634816
0.0036643905435108582898
0.0036455088394484721007
0.0036423653158182862921
0.0036472062317046949863
0.0036770456773477272656
0.003799665138101989293
0.0040328593646480857815
0.0041856144188119103269
0.0042386008525424649293
0.0042390606602531440486
0.0042364888757626742444
0.0042720558957679705125
0.0044493465037799100059
0.0047218367028173538827
0.0049334924585776995104
0.0051031501138440798701
0.0052393145212627839288
0.00533399865352963444
0.0053837058460292699924
0.0054140340104791009543
0.005468432206554643682
0.0056290732515304111455
0.0061803794267198406201
0.006893116804882104022
0.0072974356555281028394
0.0074268305190264118434
0.0074300868290183962744
0.0074007659393980950238
0.0073958652961139109
0.0074639127947552386805
0.0078125390157515791495
0.0083718590429835999106
0.0087138392735748200491
0.0088445169446754109965
0.0088581165381969289435
0.0088468350107297356183
0.0088514809756072617558
0.0089331534992426863545
0.009092777510621713119
0.0091344202781372396682
0.0091097501320226599575
0.0089761540415928143394
0.008880553283263141473
0.0088777995391299477368
0.008950158230947944521
0.0092193633483703841397
0.0094485310093412547966
0.0095539712456411095276
0.0095910900677399560377
0.0096012564268364401776
0.0096030221441388702308
0.0096013477025993724384
0.009591389921780492725
0.0095630616571781984492
0.0095359358571953569544
0.0095198325162233754515
0.009514227311786003366
0.0095145589306411086639
0.0095262746498804944106
0.0095849194927074294476
0.0097425233515191327072
0.009879880788390702287
0.0099746212885064352432
0.010056351174635760545
0.010156150022748770823
0.010285523386523541881
0.01043082404665780609
0.010564882739207004034
0.010663349782518824829
0.010719203705622799838
0.010745389755971727214
0.010769003922048969377
0.010817794139835527206
0.010940981076537029115
0.011153958076122327467
0.011374258888467941517
0.011567204560492381007
0.011717334755163223009
0.01182785551962640784
0.011919797910080486003
0.012018350446414593352
0.012137317464774199927
0.012276012938179788406
0.012420177572601474175
0.012551594376357279662
0.012656150910759944583
0.012730698746866912427
0.012786818839273723578
0.012843093247720647684
0.012921195090333559979
0.01303730049476106885
0.01319552839389993501
0.013387707003930195138
0.013596536544941334457
0.013799600586910086911
0.013977249753306227043
0.014117110112975984892
0.014217808416514309336
0.014287499874303263847
0.014340547302286390727
0.014393887759118444494
0.014461846100243607241
0.014554926708093484169
0.014675030238797369397
0.014818114743497316083
0.014975106531942289009
0.015135391965823990004
0.015287317569507907766
0.01542237405142067759
0.015536258898881230572
0.015628020334950379344
0.015703414750518528142
0.015770144065358926433
0.015837730610869606152
0.01591616706468668499
0.016011153094529675944
0.016127250586156365725
0.016264919789062418781
0.016420213421672713583
0.016586873298603661137
0.016758221697662875616
0.016927543239059851532
0.017087992504288482265
0.017233026609857218792
0.017359254920294050345
0.017464737174882397769
0.01754779627025183919
0.017610226097598432465
0.017654558108775947334
0.017683232128356596302
0.017700538707589714288
0.017710184687379053325
0.017715415875112161537
0.017718135125842228439
0.017719295759810967106
0.017718852584869562716
0.017714954135037548622
0.017702496818815208202
0.016917372446141401565
0.016901068984601544387
0.016884614964954049871
0.01686825168126253674
0.016852049191079250534
0.016835713617083952059
0.016818762187246174417
0.016801194040162149845
0.016783330938841076879
0.016765422350866691914
0.016747348361473478329
0.016729101944511950983
0.016710964580367200505
0.016693269995144418422
0.016675911029976109995
0.01665861960275080017
0.016641259301722194364
0.016623997118963798614
0.016606817337290819686
0.016589645653027052657
0.016572418589065062572
0.016555362647057980663
0.016538476377923931604
0.01652171656357305507
0.016504815761056414875
0.016487923085396628819
0.016470885705003296406
0.01645371056385837652
0.016435876194209809997
0.016417529150562430729
0.01639854949603666498
0.01637949316952003187
0.016360119511989779789
0.016340909418550726012
0.016321588319494186037
0.016302912544474617434
0.016284469825688062394
0.016266658252832206372
0.016248487892254789844
0.016230142277952452207
0.016210768414719748526
0.016191084607827702785
0.016170795212167639321
0.016151100861935923508
0.01613170414563411259
0.016113500370729567923
0.016095501095271632502
0.016078314155450378065
0.016060609414216248103
0.016042978407777117034
0.016024067872718355393
0.016005134859885333798
0.015985636717388184563
0.015967279826395522346
0.015949106715731430073
0.015932103739725332614
0.015914741086609660026
0.015897843087930615957
0.015879756091555598252
0.015861564387832604445
0.015842248275289877446
0.015823612688824487821
0.015804707277542576899
0.015786699231970287988
0.015767926680735868533
0.015749512609268854352
0.015730111932646395623
0.015711420052324894664
0.015692084428395244866
0.015673715510815616758
0.015654762788436055176
0.015636902812392123457
0.015618582883735297392
0.015601382881504156572
0.015583451015369922249
0.015566383270280191933
0.015548333649611559976
0.015531123032875456674
0.015512733686452484169
0.015494902963620245731
0.015475642708086391128
0.01545702210317779525
0.015437452241800861397
0.015419152144586997094
0.015400306109408430991
0.01538287576604345161
0.015364945023221490347
0.015348623853637801545
0.015332012841746650578
0.015316802103872494828
0.015300662355316586513
0.015285014032108634741
0.015267950875321767076
0.015251296922312260543
0.01523368507329926104
0.015216939920299321631
0.015199842138419277643
0.01518400543790012977
0.015167881594827186884
0.015152543072315430642
0.015136003367951116061
0.015119492509469352123
0.015101603996073183905
0.015084299271744209398
0.015066441811309606164
0.015049889359450521753
0.015032862477282362204
0.01501682104326176187
0.014999537092485294015
0.014982762599161297129
0.014964592589602072545
0.014947237622313060829
0.014928830202124307447
0.014911532061875029317
0.01489349493059952817
0.01487689313871038907
0.014859832781195804127
0.014844095902192292954
0.014827527334361465666
0.014811737784093052805
0.01479474542157138868
0.014778235884136330797
0.014760526921081604593
0.014743505935575103999
0.014725707534543063665
0.014708831501834423311
0.014691215625651111304
0.014674253759826920082
0.014656675454697985078
0.014640004909914140427
0.014623123756388752004
0.014607252544208096379
0.01459105637707709506
0.014575470107365541897
0.014559214201381126194
0.014542892369426883153
0.01452567247831838132
0.014508387153092258681
0.014490959077338645342
0.014474303955913585262
0.014458099078354437819
0.014442873924402766309
0.014427670792384644088
0.014413060690632877384
0.014397771865683004627
0.014382754769859666666
0.014366772429525645829
0.014351246718022493687
0.014334948273332766278
0.014319409960399728451
0.014303296007493894459
0.01428814451608596478
0.014272422585484934726
0.01425744799853969659
0.014241757375540330458
0.014226471510258898584
0.014210896667179426928
0.014195659997742183372
0.014180522025430361902
0.014165433503551186703
0.014150255297214297048
0.014135169020167747192
0.014119735631910108886
0.01410505786556040704
0.014089858378822296692
0.014075906601492400166
0.014061256766950348124
0.014047440045878541864
0.014032980592117102331
0.014018684712851430668
0.014004279082697855194
0.013989864026372153885
0.013975496053616760783
0.01396132969560146507
0.013946996131042431813
0.013933066856616197274
0.013919067637155715586
0.013905216938479566385
0.013891584682602146905
0.013877417916014357646
0.013863480381526837107
0.013848594133012221558
0.01383376200684339162
0.013818466519207763324
0.01380396356457891209
0.013789081575567850232
0.013775851964117931739
0.013761702724178483462
0.013748942372564592132
0.013735306744044804145
0.013722668246069961648
0.013709368345240209239
0.013697077690595390112
0.013683550843773420111
0.013671329731389869969
0.013657188340330354837
0.013644678966329223599
0.013630213290906433021
0.013618019279447212203
0.013604004033663208775
0.013592728002734956461
0.013579360199996034012
0.013568264438388844342
0.01355433194106205573
0.013542530028922732804
0.013528026788677571454
0.013516046578532491321
0.013502034370687726605
0.013490738225295803229
0.013477127559627499059
0.013466363497791634593
0.01345315239812175899
0.013442578308894307867
0.013429505235890383183
0.013418706639510093181
0.013404866959322504771
0.013393609229712674993
0.01337905550957832479
0.013367584224837782136
0.01335285508980407071
0.013341571408751447606
0.013326981069635411917
0.013316504586843041016
0.013302470720878412785
0.013292631376491855985
0.013278868456733584208
0.013269025459717361665
0.013255430219685657156
0.013245516077739194136
0.013232012290766589219
0.013221853821913336427
0.013207692118105516729
0.013196914167962059752
0.01318210172006493118
0.013171051181258145238
0.013156093692106973075
0.013144837702611666258
0.013129847600188131879
0.013118821899251367075
0.013104002493809783006
0.013093826697604980108
0.013079667707979728344
0.013070017423081645852
0.013056242782520688026
0.013047262409294975091
0.013033837397003230144
0.013025427266477216173
0.013012613134133503914
0.013004525021595375947
0.012991778485202852556
0.012983728305162853256
0.012971084214571488094
0.012962921281437812804
0.012949928801593513228
4.0817433794441291748e-05
5.6826427733934549197e-05
7.9247340513868860215e-05
9.9942985668188276979e-05
0.00011762303996316360571
0.00013704827351214887623
0.00015854175376879941074
0.00018714704130617034633
0.00022974646304814728948
0.00027743622053169679064
0.00031633427172770932747
0.00034858791427607891886
0.00038650632045913866546
0.00043346505470237089953
0.00048655550602715714028
0.00054761662403395039173
0.0006084389157114202017
0.00065066009272151108678
0.00067277126171901935423
0.00069789815093039477435
0.00074979783855343932336
0.0008291439773656077844
0.00091314258710373458552
0.00097650983727358940667
0.0010106504904040223853
0.0010306289765078448673
0.0010623396888430728952
0.0011359791585015246908
0.0012700084362121755264
0.0014175480326989902454
0.0015447111899913289201
0.0016384280667757400354
0.0017052909487833879405
0.0017531627006661420261
0.0017838546362482071966
0.001803329883290900491
0.0018271233830278428914
0.0018761246275550338275
0.001995278416928312256
0.0021654644402753025177
0.0023214584416231163165
0.002424291888810889764
0.002473155302060917396
0.0025184558281242590098
0.0026243894155749142999
0.0029557803447090363544
0.0034054928267955647189
0.0036792519392927123222
0.0037799219229452448582
0.0037903843381214309682
0.0037815105449770123822
0.0037724768722805510426
0.003772863274592128547
0.0037812088929701564641
0.0038152207949652110902
0.0039362130585977178621
0.0041478250016356264795
0.0042962919992379240003
0.0043582219861138266764
0.0043661673625691949444
0.004367467411151433089
0.0043916801899704900961
0.0045171804241972198651
0.0048207511275157842456
0.0051035718690245080592
0.0053449630780256799853
0.0055396789746180591374
0.0056715908474840601508
0.0057381708326409977192
0.0057708843484673812488
0.0058202292822505819619
0.0059598522361963453264
0.0064237972581364455663
0.0070146212260996758381
0.0073629121478004004933
0.0074842386592673809664
0.0074924592898382704961
0.0074832006123324128211
0.0075017249601961721178
0.007670140899488142594
0.0082826035528169358185
0.0089258938597284401967
0.0092750943579591998284
0.0093897782042909501421
0.0093938938490836475237
0.0093782585422850783807
0.0093890921181998734241
0.0095102224081017611851
0.0097194428045646614339
0.0097756819574418406943
0.009750234876469377962
0.0095984882224615999946
0.0094812463662264593461
0.0094748323540479028465
0.0095528264224509044922
0.0098557618672633698353
0.010115393383277904507
0.010226281004826148421
0.010258918323639291265
0.010264457346950408775
0.010263512905772532308
0.010251767521382041878
0.010203981758031057184
0.010134562813514115184
0.010095128795911683869
0.010083559805815852164
0.010085992675123436543
0.010111754956110753645
0.010203263617001625749
0.010283644227743245908
0.010327024732261503789
0.010367364447740274117
0.010438540148747002187
0.010558860113186897128
0.010718789662284814931
0.010888144305231117065
0.011034308397596720788
0.011133662810314954791
0.011187018009985099515
0.011214859477887393485
0.011249666085205389798
0.011323793815745370958
0.011455781605590516919
0.01162925648452965352
0.011819971911123289959
0.012000229859476569186
0.012153196626056779125
0.012278233670764313393
0.012389484829802864529
0.012505478590885214449
0.012640554630203672259
0.012796899067863914609
0.01296423437320495288
0.013125284514016635762
0.01326212589257920807
0.013362313975340838271
0.013426876259560877047
0.013469218947538641115
0.013510749310630870701
0.013575670704762012389
0.013682505953183817654
0.013838741371473353703
0.014040807398862733407
0.014272509523821712632
0.014509906588557629215
0.014726382806875968484
0.014900036679811439963
0.01502056037959426972
0.015089748217067704139
0.015122803349652746627
0.015143130123569497822
0.015174296029492726282
0.01524378205897088806
0.015369027527620685372
0.015523711236145385298
0.015695422166153806531
0.015869959650162031306
0.016035395847494658683
0.016182880377324317805
0.016308016591545917984
0.016409772833667905095
0.016494408622579913304
0.016570293411151185842
0.016647911343439968784
0.016737562425111547626
0.016845285005639712428
0.016975920751194924219
0.017128801769605989103
0.017298893425356273723
0.017479130780123818684
0.017662893357616660933
0.017843427758890278989
0.018013365892330057
0.018166766336833787415
0.018300537366455097571
0.018412835015158078578
0.018501341606507772097
0.018567897759807654168
0.018614778677355607595
0.018644279254335996421
0.018661577567944887673
0.018670617869579957115
0.018675236410549116844
0.018677503403692022332
0.018678176967256009122
0.018677000390808377872
0.01867042518655922731
0.018647353694088441428
0.018597451946226521702
0.017825852694633940315
0.017808627333634998585
0.017791449078437864689
0.017774489851073344698
0.017757730977350203588
0.01774097619488010022
0.017723924511187892639
0.017706277748973049679
0.017687796351285502844
0.0176685120353665924
0.017648735091847528311
0.017628895982428130496
0.017609340588350459733
0.017590248742078373745
0.017571576352340932681
0.017553083960382208362
0.017534520816687704931
0.017515797106117985543
0.017496955252127566888
0.017478007381318952373
0.017459104359206167878
0.017440443794505867264
0.017422272521544820284
0.017404283547837847562
0.017386266174684073677
0.017367955514453674998
0.017349805644024995921
0.017331758300777558301
0.017313851628171731539
0.01729540781535831781
0.017276507958662486175
0.017256890414280634527
0.017236985329965225089
0.017216607472970501397
0.017196296273302911356
0.017176017043582826604
0.017156342390207482418
0.017136915900422322601
0.017117948145598325949
0.017098701811362210928
0.017079268367111495597
0.017058965734821188859
0.017038311312737575848
0.017017315485810820264
0.016997050078970645653
0.01697749514145787883
0.016959033906668818242
0.016940749979250931817
0.016922622993690319276
0.016903731589649570455
0.016884470576941326692
0.0168642685665189411
0.01684408904347560812
0.016823756450074060093
0.016804333832595493708
0.016785326661538303022
0.016767342826255887678
0.016749402982937269813
0.01673169693610452452
0.016712943887387959191
0.016693719756499251355
0.016673638474329635639
0.016653930086964172791
0.016634110716373575606
0.016614686107398111276
0.016594837487589320785
0.016575277784909768497
0.016555459805359329373
0.01653614218188035126
0.016516582799500811179
0.016497467887313706919
0.016478232744421589251
0.016459591941653722857
0.016440916840861550391
0.0164226448127093895
0.0164040779365002172
0.016385683278726418527
0.016366878512311767296
0.016348103881626753486
0.016328737193654681986
0.016309213461654818028
0.016289103719756187899
0.016269103987604331685
0.01624911928807112188
0.016229809646494373215
0.016210896703895281284
0.016192565122776982067
0.0161744222429436868
0.016156852202704789778
0.016139586022446989616
0.016122788353423820468
0.01610568841367489637
0.016088322996863541753
0.016070374355326010052
0.016052461652722591762
0.016034570760727069605
0.016017046358541613127
0.015999707425933210742
0.01598278074102564561
0.015966093084331289126
0.015949518302412337561
0.01593241493816592233
0.015914661840227290607
0.015896194488205034334
0.015877741516645151043
0.015859587572349360257
0.015842129102404661073
0.015824967012434579955
0.015807856909215687452
0.01579017410464135171
0.015771986004295735634
0.015753130328876562005
0.015734270963081012362
0.015715200875616005399
0.015696394983732674111
0.01567756978417969918
0.015659228740429187443
0.015641300520369237625
0.015624012649954090171
0.015606938014909052179
0.015589941266104804379
0.015572652944801654643
0.015555006576342875896
0.015537001265201943676
0.015518794300123482308
0.015500554592176809046
0.01548232272468427935
0.015463990074675288897
0.015445470469400127481
0.015427009902951155026
0.015408824044608292539
0.015391316619337248525
0.015374371980285773953
0.015357951851577742244
0.015341532775381507003
0.015325010297902889878
0.015307686555943120568
0.015289998842162911413
0.015271603920819663489
0.015253527990900262248
0.015235591793615419626
0.015218611208622214934
0.015202132639795426852
0.01518648088856990562
0.015170955358961133244
0.015155399025943840779
0.015139323314830050587
0.015122671238429209392
0.015105664281171856181
0.015088543311126101712
0.015071500488069549881
0.015054622665223163155
0.015037900498990649026
0.015021466067201958219
0.015005100205799083019
0.014989108600004305907
0.014972855182344863359
0.01495719387526781366
0.014941196742534705935
0.014925987186751716457
0.014910216344491650925
0.014894884562512016729
0.014878922928513988941
0.014863088963173932966
0.014847196837787159096
0.014831314616109727428
0.01481582590534552199
0.014800386671070456593
0.014785203791726183112
0.014770316243938229339
0.014755063813487718713
0.014740474521718156461
0.014725091345159853004
0.014710416109118475136
0.014695094675012258453
0.014680350718021165091
0.014665237799524303772
0.014650837493568628564
0.014635995410528847629
0.014622108986725449592
0.014607051725085484079
0.014592893477474272804
0.014576937378763617573
0.014561825932764341923
0.014545317322119777348
0.014530362354334443523
0.014514186555792714037
0.014500217416905800821
0.014484661184750296029
0.01447121010869414047
0.014456368430284959395
0.014443229008443168176
0.014428849335486101241
0.014416193116040273633
0.014401569512944117218
0.014389008344251153632
0.014373835817591648634
0.014360874758787943103
0.01434523241779499074
0.014332345886580614286
0.014316892383425285779
0.014304782778551041605
0.014289843540750239714
0.014278011778537224447
0.014262750434807413419
0.014250336439503342306
0.01423471160897785831
0.014222394838619976595
0.014207381915146576404
0.014195810360171399328
0.01418128563445330767
0.014170113642062739587
0.014155810901226832318
0.014144572490779846671
0.014130199520999945847
0.014118559286021356916
0.014103332104209029968
0.014091311319834468399
0.014075527376231864243
0.01406368150675770326
0.014048044162968072179
0.014036538743479227281
0.014021236735117792449
0.014010429311441720962
0.013995368562310239388
0.013984943624753201977
0.013970004335524890265
0.013959533799741574711
0.013944649981379793335
0.013934274222156071282
0.013919554083597575692
0.013908877114900687968
0.013893667423420725734
0.013882469088845033472
0.013866735587980190403
0.013855306868117589492
0.01383937758679614459
0.013827692739250179235
0.013811477405830743098
0.013799855757469951106
0.013783826616141298463
0.013772860971825609186
0.013757342590517208578
0.013746939490130529599
0.013731624767796877726
0.0137217558273171579
0.013706856002097339564
0.013697698355059030259
0.013683578269284551315
0.013674767562002920762
0.013660925864837485458
0.013652227014781607647
0.013638355414970269527
0.013629481699351735091
0.013615266553600475358
3.9792657649436740546e-05
5.8103088761705202819e-05
7.5258741916454463625e-05
9.3135554273138923868e-05
0.00011762782573996676363
0.00014223140687692276607
0.00016530022152027112697
0.00019600847333725958995
0.00024237946174341176708
0.00029202220628107779417
0.00033005946415716469478
0.00035990000710992800948
0.00039696914633915097526
0.00044952936618118346417
0.0005104502459796795167
0.00057440010576202064473
0.00063518066532811654802
0.00067779391387245448413
0.00070032628781772508688
0.0007250552191685812357
0.00077802816759203242709
0.00085794995876286184872
0.0009381699470646003361
0.0009946337433056646072
0.0010264861630966157051
0.0010590607006770089409
0.0011257497337974066258
0.0012557073472549322782
0.001427866456962657675
0.0015995075897055070942
0.0017267895019402867019
0.0017939900991861313945
0.0018165622402636335056
0.0018226369803195419973
0.001831791665887194491
0.0018529747454077390763
0.0019074144035121354517
0.0020233772794230040805
0.0021601684124091355584
0.0022940572679154324146
0.0023999203210353053754
0.0024632765113723658137
0.0024980449803111023054
0.0025461519798757126579
0.0026667376184547233846
0.0030215261712142481472
0.0034282998534916624307
0.0036698656776180975034
0.0037593641156974297833
0.0037749351526981493599
0.0037824469996429370758
0.0038051868741009473376
0.0038683741182808429639
0.0039712190466486716953
0.0040970882961426655436
0.0042332639135882451156
0.0043532574697799832769
0.0044289864141611821197
0.0044552589954214242424
0.0044578015629136644171
0.0044644409145822771742
0.004518696972700050711
0.0047559219279053686208
0.0051746278749692847451
0.0055048105964749420929
0.0057426110154333810318
0.0058997845398918741938
0.0059852297977128791559
0.0060220424848289972816
0.006052409288627056197
0.0061222886840967081362
0.006369667871951157842
0.0070738226882276801499
0.0076495225809047702123
0.0078915461218674060745
0.0079271901600349772149
0.0078921680722752202836
0.0078365595589896339807
0.0078466586810290468029
0.0080034618031930692544
0.0086377719514066156337
0.009360787591172764141
0.009749345892627886076
0.009875552255811890015
0.0098804371439069737376
0.0098683565398976300781
0.0098916484181089617961
0.010084634336565770352
0.010383072388208730921
0.010466212952949279294
0.010439517418255942621
0.010251187509265185724
0.010066019341378152144
0.010031495532774558493
0.010063264481164603537
0.010238010236458554639
0.010472331173901843968
0.01062853795271786507
0.010748662930632372353
0.010845256953869487904
0.010910652249011405096
0.010939129876557306467
0.010941316437894709618
0.010926298867735377562
0.010850785236137850537
0.010757061469151672425
0.010715348835289413565
0.010706933704751406614
0.010712722269086351334
0.010754699188111492905
0.010891416450486683665
0.01101990113283257515
0.011090722817006334888
0.011125225091036715364
0.011156950622520986696
0.011221276755342133105
0.01137740893794160317
0.011581956379923803377
0.011769572875448927607
0.011922610299688773949
0.012044388196732331436
0.012154598226495375371
0.012270471038196228974
0.012398826177551993885
0.012534626641052488971
0.012668372221553442919
0.012791376737474793174
0.012904861316610482733
0.013015573467032524532
0.013134203329234902038
0.013270283364418841363
0.013428573108341926648
0.013603193963934384972
0.013782055653338854892
0.013951950392764643147
0.014103322425192885842
0.014233575780038308298
0.01434649185515924838
0.014453657914469050794
0.014567196919541154296
0.014695517344635283807
0.014840407468249961279
0.014996657335026359129
0.015155156210954930096
0.015307594590120880002
0.015442226323976241537
0.015556057871938510848
0.015649561245626986833
0.015731691109855228117
0.015816641921555959355
0.015919852357815480332
0.016051988619972441114
0.016213463930398731155
0.016396661184903904562
0.016586872519499397394
0.016771049057687739681
0.016939124117234055644
0.017083774585824218484
0.01720304511341598161
0.017298659993222199882
0.017375099368461204008
0.017439194041532168206
0.017501727136250127409
0.017571931434816084883
0.017657516020399915968
0.017764420996975189421
0.017893689223196094368
0.018044223388820949255
0.018211657347548017294
0.018388795927015439552
0.018567576194461955785
0.018742948663742018539
0.018909867939316891972
0.019064383267102292391
0.019202690512129316075
0.019323811576543878377
0.019427151835624659887
0.019511757224793344762
0.019577248417821459942
0.019626614817129881679
0.019661652702619405314
0.019684073807461323347
0.019698064512205997606
0.019705955413360672773
0.019710235868240083557
0.019711492521794146682
0.019710296002579424934
0.019701885473145795691
0.019672394928812071691
0.018771267048265833505
0.018753080691885613135
0.018734856660957064506
0.018716915738757888832
0.018699153350705471216
0.018681397655870592839
0.018663579014145226243
0.018645429091792328768
0.01862628848676052204
0.018605776453517394731
0.018584255712126757781
0.018562701170714412252
0.018541852960418461066
0.018521911045412245422
0.018502455656773685033
0.018483048793192579512
0.018463243348587791287
0.018443064611146690879
0.018422348095363538095
0.018401406643500740901
0.018380346016805135939
0.01835998162757295632
0.018340136599655811056
0.01832079310839739017
0.018301002036149944391
0.018281265941617417387
0.018261474351655326148
0.018242365916625351979
0.018223079502950233211
0.018203850658623489667
0.018183904876095453862
0.018163764608015629809
0.01814260864174782259
0.018121145934794420651
0.018099090057480789195
0.018077797715535623424
0.018056739957554048676
0.018036607598913064615
0.018016104752444989795
0.017995849737959694614
0.017974661903065000668
0.017953526239255970104
0.017931703627512722565
0.017910748928228449606
0.017890137166260321883
0.017871067735001706228
0.017852051078754233027
0.017833542883530496131
0.017813696155289666934
0.017793544482045921956
0.017771905630558349626
0.017750640494563627719
0.017728735912086991677
0.017708047691500646004
0.017687142053571705547
0.017667785840114275109
0.017648339584870290087
0.017630292872598356951
0.017611230766400812892
0.017592278371032665785
0.017571454204034130109
0.017551079027802424237
0.017529738861077927281
0.017509407476863501213
0.017487943436138617126
0.017467387689712874504
0.017446112100461336897
0.017426345704870265657
0.017405861809335065882
0.01738652566353980633
0.017366187991197365448
0.01734714648192332842
0.017327213806402147478
0.017308425574870389685
0.017288381676135809034
0.017269460393275818527
0.017249263762778289238
0.017230192222002560509
0.017209465114836224042
0.017189580620724308202
0.017168011128324500714
0.017147497367133546914
0.017125640479297574853
0.017105448185307872006
0.017084497211581214926
0.01706575783640372837
0.017046178212421728149
0.017028331076356276186
0.017009143681974678991
0.016991476153881895222
0.016972287353554101758
0.016954379892368469374
0.016934617293703498053
0.016916301450518412414
0.016896731853331615342
0.016879144147510273533
0.016860329642907775916
0.016843057704230248589
0.016824207516674877239
0.016807031433671872772
0.016788268053001310226
0.016770934147817155579
0.016751307340330413159
0.016732977562450613435
0.016712892183537997326
0.016695158242756840544
0.016676207746920902047
0.016659547359844251863
0.01664079885018439689
0.01662344672504423651
0.016603375244552149442
0.016584653203218623768
0.01656364314653552619
0.016544594736922040024
0.016523495058211924019
0.016504519533694948091
0.016483724941379163803
0.016465579652226280949
0.0164459748045117371
0.016429015421365659316
0.016410073577126541716
0.016393070219570933521
0.016373638585742027185
0.016355870475673755376
0.016335752380435827197
0.016317522459043894145
0.016297093770344411867
0.016278435761163570494
0.016257675303044571286
0.016238824422420836818
0.016218610498217173738
0.016200992875931918141
0.016182391352178821659
0.0161661875146079069
0.016148316581172866141
0.016131984028097404865
0.016113177942978951229