/*--------------------------------*- C++ -*----------------------------------*\
  =========                 |
  \\      /  F ield         | OpenFOAM: The Open Source CFD Toolbox
   \\    /   O peration     | Website:  https://openfoam.org
    \\  /    A nd           | Version:  12
     \\/     M anipulation  |
\*---------------------------------------------------------------------------*/
FoamFile
{
    format      ascii;
    class       volScalarField;
    location    "0.0051";
    object      pMean;
}
// * * * * * * * * * * * * * * * * * * * * * * * * * * * * * * * * * * * * * //

dimensions      [1 -1 -2 0 0 0 0];

internalField   nonuniform List<scalar> 
75962
(
98735.79954124566575
98736.140350147805293
98735.717462716493174
98735.530680536423461
98735.489017112500733
98735.29957847611513
98734.931790674716467
98734.495488642845885
98734.049217669220525
98733.568524449758115
98733.087041761784349
98732.619960442447336
98732.117439197638305
98731.541324426303618
98730.896275082122884
98730.234368106714101
98729.603262577249552
98728.975184493116103
98728.332645771864918
98727.716316817808547
98727.152656912134262
98726.615436886699172
98726.050746454828186
98725.449411604815396
98724.856547251765733
98724.298834624816664
98723.759490998418187
98723.221338232440758
98722.672938608331606
98722.096313697984442
98721.488631682877894
98720.884134843829088
98720.318752378385398
98719.795018398028333
98719.288673093498801
98718.793297375741531
98718.31142737843038
98717.844650787039427
98717.39339386249776
98716.955430655943928
98716.519115117873298
98716.072635514719877
98715.619240222207736
98715.174304047744954
98714.747575937552028
98714.338729420676827
98713.948186236200854
98713.57567913638195
98713.209078663494438
98712.831698762791348
98712.445547898081713
98712.069280346331652
98711.710802439614781
98711.362797535373829
98711.020014928202727
98710.685485830763355
98710.35338443335786
98710.012365749760647
98709.669217768328963
98709.350681731433724
98709.075575842434773
98708.831279395977617
98708.582379976665834
98708.303166117708315
98708.002557064333814
98707.713483942890889
98707.45912357493944
98707.23272079063463
98707.008794995970675
98706.769236062929849
98706.516048386576585
98706.261124214055599
98706.009760853412445
98705.754686232627137
98705.489257867564447
98705.221430733639863
98704.97231438588642
98704.758829481594148
98704.578481859367457
98704.415728475389187
98704.252248396878713
98704.070867390735657
98703.86087309679715
98703.62393198144855
98703.373882953106659
98703.124462447027327
98702.878575894879759
98702.62866510922322
98702.367916140370653
98702.098968835256528
98701.829414859064855
98701.566240806219866
98701.312751127130468
98701.071720749518136
98700.84875299083069
98700.650158206583001
98700.47626298040268
98700.316479637869634
98700.153873523930088
98699.977037239907077
98699.786552911216859
98699.589091502901283
98699.387908103104564
98699.179828786524013
98698.961765400163131
98698.737955171018257
98698.520078740461031
98698.318812424200587
98698.136152709237649
98697.964894934018957
98697.793039131836849
98697.610644151296583
98697.41567726667563
98697.213507770080469
98697.010796287795529
98696.809534771513427
98696.606133451859932
98696.397397963010008
98696.187957619433291
98695.991242674557725
98695.821406613191357
98695.683331449632533
98695.569700252046459
98695.467841249221237
98695.369416306144558
98695.275265258838772
98695.192103631270584
98695.126424213638529
98695.079915808149963
98695.048611563222948
98695.024356643683859
98694.997505644059856
98694.960585176595487
98694.91079124067619
98694.84959729007096
98694.779883214490837
98694.704057758048293
98694.622796591502265
98694.535520991048543
98694.443056891235756
98694.350650362859596
98694.26737455422699
98694.201098099714727
98694.151684032738558
98694.109081345653976
98694.057447627972579
98693.983300704247085
98693.881571463847649
98693.755153242265806
98693.610308236005949
98693.452112066006521
98693.283745800727047
98693.1080817553011
98692.930264388356591
98692.757507368150982
98692.59542758394673
98692.444442066203919
98692.299744433839805
98692.154672960750759
98692.004762032564031
98691.850505591821275
98691.697113940870622
98691.55186212414992
98691.420992738378118
98691.308210918083205
98691.213706262336927
98691.134068383631529
98691.062843950465322
98690.992238958817325
98690.915615532372613
98690.829889145650668
98690.736429700846202
98690.639350829325849
98690.542923764296575
98690.450147372815991
98690.36258570314385
98690.281570281978929
98690.20953951618867
98690.149055260670139
98690.100698540176381
98690.062422377013718
98690.030556910307496
98690.001422915884177
98689.972762342789792
98689.944531020300929
98689.918593488939223
98689.897714435704984
98689.884785570859094
98691.06513845322479
98691.083769757242408
98691.093346003588522
98691.094166356429923
98691.086170241760556
98691.069835891787079
98691.04695981599798
98691.020868417181191
98690.995497987329145
98690.974025512376102
98690.957919685577508
98690.946721565924236
98690.938400882878341
98690.930006694848998
98690.918621798118693
98690.902308077507769
98690.880693160521332
98690.854813327008742
98690.826357715719496
98690.796788836407359
98690.766714564539143
98690.735596536440426
98690.702227238522028
98690.665439608404995
98690.624678053340176
98690.580357704457128
98690.533714992998284
98690.486190524883568
98690.438977510566474
98690.393180797531386
98690.350257050275104
98690.312146813594154
98690.280741351758479
98690.25693717073591
98690.239846212411067
98690.226649026255473
98690.213522014542832
98690.197356036456767
98690.177337738889037
98690.155376271970454
98690.135172724418226
98690.120381745015038
98690.113034722322482
98690.112689963614685
98690.116674359887838
98690.12126551666006
98690.123221374728018
98690.120975426456425
98690.114816958506708
98690.106432292450336
98690.098046744751628
98690.091328573646024
98690.086612544706441
98690.082645674527157
98690.076948315341724
98690.066939176715096
98690.051362051133765
98690.031220588178257
98690.009632192304707
98689.990623473233427
98689.977556183395791
98689.972174518217798
98689.974587675038492
98689.984152931472636
98690.000375364717911
98690.023479985626182
98690.05434194629197
98690.093782004885725
98690.141635865933495
98690.196464412845671
98690.25599672656972
98690.318026757449843
98690.381293081023614
98690.445634356117807
98690.51151466522424
98690.579244960361393
98690.648604865855305
98690.719122209877241
98690.790687508677365
98690.864121270322357
98690.941407524383976
98691.025305749411928
98691.118334305996541
98691.221776872058399
98691.335036070115166
98691.455714306866867
98691.580436170581379
98691.705848070065258
98691.829560267942725
98691.950737048216979
98692.069997776648961
98692.188860434689559
98692.308818821184104
98692.430566577400896
98692.553672186753829
98692.676724683944485
98692.798066916599055
98692.9165209136263
98693.031785485189175
98693.144327074012836
98693.254980792509741
98693.364494505774928
98693.473205193149624
98693.58109224679356
98693.688028748714714
98693.794155995710753
98693.900106601693551
98694.006973232098971
98694.11606034306169
98694.22849888780911
98694.345002592293895
98694.465761418890906
98694.59041712495673
98694.718077399287722
98694.847416551521746
98694.976866154000163
98695.104691073443973
98695.229262830631342
98695.349477690280764
98695.465061694208998
98695.576596962040639
98695.685375025030226
98695.793128225486726
98695.901527278954745
98696.011773613179685
98696.124304177705199
98696.238644872457371
98696.353492172143888
98696.467070076570963
98696.577573686183314
98696.683562897291267
98696.784279366707779
98696.879678397250245
98696.970287026619189
98697.056999750668183
98697.140844145120354
98697.22268981122761
98697.303067831890075
98697.382079213639372
98697.459414811150054
98697.534504854993429
98697.606615235257777
98697.675007167606964
98697.739043179666623
98697.798379381172708
98697.853115526071633
98697.903768132586265
98697.951146041581524
98697.996165804419434
98698.039689682947937
98698.082342116875225
98698.124366682968684
98698.165664015934453
98698.205881317975582
98698.244618148775771
98698.281505278529949
98698.316237439838005
98698.348504076348036
98698.377928594694822
98698.404057693682262
98698.42646669302485
98698.444965427988791
98698.459666699243826
98698.471076696951059
98698.480029309474048
98698.487532134327921
98698.494579094825895
98698.501926402954268
98698.509797762293601
98698.517713214459945
98698.52455615218787
98698.528910921930219
98698.529409852271783
98698.525141252001049
98698.51594259570993
98698.502532150509069
98698.486358308975468
98698.469291859277291
98698.453257152490551
98698.43975318079174
98698.429562135133892
98698.42271088596317
98698.418705445306841
98698.41683688305784
98698.416494083416183
98698.417395033931825
98698.419591538971872
98698.423303381554433
98698.428703128156485
98698.435624002901022
98698.443454283682513
98698.451204578595934
98698.45778625748062
98698.462334683747031
98698.464473037311109
98698.46450597140938
98698.463282900862396
98698.461923792754533
98698.46143016240967
98698.462372685462469
98698.46474390142248
98698.468013569887262
98698.47136131238949
98698.473990991769824
98698.475392381937127
98698.475461708789226
98698.47441150675877
98698.472568092096481
98698.470196728987503
98698.467446872440632
98698.464367165637668
98698.461105459311511
98698.458092459928594
98698.456224392590229
98698.456873944727704
98698.461697750200983
98698.472306377501809
98698.489994964125799
98698.515477947148611
98698.548707497684518
98698.588950950696017
98698.635026243151515
98698.685648456550553
98698.739750447450206
98698.796653984842123
98698.856232855803682
98698.918992135178996
98698.985978114331374
98699.058669850361184
98699.138881102582673
98699.228599358757492
98699.329942483629566
98699.445065857915324
98699.575924272532575
98699.724123591222451
98699.890772495025885
98700.076413551709265
98700.28102774299623
98700.504173426234047
98700.745173453804455
98701.003363380150404
98701.278262858380913
98701.569611954604625
98701.877390806228505
98702.201812145503936
98702.543281040212605
98702.902262339397566
98703.279184870174504
98703.674519631837029
98704.088713629826088
98704.522197708458407
98704.975477922547725
98705.449155040332698
98705.944023708827444
98736.901563636551145
98736.724338314219494
98735.480541141776484
98735.317374236547039
98735.176383108933805
98734.831860567079275
98734.417854599028942
98733.978835089495988
98733.525050811062101
98733.051958137570182
98732.554094087754493
98732.035487985776854
98731.510837298177648
98730.963053339728503
98730.356736579196877
98729.713069163219188
98729.07812530209776
98728.449681483049062
98727.828584430098999
98727.248397167102667
98726.718916663812706
98726.192576965797343
98725.622540062424378
98725.019111077635898
98724.433979677414754
98723.892223723756615
98723.379088570800377
98722.869008430730901
98722.336265990772517
98721.765141031937674
98721.171441062659142
98720.59763631610258
98720.064040142708109
98719.555764446296962
98719.055631102644838
98718.564272920761141
98718.080426208893186
98717.599102719439543
98717.126409500138834
98716.674372813053196
98716.240162278976641
98715.803283500572434
98715.356584108027164
98714.9179419902066
98714.50316244502028
98714.109293886867817
98713.727631926012691
98713.355247811603476
98712.987852546692011
98712.615741427842295
98712.240809934752178
98711.874924460193142
98711.521689668865292
98711.177014117711224
98710.841014937614091
98710.516917452099733
98710.196706812857883
98709.866567611825303
98709.530194751860108
98709.211399901570985
98708.930401221921784
98708.678508245298872
98708.424821005392005
98708.144879464263795
98707.843006963070366
98707.549787609255873
98707.289768075468601
98707.056692056445172
98706.82371997955488
98706.571382889815141
98706.303395879425807
98706.037890632302151
98705.785481917162542
98705.540476447349647
98705.292955427707057
98705.044214069261216
98704.809188707542489
98704.602209224671242
98704.422881065343972
98704.257868426924688
98704.089531141100451
98703.903837126621511
98703.694466068976908
98703.466072974915733
98703.22983478489914
98702.992587034590542
98702.75270631260355
98702.50368985660316
98702.242903290287359
98701.97336073833867
98701.703647243004525
98701.441673435154371
98701.192960849410156
98700.959883835268556
98700.744397734786617
98700.55047599345562
98700.378589478787035
98700.219259212040924
98700.055395393137587
98699.87559240894916
98699.681503359795897
98699.482977565246983
98699.28735557939217
98699.091608710936271
98698.889462116901996
98698.680586799004232
98698.474521973432275
98698.283305370568996
98698.111349588041776
98697.951936061610468
98697.791582433026633
98697.619436877401313
98697.433938536894857
98697.242254639408202
98697.052646194424597
98696.868442323248019
98696.686167122534243
98696.499890888342634
98696.309182023513131
98696.122618715366116
98695.953485663048923
98695.810888539097505
98695.693997716865852
98695.594944647105876
98695.506041264641681
98695.425325236254139
98695.356462169191218
98695.304520690115169
98695.270768381655216
98695.250193120242329
98695.233405412116554
98695.210589073933079
98695.175200106430566
98695.1253967609955
98695.062690478909644
98694.989353875411325
98694.907623202045215
98694.819674855461926
98694.727233469442581
98694.633253315871116
98694.543903635043534
98694.46706823882414
98694.407536236496526
98694.361785669752862
98694.317451356429956
98694.258660407067509
98694.174343302758643
98694.063100454543019
98693.931798682169756
98693.788891385731404
98693.638673470559297
98693.480796105315676
98693.314506735288887
98693.142966242929106
98692.973419161673519
98692.812839720354532
98692.662848784064408
98692.518523366859881
98692.372370300552575
98692.219677941902773
98692.061881460453151
98691.905829552939394
98691.759981086579501
98691.630878994197701
98691.521650944370776
98691.431228037065011
98691.354113470661105
98691.282316532495315
98691.208267921028892
98691.126988154501305
98691.037541378405876
98690.942595109998365
98690.845835664164042
98690.749719087107223
98690.655210294265999
98690.562729101031437
98690.473432772952947
98690.390306823275751
98690.317107848022715
98690.256083898377256
98690.206925051519647
98690.167279945148039
98690.133832301842631
98690.103830189516884
98690.076005356007954
98690.050757479053573
98690.029622495509102
98690.015153439686401
98690.01052190522023
98691.108199110371061
98691.136625803279458
98691.156335878084064
98691.167839120156714
98691.170857588702347
98691.164331752763246
98691.1479445269797
98691.123578431564965
98691.095196330250474
98691.067397725579212
98691.043664256649208
98691.02510589666781
98691.010401444378658
98690.996750678066746
98690.981244291746407
98690.961990035022609
98690.938777691015275
98690.912978293912602
98690.886576125456486
98690.86110093681782
98690.837058954697568
98690.813957467122236
98690.790566777912318
98690.765219767330564
98690.736414860264631
98690.703340882842895
98690.665939819024061
98690.624645034811692
98690.580184630234726
98690.53371716903348
98690.487222002077033
98690.443391601060284
98690.405227027978981
98690.375248589698458
98690.354457247623941
98690.341526030664681
98690.332994022857747
98690.324605054382118
98690.313130518523394
98690.297755541992956
98690.280286484383396
98690.264054319515708
98690.252304525682121
98690.246663133235415
98690.246441888899426
98690.249022158779553
98690.2512342602422
98690.250777860957896
98690.246968719424331
98690.240773778481525
98690.234203844738659
98690.229446195022319
98690.227918442731607
98690.229472631646786
98690.232283033124986
98690.233570209049503
98690.230833646724932
98690.222925454800134
98690.210679910640465
98690.196637687447947
98690.184229619291727
98690.176642020087456
98690.175999228624278
98690.183258070785087
98690.198564404126955
98690.221885233651847
98690.253367130702827
98690.293209295530687
98690.341024120527436
98690.395461209351197
98690.454431813530391
98690.51583520929853
98690.578290713514434
98690.641535521761398
98690.706203040055698
98690.772975344472798
98690.841939254052704
98690.912581434342428
98690.984314614237519
98691.057267968659289
98691.132846454187529
98691.213586118101375
98691.302344189520227
98691.401128041310585
98691.510318527871277
98691.628404546441743
98691.752333528304007
98691.878421091183554
98692.003590518099372
98692.126267457584618
98692.246712312480668
98692.366563394200057
98692.487839473964414
98692.612003631613334
98692.739283288959996
98692.868535968707874
98692.997736257369979
98693.124749699112726
98693.248135556001216
98693.367552461058949
98693.483593318538624
98693.597206503152847
98693.709086096961983
98693.819407350107213
98693.927894441148965
98694.034197712433524
98694.138421231560642
98694.241464235135936
98694.344922514050268
98694.450661230803235
98694.560237563229748
98694.674601309205173
98694.794041467830539
98694.918226672918536
98695.046351008611964
98695.177242036268581
98695.309400821890449
98695.441097312083002
98695.570525581977563
98695.696160093051731
98695.817132560900063
98695.933466428876272
98696.046090769785224
98696.156588705343893
98696.266755822856794
98696.377991490837303
98696.490870237481431
98696.605036814406049
98696.719343743447098
98696.832237005131901
98696.94216880206659
98697.048059815293527
98697.149511672134395
98697.246770519937854
98697.340500252190395
98697.431493347801734
98697.520471784853726
98697.607947226497345
98697.694080852816114
98697.778729364901665
98697.861502856394509
98697.941786925672204
98698.018888629245339
98698.092116467989399
98698.160956266641733
98698.225210554141086
98698.285087692886009
98698.341264495204086
98698.39476109786483
98698.446680533728795
98698.498025173117639
98698.549507015559357
98698.601434648255236
98698.653696733526886
98698.705857169508818
98698.757261527658557
98698.8071895710018
98698.85490428628691
98698.899731261524721
98698.941051620146027
98698.978360820678063
98699.011277906829491
98699.039698897337075
98699.063908275187714
98699.084576897104853
98699.10267801968439
98699.119308219203958
98699.135475431496161
98699.151827593726921
98699.168502689179149
98699.185044844998629
98699.200451797645655
98699.213403650486725
98699.2226145042805
98699.227212994141155
98699.227105700891116
98699.223070753840148
98699.216563331327052
98699.209428226124146
98699.203504699631594
98699.200191923315288
98699.200116566003999
98699.203104501226335
98699.208457845437806
98699.215343397401739
98699.223224354238482
98699.232028601385537
98699.242125454053166
98699.254159620817518
98699.268668393415282
98699.285774402116658
98699.305058440586436
98699.325669463985832
98699.346490719020949
98699.366413643409032
98699.384669623439549
98699.401061557015055
98699.416015165566932
98699.430313755423413
98699.444787457527127
98699.46009725415206
98699.476632490797783
98699.494493061312824
98699.513566496316344
98699.533642125199549
98699.554579166011536
98699.576339964944054
98699.598947054633754
98699.622405614092713
98699.646688664404792
98699.671728473564144
98699.697514989908086
98699.724239793635206
98699.752483651012881
98699.783251425687922
98699.817915867897682
98699.857982919522328
98699.904811211512424
98699.959235221191193
98700.021416582778329
98700.09094451960118
98700.166932966691093
98700.248259386906284
98700.333813356977771
98700.422774747756193
98700.514821614618995
98700.610124253915274
98700.709348132979358
98700.81359009827429
98700.924262560743955
98701.043061079340987
98701.17191322830331
98701.312904138540034
98701.468210121092852
98701.63988522454747
98701.829608612810262
98702.038606269823504
98702.267534263519337
98702.516466770626721
98702.784992355678696
98703.072412179011735
98703.377961625301396
98703.700987724572769
98704.041127390839392
98704.398347567141172
98704.772890387845109
98705.16509449633304
98705.575291496992577
98706.003745612280909
98706.450567574574961
98706.915813761341269
98707.399617646515253
98707.902252148400294
98708.424205676317797
98708.966198416499537
98733.414793252857635
98734.428751811661641
98734.131458149291575
98734.047408076949068
98733.93326301786874
98733.638259535771795
98733.318654459610116
98733.002093885297654
98732.676432273670798
98732.317672208038857
98731.880992645863444
98731.381025041730027
98730.872525394908735
98730.356131771448418
98729.794976821591263
98729.200155354352319
98728.607224789971951
98728.009938623625203
98727.415811869737809
98726.846887548454106
98726.297001696671941
98725.739490602791193
98725.165135648698197
98724.585817748171394
98724.025148374275886
98723.496926985346363
98723.000889329254278
98722.517806118805311
98722.016091712052003
98721.479974225629121
98720.928618177538738
98720.386738403714844
98719.858245115523459
98719.333520510466769
98718.817372213234194
98718.321142881104606
98717.842092441409477
98717.362563562652213
98716.880247291672276
98716.41279542526172
98715.968798355199397
98715.532179239555262
98715.09884527946997
98714.687829941278324
98714.306478753540432
98713.93729771625658
98713.562790430733003
98713.186684287022217
98712.819736230856506
98712.462423483200837
98712.107916101580486
98711.753748859700863
98711.402125063177664
98711.05569857552473
98710.719748025527224
98710.397629662576946
98710.081111774576129
98709.754752106353408
98709.417877597676124
98709.090810104535194
98708.794317807201878
98708.527480449090945
98708.267409630221664
98707.988285680388799
98707.688606673415052
98707.392762563569704
98707.124546419261605
98706.881488577826531
98706.638594180069049
98706.375661482321448
98706.094459362648195
98705.816675049791229
98705.560613202265813
98705.32583820365835
98705.100395796165685
98704.876943417097209
98704.658108201736468
98704.452014894995955
98704.261203339134227
98704.080378863291116
98703.900168154548737
98703.710877251825877
98703.508402718929574
98703.29504866215575
98703.074575559454388
98702.847877883803449
98702.613596028910251
98702.370052584607038
98702.117756144536543
98701.858555345097557
98701.597056242811959
98701.340275076843682
98701.095463443562039
98700.865778145787772
98700.652044273781939
98700.455524198740022
98700.275911130447639
98700.106468538098852
98699.933762617554748
98699.748139059171081
98699.55126496576122
98699.355198454679339
98699.167774767629453
98698.985548225537059
98698.79944379319204
98698.606808441254543
98698.416510634502629
98698.240884982136777
98698.08410934227868
98697.93832301927614
98697.789170606716652
98697.625887668385985
98697.448045490105869
98697.264924406103091
98697.087334234136506
98696.921096019039396
98696.763311730639543
98696.605507531116018
98696.441301933242357
98696.273543564864667
98696.112816459659371
98695.970052218282945
98695.850113334163325
98695.751126791132265
98695.668042483084719
98695.597801228126627
98695.541471582531813
98695.500987527513644
98695.475139646310708
98695.458428430385538
98695.442094357145834
98695.417497329093749
98695.379486467863899
98695.327419962195563
98695.26240300477366
98695.185320380769554
98695.098112823281554
98695.004617954022251
98694.909470798680559
98694.817749268651824
98694.735698927557678
98694.668329333770089
98694.615606437408132
98694.570584361936199
98694.520145067872363
98694.450629323167959
98694.355157805679482
98694.236614197274321
98694.104383104087901
98693.967379488385632
98693.828195528054493
98693.683359094691696
98693.529029934943537
98693.366631640703417
98693.203450293847709
98693.047167771423119
98692.899628961531562
98692.755857311567524
98692.608648139765137
98692.454419032874284
98692.295807915230398
98692.140263983368641
98691.996326948894421
98691.869954405497992
98691.763124426768627
98691.673712661679019
98691.595755559581448
98691.521219513655524
98691.442985845656949
98691.357078608547454
98691.263652052875841
98691.165897113343817
98691.067510488646803
98690.970501993084326
98690.874669604527298
98690.778819849772844
98690.682937454228522
98690.589840703483787
98690.504351899304311
98690.430856169274193
98690.371471832142561
98690.325560320809018
98690.289981168229133
98690.260651353484718
98690.234443464520155
98690.210102071010624
98690.188628971212893
98690.172758288375917
98690.165875129096094
98691.179224250241532
98691.204538456440787
98691.222548441510298
98691.234132835277705
98691.238784531902638
98691.234971257086727
98691.22148655327328
98691.19920088951767
98691.17143105280411
98691.142724321558489
98691.116928817558801
98691.095500376453856
98691.077048276929418
98691.058451992357732
98691.036762255185749
98691.010826590354554
98690.981862474465743
98690.952609380721697
98690.925973926918232
98690.903792485361919
98690.886312577524222
98690.872200994082959
98690.859061594106606
98690.84430251030426
98690.825862534737098
98690.802378345906618
98690.773080677317921
98690.737653723728727
98690.696401994762709
98690.650691150352941
98690.603213199443417
98690.557888095718226
98690.518893985194154
98690.48930376174394
98690.470059227372985
98690.45951722645259
98690.453846433898434
98690.448635469932924
98690.440839649483678
98690.429912422681809
98690.417590882527293
98690.406635444698622
98690.399336062357179
98690.396370314323576
98690.396496630652109
98690.397329319719574
98690.396619456529152
98690.393270534055773
98690.387822004966438
98690.382106653472874
98690.378512956420309
98690.379082173341885
98690.384540900733555
98690.393886845180532
98690.404722823295742
98690.414106095369789
98690.419630536358454
98690.420250881157699
98690.416563865277567
98690.410706963390112
98690.405722830168088
98690.404792604473187
98690.410521408412023
98690.42452910351858
98690.447591473581269
98690.479999001181568
98690.521598663312034
98690.571644511335762
98690.628506916764309
98690.68983000057051
98690.753152242381475
98690.816713404696202
98690.880018543102778
98690.943765671763686
98691.009194496276905
98691.077233478848939
98691.147974759267527
98691.220712042340892
98691.294756515184417
98691.370305911346804
98691.448938898858614
98691.533248322564759
98691.625883542845258
98691.728420969797298
98691.840594062610762
98691.960307597226347
98692.084270387451397
98692.208992653657333
98692.331934465721133
98692.452270519715967
98692.571047865989385
98692.690455404910608
98692.812697468616534
98692.938971806230256
98693.06901291073882
98693.201247988385148
98693.333406024219585
98693.463334455649601
98693.589725942409132
98693.712345660038409
98693.831771252560429
98693.948770851595327
98694.063730266119819
98694.176394006630289
98694.286128461753833
98694.392415198497474
98694.49536183491
98694.596007479456603
98694.696243298341869
98694.798312385202735
98694.90423437829304
98695.015320495178457
98695.132091983075952
98695.25443728454411
98695.381746050043148
98695.51298364638933
98695.646725181650254
98695.781170885515166
98695.914310621708864
98696.044262399562285
98696.169757670912077
98696.290437720497721
98696.406948983407347
98696.520711852659588
98696.633406140113948
98696.746389638748951
98696.86030611343449
98696.97493986110203
98697.089308205555426
98697.20201347443799
98697.311813232372515
98697.417991971364245
98697.520527785571176
98697.619937330338871
98697.716916984601994
98697.812111774968798
98697.905964707388193
98697.998619054807932
98698.089918898840551
98698.179508701141458
98698.266942034839303
98698.35174078529235
98698.433425906056073
98698.511586242864723
98698.585911097281496
98698.656289320875658
98698.722911033750279
98698.786369469322381
98698.847610964628984
98698.907745720134699
98698.967846027604537
98699.028810765012167
98699.091206543831504
98699.155088699379121
98699.219980606008903
98699.284898891652119
98699.348615731156315
98699.409891564515419
98699.467697890722775
98699.521296472215909
98699.57025080116
98699.614400370934163
98699.653813977463869
98699.688813120126724
98699.719950907601742
98699.748046502907528
98699.774076239191345
98699.798984015331371
98699.82351451170689
98699.848015630850568
98699.872316055174451
98699.895772356161615
98699.917374626282253
98699.936012101636152
98699.950866643106565
98699.961705154331867
98699.969063221724355
98699.974167975698947
98699.978613189712632
98699.984006994069205
98699.991549150523497
98700.001732418284519
98700.014351466335938
98700.028807722745114
98700.044490765139926
98700.061037310908432
98700.078579935943708
98700.097726496009273
98700.119329640278011
98700.14418244783883
98700.172657467745012
98700.204528740941896
98700.238999120672815
98700.274909442232456
98700.311031805234961
98700.346306130115408
98700.380073869018815
98700.412205943663139
98700.443067440675804
98700.473309979613987
98700.503668512930744
98700.534845306945499
98700.567487551292288
98700.602163290284807
98700.639325575000839
98700.679196857527131
98700.721829586866079
98700.767175203596707
98700.815156901240698
98700.86562609160319
98700.918450868048239
98700.973665716868709
98701.031607153709047
98701.0929490843846
98701.158653967431746
98701.229820580148953
98701.307476424262859
98701.392348332607071
98701.48464679576864
98701.584006371966098
98701.689665422221879
98701.800769877474522
98701.916496722580632
98702.036238548767869
98702.159753277257551
98702.287210470400169
98702.419171275570989
98702.55646763619734
98702.700118431690498
98702.851317161417683
98703.011428568832343
98703.182016664257389
98703.364857384745847
98703.561842750670621
98703.774857252370566
98704.005688071527402
98704.255796611862024
98704.526087813501363
98704.816845821085735
98705.127825103743817
98705.458424956756062
98705.807923421016312
98706.175746178603731
98706.56158150806732
98706.965413326310227
98707.387401538420818
98707.827728122196277
98708.286467208905378
98708.763483740200172
98709.258472929010168
98709.771033292068751
98710.300841552525526
98710.847863808929105
98711.412523025923292
98711.995711355324602
98712.598694710526615
98734.572573048950289
98735.197288154580747
98734.710493138976744
98734.296355183236301
98733.91958825715119
98733.54681576891744
98733.182040954008698
98732.777652050732286