/*--------------------------------*- C++ -*----------------------------------*\
  =========                 |
  \\      /  F ield         | OpenFOAM: The Open Source CFD Toolbox
   \\    /   O peration     | Website:  https://openfoam.org
    \\  /    A nd           | Version:  12
     \\/     M anipulation  |
\*---------------------------------------------------------------------------*/
FoamFile
{
    format      ascii;
    class       volScalarField;
    location    "0.0051";
    object      rho_0;
}
// * * * * * * * * * * * * * * * * * * * * * * * * * * * * * * * * * * * * * //

dimensions      [1 -3 0 0 0 0 0];

internalField   nonuniform List<scalar> 
75962
(
1.1384063888668773945
1.1410722858965669513
1.1398851209415927777
1.1379257602404315719
1.1378517462682491423
1.1392770849897309038
1.1403324921816151427
1.1395684555521543579
1.1383915829276973763
1.1374160267850135231
1.1365592826810322347
1.1365827736309754847
1.137470701204017276
1.1383936663986069515
1.1386333267490686971
1.1380313092106324468
1.1373266447095162768
1.1372785613496700918
1.1374527058123982126
1.1375516349740206756
1.1378307072783782061
1.1385814936265064024
1.1394134731721861087
1.1395778383272652245
1.139037830997025047
1.1385434870544421937
1.1385472405513681338
1.1389259435180660862
1.1396152243388761871
1.1404477849210399309
1.140806131797069245
1.1402888802392674439
1.1393024124250688001
1.1384767528774377698
1.1381430497543441049
1.13823970004256525
1.1386607038544103165
1.1391847023720764742
1.1394844824793874949
1.139482205332795095
1.1393317421756754548
1.1392112513914980365
1.1392548116095557731
1.139539136071106018
1.1400434039524771634
1.1404966979981612241
1.1405671152303966664
1.1402448728325311755
1.1398690689093369244
1.1396879026292812132
1.1396765693630823701
1.1398946468646797836
1.1403736007614033721
1.1408758774329754715
1.1410471734413054623
1.1408766366488374278
1.1406665109789455581
1.1405423050841985155
1.1403300633852415658
1.1399440033867547228
1.1395526094031926956
1.1394253656600656921
1.1396117996816728102
1.1398195680212581671
1.1397120686013562096
1.1392828259127150137
1.1388649518009996697
1.1387772554748365472
1.1390055367157507771
1.1392879806896198946
1.1394299451755469654
1.1394796096893342607
1.1396408562126503217
1.1399856682876450265
1.1403040386960991981
1.1402743299109974195
1.1397712567410274165
1.1389831484661194771
1.1382040830441482182
1.1376324753646291921
1.137368544590606545
1.1374348225644561605
1.1377445503499685753
1.1381303265541258263
1.1384954537927949314
1.1389161335315824974
1.1394975390420514216
1.1402141974583266393
1.1408626274368465214
1.1412085071825639471
1.1411534800131011291
1.1407569540464772562
1.1401498344453639966
1.139437447224675326
1.1387286749532468111
1.1381738434650434666
1.1379598439551164013
1.1382033186252020762
1.1388412718498905907
1.1396184634686636894
1.1402629654661293745
1.1406573362146055217
1.1408255399412379205
1.1408249491364317318
1.1406399248859258044
1.1402460402962106834
1.1396975821215280522
1.1391733703128141819
1.1388871632682242563
1.1389878471664383053
1.139498447482473642
1.1403147142731395736
1.1412706157452785494
1.1422430792622868534
1.1432070415544517417
1.1441990693869557028
1.1452171817287972733
1.1461607829246893697
1.146871811087246007
1.1472663189201335321
1.1474088585040149724
1.1474772036411222675
1.1476171765780946998
1.1478411434342239428
1.1480489246666534253
1.1481392477085918813
1.1480871459002106594
1.1479402785070456083
1.14778784072846185
1.1477066882275503978
1.1477348817028680816
1.1478611115270800358
1.1480306030799038997
1.1481766309182568353
1.1482590194925326177
1.1482744969768199361
1.1482493700051590313
1.1482168085024877513
1.1481717953279417799
1.1480543481482752277
1.1477899909411173329
1.1473572117196415565
1.1468357007466587483
1.1463779478275466506
1.1461187572171036564
1.1460931471644748569
1.1462232454487604194
1.1463844264604021728
1.1464907475020458261
1.1465316321455907289
1.1465399631490846843
1.1465358165819206082
1.1465026121065013953
1.1464043548014803964
1.1462342311926325689
1.1460420845277790036
1.1459115505400385704
1.1459014538368597069
1.1460026651070940318
1.1461423436247162311
1.1462282848745872776
1.1462016086050763608
1.1460545294040660469
1.1458187657229725875
1.1455456817395905933
1.1452921831839966149
1.1451107682281100875
1.1450395203121479515
1.1450827008043100719
1.1452057035190701395
1.145348300470723224
1.145456328184131678
1.1455076155300731866
1.1455109185491942903
1.1454872005685763359
1.145446288599057949
1.1453807453008748585
1.1452856063888181559
1.145177077404169852
1.1450914767180415677
1.1450644635867146537
1.1451105342862066827
1.1452141682153689217
1.1453416087550369884
1.1454593016614584844
1.1455445691124883645
1.145586929227861317
1.1455845450403940866
1.1471869698557219941
1.1473377161641364896
1.1474939552035432477
1.1476602099574579885
1.1478271658531677968
1.1479701570575799874
1.148060535949033456
1.1480825153890412693
1.1480423308688838535
1.1479644351699713756
1.1478802794278528676
1.1478173211124234054
1.1477919616604905784
1.147807956168383603
1.1478568939848274866
1.1479206591593333897
1.1479774895569307969
1.1480107081859967089
1.1480149859092920739
1.1479977407304737813
1.1479747364476848848
1.1479607493305223898
1.1479614946879435067
1.1479712914108466393
1.1479781216066737848
1.147971266872164664
1.1479476254224869614
1.147911536266391419
1.1478683638487388041
1.1478173347541451577
1.1477490590380130531
1.1476537543733962288
1.147534060867285266
1.1474117605123368424
1.1473209373734054584
1.1472894505942090593
1.147321099465162586
1.147390013184677704
1.1474514344173429858
1.1474650456899453399
1.1474147384643422765
1.1473154056375094445
1.1472033187875216864
1.1471174625504942934
1.1470816134071075698
1.147097323268116531
1.1471462460102150871
1.1472007699793904667
1.1472353673023472087
1.1472349049469665605
1.1472012908568134382
1.1471534008144406158
1.1471201517839739736
1.1471279501919888766
1.1471866422229461957
1.1472832041284191096
1.1473845521669376879
1.1474529674623770159
1.1474636237153927887
1.1474154036744901308
1.1473289095700782703
1.1472326814875275502
1.1471474826826835169
1.1470766192418577756
1.1470077190031335856
1.146923894423915069
1.1468184784973869395
1.1467025201343366003
1.1465990102521013139
1.1465288581381460897
1.1464992509755769223
1.1464995075418551451
1.1465089571305637772
1.1465114986932447572
1.1465032342251997299
1.146490375182043886
1.1464807039834719049
1.1464740103562593987
1.1464580521518370482
1.1464140880460951255
1.1463268564343445099
1.1461942218888989675
1.1460315884980507573
1.145869369095152468
1.1457427975936278486
1.1456785864011120868
1.1456853657202725749
1.1457519477613353764
1.1458523589823919053
1.1459565873801513813
1.1460410979172708235
1.1460962976807935743
1.1461285739437911957
1.1461550742579422746
1.1461935461372492195
1.1462533940002801458
1.1463317186065018483
1.1464164306158388662
1.1464937007676623271
1.1465551548108063873
1.1466007949175096581
1.1466375082329853807
1.1466736812411930657
1.1467134914700713999
1.1467536171703422987
1.1467854375449113569
1.1467997891646157793
1.1467903043537415186
1.146755191882683711
1.1466974753296999001
1.146624039135174522
1.1465435975491036213
1.1464655605908560254
1.1463993911499532619
1.1463535408734697452
1.1463338390119832688
1.1463417728450664423
1.1463725459586691091
1.1464149911016228156
1.1464537324046524258
1.1464722918720058331
1.146456860937054234
1.1464012831431638073
1.1463094035161143225
1.1461944724338486434
1.1460766232468033721
1.1459772019687080036
1.1459118705833593044
1.1458864576084681897
1.1458954013160380647
1.1459236639602670138
1.1459518207626313568
1.1459618990219635482
1.1459415490373034974
1.1458864342227677025
1.145800212424958664
1.1456920539199766385
1.1455735954840320368
1.1454570716486218718
1.1453536526629586323
1.1452719539902633805
1.1452172045825177449
1.1451906673602869624
1.1451893383102618174
1.1452061187193471881
1.1452308507427708673
1.1452529175600949518
1.1452638667938852546
1.1452594652562280153
1.1452410014689384798
1.1452138219336387426
1.1451864644262559345
1.1451667177588431557
1.145159778444522658
1.1451668718825176452
1.1451876157617217888
1.1452202331298231286
1.1452644590868426011
1.1453210993628599734
1.1453911550131963271
1.1454727422080361876
1.1455604010909405943
1.1456454699236682249
1.145719035517360096
1.1457749686253333454
1.1458121956776170514
1.1458367882772904078
1.1458596581810136517
1.1458942957834796772
1.1459528016551370211
1.1460427101890848789
1.146165362783494901
1.146314864909986575
1.1464772653260775215
1.1466340672517296717
1.1467670257410580437
1.1468613430076908255
1.146910573877393924
1.1469178436229356954
1.1468940748414107045
1.1468553396265674937
1.1468175845974659666
1.1467934854840884373
1.1467894400890346063
1.1468059952915938826
1.1468390274873800916
1.1468843257440144434
1.1469409319470622588
1.1470121058084379317
1.147101965045440819
1.1472129262858576926
1.1473423355895828735
1.147482162923652238
1.1476197897937621129
1.1477408041262737726
1.1478340371168860301
1.1478947256305938041
1.1479265924124784082
1.1479410288806888296
1.1479525434291022457
1.1479747782397009548
1.1480152990290486414
1.1480745912573371292
1.1481467917665275635
1.1482231490872110147
1.1482964017533028311
1.1483646136192124931
1.1484318630758370006
1.1485046773403666531
1.1485882135049283459
1.1486834471301525795
1.1487840318405702078
1.1488765925577970606
1.1489456644576157007
1.1489784672310747737
1.1489693822668469725
1.1489223267466177614
1.1488499900003843468
1.1487704517212433686
1.1487027104102960351
1.1486622238236512406
1.1486579917424302177
1.1486917125159477049
1.1487576965938957052
1.1488450109487553519
1.1489401850648344183
1.1490297564257057061
1.1491019952575178831
1.1491468709312628871
1.1491564826853972736
1.1491259677602607692
1.1490537591451479571
1.1489424960199789982
1.1487992395048569616
1.1486337333249942994
1.1484575024391907583
1.1482829872976645369
1.1481217122910682971
1.1479820298263241352
1.1478678607281682655
1.1477784921076403801
1.1477106325841017753
1.1476600612143714741
1.1476229569635199024
1.1475969711394351513
1.1475815175607504415
1.1475776609926935379
1.1475872763621972616
1.1476116846668107385
1.1476510920372218205
1.1477028517930076834
1.1477621531864612425
1.1478237326646421046
1.1478822732860138878
1.1390073393098876231
1.1409484230097406421
1.1393038805697717208
1.138850440616815618
1.1394968589916185664
1.1396416180813628838
1.1395563950644884699
1.1389393812781711812
1.1379432497415475911
1.1371343488108922593
1.1370757417099053299
1.1374587165200904515
1.137852961003265273
1.1383624202530941982
1.1386935309474488509
1.1383564321933952179
1.137795903693711308
1.1376308625599833579
1.1375715327115669684
1.1375872122580716894
1.1380998140912206296
1.1391686549412360918
1.1401010183971398426
1.1401041164850389542
1.139321112131986391
1.1385740916715476612
1.1384098974735910037
1.1388529588998268505
1.1397008253168796621
1.1404841768657747458
1.1405587823575329409
1.1398765419424821133
1.1389971627127628562
1.1384255617105765168
1.1381922759460163519
1.1382897086429197842
1.1388161913799210723
1.1394912217551396161
1.1398507317689123841
1.1397097648773515388
1.1393818047402333171
1.1391675373211029854
1.1391119158859244198
1.1392735336125991985
1.1397450297427129673
1.1403211126618295612
1.1405731108844789912
1.1403114349877909728
1.1397962598849344928
1.1393800501193080965
1.1392328282194301714
1.1394532403270247745
1.1399805211303619679
1.140497542281346588
1.1406380978511676538
1.1404273303539993467
1.1401891042716778557
1.140085230011919748
1.1399889815678208027
1.1397665661641367407
1.1395193846948492578
1.1394460214276309618
1.139610698430549407
1.1398097269099245477
1.1397477924163221807
1.1393946133057699655
1.1390573475606915466
1.1390514400028113329
1.1393554813019741712
1.1396517044892175985
1.1396947563244244073
1.1395409585022466814
1.1394419746507906677
1.1395600459358175005
1.139771857266016708
1.13978168092015264
1.1394467060497828204
1.1388603634736824688
1.1382601069808437888
1.1378353301952894849
1.1376654406451931489
1.1377308071745275697
1.1379348201094081627
1.1381849827889320981
1.1384814322004181975
1.1389019105289432954
1.1395042790552563083
1.14020584922382473
1.1408239034109155519
1.1411712138117517945
1.1411362057825302774
1.1407514829366489639
1.1401494841902131139
1.1394717634130664408
1.138830822301016843
1.1383430747839267116
1.1381628046037910451
1.1384225453837328867
1.139072910408606587
1.1398573142323633611
1.1404660329658018458
1.1407594571961217067
1.1408024779217706968
1.1407093095717129039
1.1405153785991348769
1.1401671988372568123
1.1396655120484890933
1.1391440573342790366
1.1388303271617619128
1.1389096781627892074
1.13942447735314345
1.1402671837073472538
1.1412600400125363365
1.1422631472435074151
1.143237901673558099
1.1442117393284747529
1.1452093665502698361
1.1461715771555265331
1.1469634459080944033
1.147472181914322098
1.1477010559469946749
1.1477762033544309794
1.1478453710759628503
1.1479708378997779405
1.1481110281993862632
1.1481799731791277885
1.1481284845406549699
1.1479863510707408736
1.1478447937275761959
1.1477884725839149205
1.1478502601651665582
1.1480028561536705922
1.1481787594672872022
1.1483165095535050604
1.1483910439208462329
1.1484018966100077996
1.1483582140110542014
1.148269750288969604
1.1481317601760228087
1.1479119282723757589
1.1475700533639143774
1.1471105786617048494
1.1466227532082760021
1.1462476325977017932
1.1460879933010668097
1.1461381818698157531
1.1462847049445850089
1.1463900566558162808
1.1463892529684784893
1.1463178079189824121
1.1462616244179408831
1.1462670726143757705
1.1463028932687526762
1.1462948867101283579
1.1462012424928351706
1.1460584374913462824
1.1459580145922321215
1.1459698812083436437
1.1460827047450463656
1.1462138096775218443
1.1462659940093753441
1.1461824357836498667
1.1459665309656850152
1.1456658987940149252
1.1453491275532492466
1.1450847114035960228
1.1449240825687805323
1.1448872153135174479
1.1449535445625078633
1.1450713349682968278
1.1451836454804824594
1.1452574944111921784
1.1452935052048571762
1.14531243548116346
1.1453315242065700286
1.1453451807847858657
1.1453311465951609982
1.1452717753137515722
1.1451746529940958208
1.1450736776187437904
1.145009429276728774
1.1450050047266286946
1.1450594362701529416
1.1451531121553062409
1.1452607257151279363
1.145358448564770093
1.1454268937060974043
1.1454511496716843766
1.145426302556206144
1.1471307206545722224
1.1472607589276595519
1.1473907004372236873
1.1475287937821714301
1.1476879250329774518
1.1478622193214680358
1.1480207618533522229
1.1481250857335367765
1.1481529839922823832
1.1481113168122050183
1.1480319479296154928
1.1479559916073664994
1.147915296402304719
1.1479196801660194183
1.1479562150135924625
1.1479989664934109328
1.1480219344040027973
1.1480097476501849307
1.1479618755217269044
1.1478905202526892282
1.147814810939253416
1.1477532025612966482
1.1477159967358963044
1.147702348955463858
1.1477038848845946273
1.1477106370652545575
1.1477158440015786667
1.1477175575180311728
1.1477146621727356557
1.1477007163226855546
1.1476623238628334001
1.1475846434372283245
1.1474619958130702901
1.1473075823388061423
1.1471539540586133121
1.1470413173969078446
1.1469977911878226351
1.1470234233665830281
1.1470886005553146969
1.1471480667672269149
1.1471645793651177314
1.1471259879761450673
1.1470482599962019687
1.1469654649334521945
1.1469115259824491648
1.1469035200922614859
1.1469359684142121925
1.1469859673826323654
1.1470250776055839204
1.1470317866696209119
1.1469988904821377673
1.1469368407207340965
1.1468705492188100425
1.146829509654169188
1.1468362317874762901
1.1468960578217330948
1.1469944179458622102
1.1471015956068482122
1.1471837375326296993
1.147216815160604364
1.1471950968196533704
1.1471304354238811563
1.1470434969639908829
1.1469512745675809473
1.146860422054071682
1.1467688813207290721
1.1466736754512802943
1.1465788868664137379
1.1464983300274489419
1.1464480118940583164
1.1464351337930167585
1.1464524344036777226
1.1464817991704474576
1.1465035541565056221
1.1465085225214843856
1.1465012839864316962
1.1464931966652620599
1.1464906633925908697
1.1464874583789925744
1.1464649947288720888
1.1464023746334197629
1.1462894563083640964
1.1461342542641064224
1.1459623502587978905
1.1458091120467082114
1.1457076097710519047
1.1456772883045445166
1.1457165629566889997
1.1458041519221366933
1.1459072573484598845
1.1459943438343165312
1.1460465262308239254
1.1460630780616545277
1.1460600185663361028
1.1460621304174818391
1.1460909206479943379
1.1461552780669559404
1.146248314904338983
1.1463522489549005101
1.146447737610827744
1.1465238741671213152
1.146581649005301129
1.1466312750731340042
1.1466843745796559961
1.1467463866519755911
1.1468123725539534075
1.1468686798834726304
1.1469000113267200369
1.1468961338542549289
1.1468551308298513547
1.1467835046976311286
1.1466926068697884666
1.1465947627375581153
1.146500664482638987
1.1464191470230549186
1.1463575795919527245
1.1463219041947945165
1.1463156913814196436
1.1463378684481997372
1.146380469998169449
1.1464287594242121848
1.146464350241947816
1.1464699948615928449
1.1464352389240104468
1.1463603535106337006
1.1462565667524362567
1.1461436288637800729
1.1460440203638513346
1.1459750307922911272
1.1459428602660075569
1.1459419921728908331
1.1459577011276316227
1.1459713339633723628
1.1459668436091632326
1.1459348536284628128
1.1458735003493090154
1.145787711910747575
1.1456864519722378404
1.1455798888330939178
1.145477567089456139
1.1453884587077896029
1.1453204887148611402
1.1452786930130105514
1.1452636855063533794
1.1452713779556036311
1.1452935304685154527
1.1453194001101048016
1.1453386772952445227
1.1453438438847034497
1.1453323530366286143
1.1453062741768322841
1.1452723213319762063
1.1452392996537872349
1.1452163883893364815
1.1452107442078165445
1.1452253152818820947
1.1452605033545737445
1.1453145902969590342
1.1453843691626170997
1.1454666153155237396
1.1455581682016242606
1.1456550059818066956
1.1457506424072445572
1.1458378347699458288
1.1459089284289780686
1.1459597259038043493
1.1459908247210011112
1.1460081360970943987
1.1460225665173102705
1.1460467466455734886
1.1460928529220155703
1.1461698825229491572
1.1462806733162103079
1.1464201093208585824
1.1465754100159655238
1.1467284466259124454
1.1468596153385934855
1.1469541611134901338
1.147006241531347559
1.1470198434146592348
1.1470081201839128493
1.1469874197182026165
1.1469727622838652437
1.1469736988039971326
1.1469928972280614143
1.1470269226133429363
1.1470697111269820834
1.1471154681147088805
1.147161963757062475
1.1472128788770030727
1.1472757997003102393
1.1473572470263599943
1.1474594105403346234
1.147577941487456954
1.1477034252033377904
1.1478232091381985747
1.1479258334181965395
1.14800457018858304
1.1480591855071320406
1.1480951768826075376
1.1481211355567668697
1.1481455562689661942
1.1481741991348530796
1.1482088103375429622
1.1482481495778127378
1.1482901097056181783
1.1483335357992319192
1.1483795913500822738
1.1484316927636846195
1.1484941406747370962
1.1485688102025093382
1.1486530417703109119
1.1487391399206190457
1.1488151737429439514
1.1488682489014889754
1.1488897045140851194
1.1488779438245881881
1.1488388927389880934
1.1487853760865500696
1.1487333342780532419
1.1486983399338803746
1.1486920372750324404
1.1487199827312579714
1.1487806658794492698
1.1488663226270867668
1.1489659737066364453
1.149067688246325103
1.1491597015046486341
1.1492325609969051836
1.1492788844787527047
1.1492926828424008256
1.1492699337101712764
1.1492087759350950726
1.1491098930129133304
1.1489778674778794443
1.1488211855527172833
1.1486509618140872124
1.1484796271205268692
1.1483184071800436321
1.1481766329987266317
1.1480588014001813502
1.1479657259160718219
1.1478947340389884513
1.1478409223413408302
1.1477997625528073566
1.1477689561951056607
1.1477492744579396167
1.1477437353088126848
1.1477564626485210475
1.1477902035201561493
1.1478454743847039676
1.1479202317565548874
1.1480086927088883897
1.148102249080259929
1.1481918336304286488
1.137390428007059695
1.1390647396547568526
1.1387805483689479313
1.1391297867640712838
1.1398010586774676156
1.1391074638793923235
1.1383683861249600522
1.1377515895616967523
1.1369174968219242228
1.1367104257369877729
1.1373639781674382832
1.1377812509584568357
1.1378482986868083682
1.1382692523555983932
1.1387319506155462179
1.1383905307443888955
1.1377576491240943835
1.1375181199875941118
1.1376512384708623582
1.1381703060261607607
1.1390348159783492132
1.1399064951412822833
1.1402676999659564494
1.139955254930739903
1.1392554875997340513
1.1386158807251929304
1.1383763927421026718
1.1387665780783267078
1.1396355821325572233
1.1403380202003388089
1.140380621476961176
1.1399045589066452155
1.1393188962689733135
1.1388082170039743879
1.1384509374671134552
1.1384643864429497828
1.1390270695226671904
1.1398235168403691997
1.1402156437422013013
1.1398942298778418358
1.1393045298115944686
1.1388906083993943774
1.1387152918680076841
1.1388231350579742784
1.139342599756006269
1.1400774776367195162
1.140447373017037247
1.1401053123130486799
1.1393636535895619311
1.1388067740756111501
1.1387669745416268974
1.139208722904951232
1.1398477634395203228
1.1403042595459180752
1.1403076482873613084
1.1399811697835799951
1.1397079417949160796
1.1396924957232186237
1.1397899210492155042
1.1397774163709135653
1.1396426180637169168
1.1395397629447325816
1.1396006149848192379
1.1397503285195809131
1.139760587443770623
1.1395443588549110103
1.1392994745619557939
1.1393035031542997348
1.1395812929147774994
1.1398687901579618309
1.1398663669259554432
1.13957226615169116
1.1392548603278025432
1.1391529198492067465
1.139248566395608897
1.1393306585421238974
1.1392102168547029173
1.1388747396627314501
1.1384602465912907476
1.1381149815080955356
1.1379311318329681235
1.1379258889558718781
1.1380355641431942892
1.1382206532474188343
1.1385122107515419643
1.13894835774344938
1.13951459045211001
1.1401256549257010597
1.1406724422002696429
1.1410192801598597612
1.1410489284297677948
1.1407391971524609708
1.140197253178844905
1.139592575152374998
1.1390589436303475424
1.1386922145105469184
1.1385929726115224803
1.1388580709396887158
1.1394407006683564543
1.1401128958248916145
1.1405868348291652303
1.1407490829637534357
1.1406745285430206494
1.1405133440859511751
1.1403017149468357427
1.1399894558526166843
1.1395527153845796953
1.1391123644873617504
1.138884016115031983
1.1390440888554145271
1.1396215893879810821
1.1404916928451238611
1.1414671513295697736
1.1424190942242127278
1.1433212549651878831
1.1442260090414146934
1.1451842327298020763
1.1461780121802838117
1.1470909840397558455
1.1477680547103383812
1.1481414423696127969
1.1482698161599511621
1.1482744701510805285
1.1482587692779486765
1.1482515861967614867
1.148219428004956244
1.1481346211487846176
1.1480181865286478438
1.1479245570263978404
1.1479123712881660335
1.1479985754324815161
1.1481449603855236052
1.1482911493722758323
1.1483982825848524367
1.1484618425075368009
1.1484818727495886836
1.148439127258342296
1.1483102699405014491
1.1480836940092689069
1.1477517830502850238
1.1473197939025561176
1.1468359411032971185
1.1463975990613901601
1.1461141526604490259
1.1460400528255754171
1.1461290622561071118
1.1462544375009082742
1.1462944683568645488
1.1462176594141970654
1.1460928899397198055
1.1460280770535684614
1.1460756867772210477
1.1461869476392587686
1.1462593201063586701
1.1462297819840494562
1.146130494488515561
1.1460567202899296646
1.1460799309427260884
1.1461846199007481584
1.1462843781942571031
1.1462886542784127553
1.1461530968572282152
1.1458920415628643941
1.1455622845509851881
1.1452364117995890158
1.1449808884456869063
1.1448407892606309311
1.1448236382803955724
1.1448971070044318132
1.1450030675070563824
1.1450881192044275458
1.1451289039293248706
1.1451375851175349396
1.1451468788911893792
1.1451818598160730112
1.1452384965819641938
1.1452828344660097581
1.1452758282803845447
1.1452043638478142107
1.1450921474439568204
1.1449818331971208796
1.144914834349234356
1.1449147790410412195
1.1449810247642322469
1.1450913558618871502
1.1452129927294503187
1.1453134543066185724
1.1453683245709620486
1.1453703050126957663
1.1472997764574166535
1.147409845730566591
1.1475050882295940724
1.1476009397882811491
1.1477191635884775867
1.1478654774861136723
1.1480178126533733263
1.1481342743510305482
1.1481809375578762022
1.1481545596785753816
1.148084381375207963
1.1480162812216310186
1.1479881888113723232
1.1480095271321841821
1.1480576633405679132
1.1480926212296955757
1.1480787695842731289
1.1480025068892936169
1.1478758512465931929
1.1477276788088737192
1.1475902185661943644
1.1474868334826096028
1.1474252725038520673
1.1473995067142797044
1.1473985230708998451
1.1474145100898924809
1.1474439419837152432
1.1474838334109935811
1.147524623028761237
1.147545824714110374
1.1475214234839277161
1.1474331777883306493
1.1472829612397097421
1.1470971151533135846
1.146918193950705156
1.146788326842921979
1.1467303331515521503
1.1467371343080323687
1.1467775396236843388
1.1468130836067773615
1.1468168883629521471
1.1467853910009289109
1.1467366270757879398
1.1466992584422315282
1.1466954736102903389
1.1467292708079210861
1.1467847015240941744
1.1468337126967906858
1.1468490422772454895
1.1468168914936982539
1.1467429396251704876
1.1466492466228006553
1.1465663940303434387
1.1465219956124823586
1.1465316652636212691
1.1465944100436120667
1.1466928523774309046
1.1468000511107392381
1.1468871130226612198
1.1469326166574786985
1.1469286747441242991
1.1468807138460501704
1.1468024824626310565
1.1467075679781899566
1.1466047600883584323
1.1465005245638164588
1.1464042723811547209
1.1463290637761085478
1.1462892292870296984
1.1462926616092026233
1.1463337025130426738
1.1463928167778949518
1.146446219598276528
1.1464769869631012966
1.1464830312037534998
1.1464757019880771338
1.1464691621335123539
1.1464685125839104707
1.146464276125006565
1.1464362463880137799
1.1463645663253607676
1.1462434153501057654
1.1460869963174942221
1.145925840395402906
1.1457956067029377856
1.1457247927164206924
1.1457248425380208712
1.145786403865545644
1.1458819529513895041
1.145976471536842789
1.1460405969396667558
1.1460620602391897727
1.1460489995472489255
1.1460244130686876307
1.1460154383411627066
1.1460415317678136482
1.1461068222768846514
1.1461998972039431077
1.1463005283595286699
1.1463906145164604045
1.1464628424913607674
1.1465224127160968948
1.1465821964100140207
1.1466547721454678488
1.1467439274737518673
1.1468412938248828681
1.1469281764664005507
1.1469838271207779545
1.1469942564551314224
1.1469570486970945833
1.1468805995004798248
1.1467795309515289581
1.1466688842367407375
1.1465607353399525081
1.1464644142778308566
1.1463880451427415075
1.1463387605128081415
1.1463216903982544892
1.1463370830275272372
1.1463778375810025345
1.1464289663064473057
1.1464708529046458985
1.1464850448357721824
1.1464597173388868523
1.1463942390901002977
1.1462998466506928441
1.1461953627517647014
1.1461020130253192217
1.1460361960993963315
1.1460029839442413824
1.145996101681836743
1.1460017204507253474
1.1460034751112042617
1.1459880588251034617
1.1459492105860280553
1.1458879180509355944
1.145809924650682321
1.1457232303367179682
1.1456360775861711421
1.1455547936433116973
1.1454845893522516143
1.1454302775859412922
1.1453962218443642929
1.1453833713697401109
1.1453888681257915483
1.1454059300592938087
1.145425456207008752
1.1454384551850027574
1.1454380184939458864
1.1454217926119276694
1.14539138780968619
1.1453529949411389577
1.1453156820505721036
1.1452895160408755881
1.1452844654688760784
1.1453063717624722972
1.1453555327592161994
1.1454293150925403122
1.1455213916002240371
1.1456238550865533998
1.1457293575745435277
1.1458334557728033776
1.1459315895697848031
1.1460193616021896457
1.1460926383183713817
1.1461484755328485985
1.1461867057568897454
1.1462106628106474293
1.146227403306534498
1.1462467680088082034
1.1462801812608198748
1.146338267176056247
1.1464269747399049582
1.1465447269823976217
1.1466826626297574876
1.1468251411920600269
1.146953605098295581
1.1470530313312632398
1.1471162063123367947
1.1471463269043415956
1.1471551353222761982
1.1471580363356010945
1.1471677627501988272
1.147191250848959676
1.1472283771800813046
1.1472735012697472534
1.1473183120032752758
1.1473566348927892733
1.1473868078643323365
1.147413810382046373
1.1474469472562267569
1.147496167613430762
1.1475677363509075857
1.1476614532903408605
1.1477711115355189175
1.1478869651722747314
1.1479981267966201663
1.148096096372551056
1.1481766422404708905
1.1482394629419239163
1.1482867979353006405
1.1483217262103333489
1.1483475563312388612
1.1483664463827536473
1.1483806579862982922
1.1483932047978755442
1.1484080942828105432
1.14842990760375252
1.1484619005642433542
1.1485050320124430279
1.1485570255241721593
1.148612541035075818
1.1486647429786018826
1.1487062175556161936
1.1487307468048519876
1.1487355474384066678
1.1487232653258407922
1.1487012293745442193
1.1486798644401290392
1.1486700960133353622
1.148680525882005421
1.1487154414956144421
1.1487741861114662001
1.1488524426558222036
1.1489432210977432725
1.149037900888048469
1.1491283543437138537
1.1492080233369104114
1.149271576164840436
1.1493147802565475413
1.1493335949289777975
1.1493240852373605154
1.1492831042539841668
1.1492097097271460893
1.1491047235964526596
1.1489721619710966394
1.1488204981779990277
1.1486610988968035674
1.1485059111575204316
1.1483648522407787773
1.1482453006441386556
1.1481490874553983428
1.1480740051934099633
1.1480158503743806975
1.1479714044051476662
1.1479399831354284434
1.1479232266178587274
1.1479256168724520926
1.1479522500783498895
1.1480067087769081358
1.148089787678571394
1.1481974862281256744
1.1483208271156530866
1.1484474055110596158
1.1485646750881075562
1.148661454636392909
1.1347905197209060546
1.1345630264705550694
1.1366806558269231253
1.1388978190519050138
1.1401572887541364665
1.1394896631991038305
1.1386574774848983171
1.1382466753645459345