# Selection       : all
# Cells           : 1
# Volume          : 1.0000000000e+00
# Time            	volAverage(alpha.gas)	volAverage(alpha.liquid)	volAverage(air.gas)	volAverage(H2O.gas)	volAverage(H2O.liquid)	volAverage(C3H8O.gas)	volAverage(C3H8O.liquid)	volAverage(p)	volAverage(T.gas)	volAverage(T.liquid)	volAverage(phaseChange:Ts)	volAverage(dMass.gas)	volAverage(dMass.liquid)	volAverage(dMass)	volAverage(dEnergy.gas)	volAverage(dEnergy.liquid)	volAverage(dEnergy)
0                 	9.9000000000e-01	1.0000000000e-02	1.0000000000e+00	0.0000000000e+00	5.0000000000e-01	0.0000000000e+00	5.0000000000e-01	1.0000000000e+05	3.5000000000e+02	3.5000000000e+02	3.5000000000e+02	0.0000000000e+00	0.0000000000e+00	0.0000000000e+00	0.0000000000e+00	0.0000000000e+00	0.0000000000e+00
0.0025            	9.9003402536e-01	9.9659746359e-03	9.7308339756e-01	1.8788030077e-02	4.9939229866e-01	8.1285723657e-03	5.0060770134e-01	1.0380958103e+05	3.5293512408e+02	3.4875525929e+02	3.3870491568e+02	2.1808848894e-02	-3.1732531352e-02	-9.9236824570e-03	-2.8724777805e+05	3.4907164891e+05	6.1823870857e+04
0.005             	9.9003810399e-01	9.9618960066e-03	9.6233310423e-01	0.0000000000e+00	5.0820921173e-01	9.0320675147e-02	4.9179078827e-01	1.0459755942e+05	3.4471384736e+02	3.4587985191e+02	3.3922919057e+02	1.0981808655e-01	-1.4528018340e-02	9.5290068211e-02	-4.0151310743e+05	-7.4121979870e+05	-1.1427329061e+06
0.0075            	9.9005597056e-01	9.9440294397e-03	9.4775944427e-01	0.0000000000e+00	5.0783033425e-01	9.3381115581e-02	4.9216966575e-01	1.0636868075e+05	3.4597722903e+02	3.4483087513e+02	3.3482052988e+02	1.2665763564e-01	-3.1368430373e-02	9.5289205269e-02	-4.2534820340e+05	-5.6096786143e+05	-9.8631606483e+05
0.01              	9.9007299589e-01	9.9270041094e-03	9.3426277764e-01	0.0000000000e+00	5.0745796459e-01	9.6139724669e-02	4.9254203541e-01	1.0801870887e+05	3.4702790048e+02	3.4382579430e+02	3.3424414717e+02	1.4271967702e-01	-4.7439494937e-02	9.5280182087e-02	-4.4823458807e+05	-3.8806987690e+05	-8.3630446497e+05
0.0125            	9.9008923071e-01	9.9107692860e-03	9.2172719931e-01	0.0000000000e+00	5.0709187719e-01	9.8630557837e-02	4.9290812281e-01	1.0955888948e+05	3.4789540601e+02	3.4286165258e+02	3.3367905262e+02	1.5805929638e-01	-6.2787315105e-02	9.5271981271e-02	-4.7020747224e+05	-2.2211436371e+05	-6.9232183595e+05
0.015             	9.9010473004e-01	9.8952699616e-03	9.1005177554e-01	0.0000000000e+00	5.0673177602e-01	1.0088269653e-01	4.9326822398e-01	1.1099919065e+05	3.4860469898e+02	3.4193575155e+02	3.3312525102e+02	1.7272645657e-01	-7.7461946690e-02	9.5264509883e-02	-4.9130196550e+05	-6.2633059082e+04	-5.5393502458e+05
0.0175            	9.9011954375e-01	9.8804562475e-03	8.9914933701e-01	0.0000000000e+00	5.0637738951e-01	1.0292123377e-01	4.9362261049e-01	1.1234842204e+05	3.4917682516e+02	3.4104563293e+02	3.3258274778e+02	1.8676647898e-01	-9.1508791466e-02	9.5257687515e-02	-5.1155279618e+05	9.0799048237e+04	-4.2075374794e+05
0.02              	9.9013303178e-01	9.8669682240e-03	8.8964952483e-01	5.2526494417e-03	5.0611454332e-01	1.0509782573e-01	4.9388545668e-01	1.1396818648e+05	3.4971286986e+02	3.4026448573e+02	3.3303725367e+02	1.9941331659e-01	-1.0415606545e-01	9.5257251146e-02	-6.1250368931e+05	2.2434834923e+05	-3.8815534008e+05
0.0225            	9.9014531615e-01	9.8546838502e-03	8.8130079901e-01	1.1229529009e-02	5.0594067624e-01	1.0746967199e-01	4.9405932376e-01	1.1547557953e+05	3.5010297598e+02	3.3959037794e+02	3.3335504480e+02	2.1073107586e-01	-1.1551982886e-01	9.5211247005e-02	-7.2632243940e+05	3.3943141521e+05	-3.8689102420e+05
0.025             	9.9015674435e-01	9.8432556469e-03	8.7373088733e-01	1.6285805963e-02	5.0582961645e-01	1.0998330671e-01	4.9417038355e-01	1.1677180363e+05	3.5034636144e+02	3.3899430399e+02	3.3340726973e+02	2.2108537649e-01	-1.2597215229e-01	9.5113224204e-02	-8.2739361988e+05	4.4151186440e+05	-3.8588175547e+05
0.0275            	9.9016751701e-01	9.8324829930e-03	8.6676664151e-01	2.0634157165e-02	5.0576755348e-01	1.1259920133e-01	4.9423244652e-01	1.1790862645e+05	3.5047683645e+02	3.3845508527e+02	3.3337716820e+02	2.3074753962e-01	-1.3572481197e-01	9.5022727651e-02	-9.1858827489e+05	5.3345752485e+05	-3.8513075004e+05
0.03              	9.9017775397e-01	9.8222460305e-03	8.6029705758e-01	2.4423591110e-02	5.0574384357e-01	1.1527935131e-01	4.9425615643e-01	1.1891917403e+05	3.5051907335e+02	3.3796052156e+02	3.3329577528e+02	2.3986110139e-01	-1.4490994532e-01	9.4951156074e-02	-1.0018610053e+06	6.1727554013e+05	-3.8458546514e+05
0.0325            	9.9018753113e-01	9.8124688673e-03	8.5424700156e-01	2.7760747009e-02	5.0575042057e-01	1.1799225143e-01	4.9424957943e-01	1.1982621266e+05	3.5049129110e+02	3.3750275710e+02	3.3318368530e+02	2.4851204399e-01	-1.5361432399e-01	9.4897719995e-02	-1.0785809171e+06	6.9438743788e+05	-3.8419347926e+05
0.035             	9.9019689945e-01	9.8031005548e-03	8.4856272639e-01	3.0724202479e-02	5.0578112415e-01	1.2071307113e-01	4.9421887585e-01	1.2064623459e+05	3.5040724687e+02	3.3707632898e+02	3.3305368587e+02	2.5675697901e-01	-1.6189793566e-01	9.4859043347e-02	-1.1497416764e+06	7.6582809790e+05	-3.8391357845e+05
0.0375            	9.9020589532e-01	9.7941046774e-03	8.4320371826e-01	3.3373581027e-02	5.0583118228e-01	1.2342270071e-01	4.9416881772e-01	1.2139170081e+05	3.5027756857e+02	3.3667721148e+02	3.3291370019e+02	2.6463620898e-01	-1.6980450679e-01	9.4831702187e-02	-1.2160909153e+06	8.3237573396e+05	-3.8371518134e+05
0.04              	9.9021454642e-01	9.7854535771e-03	8.3813802931e-01	3.5755303578e-02	5.0589684612e-01	1.2610666711e-01	4.9410315388e-01	1.2207235010e+05	3.5011063227e+02	3.3630230076e+02	3.3276870695e+02	2.7218036397e-01	-1.7736752393e-01	9.4812840035e-02	-1.2782096327e+06	8.9463365519e+05	-3.8357597748e+05
0.0425            	9.9022287493e-01	9.7771250707e-03	8.3333951919e-01	3.7906311028e-02	5.0597513349e-01	1.2875416978e-01	4.9402486651e-01	1.2269600418e+05	3.4991315014e+02	3.3594911641e+02	3.3262188295e+02	2.7941400271e-01	-1.8461377339e-01	9.4800229319e-02	-1.3365621289e+06	9.5308237263e+05	-3.8347975624e+05
0.045             	9.9023089947e-01	9.7691005347e-03	8.2878616645e-01	3.9856548509e-02	5.0606364604e-01	1.3135728504e-01	4.9393635396e-01	1.2326908594e+05	3.4969057567e+02	3.3561561870e+02	3.3247527952e+02	2.8635766703e-01	-1.9156548385e-01	9.4792183189e-02	-1.3915283797e+06	1.0081136475e+06	-3.8341473228e+05
0.0475            	9.9023863624e-01	9.7613637633e-03	8.2445899706e-01	4.1630673430e-02	5.0616043642e-01	1.3391032951e-01	4.9383956358e-01	1.2379696622e+05	3.4944739076e+02	3.3530009133e+02	3.3233022954e+02	2.9302910311e-01	-1.9824166081e-01	9.4787442307e-02	-1.4434256669e+06	1.0600533486e+06	-3.8337231830e+05
0.05              	9.9024609973e-01	9.7539002715e-03	8.2034137999e-01	4.3249262168e-02	5.0626391032e-01	1.3640935785e-01	4.9373608968e-01	1.2428420386e+05	3.4918731417e+02	3.3500106333e+02	3.3218759788e+02	2.9944401436e-01	-2.0465894096e-01	9.4785073401e-02	-1.4925234441e+06	1.1091772036e+06	-3.8334624050e+05
0.0525            	9.9025330314e-01	9.7466968615e-03	8.1641854717e-01	4.4729683540e-02	5.0637275290e-01	1.3885176929e-01	4.9362724710e-01	1.2473471681e+05	3.4891345634e+02	3.3471725509e+02	3.3204793901e+02	3.0561654169e-01	-2.1083215401e-01	9.4784387676e-02	-1.5390538262e+06	1.1557219226e+06	-3.8333190356e+05
0.055             	9.9026025866e-01	9.7397413449e-03	8.1267725474e-01	4.6086744849e-02	5.0648587281e-01	1.4123600041e-01	4.9351412719e-01	1.2515190728e+05	3.4862843659e+02	3.3444754006e+02	3.3191159837e+02	3.1155958053e-01	-2.1677470240e-01	9.4784878134e-02	-1.5832191692e+06	1.1998932346e+06	-3.8332593464e+05
0.0575            	9.9026697764e-01	9.7330223624e-03	8.0910553569e-01	4.7333178991e-02	5.0660235913e-01	1.4356128532e-01	4.9339764087e-01	1.2553875558e+05	3.4833447328e+02	3.3419091661e+02	3.3177877887e+02	3.1728499756e-01	-2.2249882511e-01	9.4786172452e-02	-1.6251976724e+06	1.2418718177e+06	-3.8332585469e+05
0.06              	9.9027347074e-01	9.7265292610e-03	8.0569251325e-01	4.8480018072e-02	5.0672144777e-01	1.4582746868e-01	4.9327855223e-01	1.2589789178e+05	3.4803345426e+02	3.3394648710e+02	3.3164958530e+02	3.2280378422e-01	-2.2801578627e-01	9.4787997945e-02	-1.6651476035e+06	1.2818177628e+06	-3.8332984072e+05
0.0625            	9.9027974799e-01	9.7202520084e-03	8.0242825587e-01	4.9536884394e-02	5.0684249506e-01	1.4803485974e-01	4.9315750494e-01	1.2623165157e+05	3.4772699271e+02	3.3371344162e+02	3.3152405443e+02	3.2812616963e-01	-2.3333601401e-01	9.4790155616e-02	-1.7032105478e+06	1.3198739948e+06	-3.8333655303e+05
0.065             	9.9028581887e-01	9.7141811309e-03	7.9930366147e-01	5.0512220239e-02	5.0696495678e-01	1.5018411829e-01	4.9303504322e-01	1.2654212049e+05	3.4741647171e+02	3.3349104546e+02	3.3140217583e+02	3.3326170675e-01	-2.3846920576e-01	9.4792500994e-02	-1.7395139487e+06	1.3561689397e+06	-3.8334500903e+05
0.0675            	9.9029169233e-01	9.7083076655e-03	7.9631036280e-01	5.1413471575e-02	5.0708837132e-01	1.5227616562e-01	4.9291162868e-01	1.2683116947e+05	3.4710308039e+02	3.3327862895e+02	3.3128390632e+02	3.3821934038e-01	-2.4342441041e-01	9.4794929968e-02	-1.7741731288e+06	1.3908186380e+06	-3.8335449083e+05
0.07              	9.9029737688e-01	9.7026231218e-03	7.9344064855e-01	5.2247236585e-02	5.0721234615e-01	1.5431211487e-01	4.9278765385e-01	1.2710048382e+05	3.4678784340e+02	3.3307557933e+02	3.3116918015e+02	3.4300746261e-01	-2.4821009430e-01	9.4797368308e-02	-1.8072929199e+06	1.4239284428e+06	-3.8336447704e+05
0.0725            	9.9030288055e-01	9.6971194506e-03	7.9068739646e-01	5.3019386982e-02	5.0733654677e-01	1.5629321656e-01	4.9266345323e-01	1.2735158706e+05	3.4647164518e+02	3.3288133397e+02	3.3105791634e+02	3.4763395935e-01	-2.5283419545e-01	9.4799763900e-02	-1.8389689954e+06	1.4555944029e+06	-3.8337459249e+05
0.075             	9.9030821098e-01	9.6917890162e-03	7.8804401585e-01	5.3735167997e-02	5.0746068770e-01	1.5822081615e-01	4.9253931230e-01	1.2758586087e+05	3.4615525007e+02	3.3269537479e+02	3.3095002381e+02	3.5210625027e-01	-2.5730416929e-01	9.4802080983e-02	-1.8692889747e+06	1.4859044039e+06	-3.8338457080e+05
0.0775            	9.9031337543e-01	9.6866245719e-03	7.8550439766e-01	5.4399281513e-02	5.0758452500e-01	1.6009632083e-01	4.9241547500e-01	1.2780456181e+05	3.4583931909e+02	3.3251722346e+02	3.3084540526e+02	3.5643132372e-01	-2.6162702786e-01	9.4804295859e-02	-1.8983333460e+06	1.5149391194e+06	-3.8339422656e+05
0.08              	9.9031838076e-01	9.6816192385e-03	7.8306287058e-01	5.5015955683e-02	5.0770785019e-01	1.6192117374e-01	4.9229214981e-01	1.2800883550e+05	3.4552442407e+02	3.3234643740e+02	3.3074395980e+02	3.6061576777e-01	-2.6580937407e-01	9.4806393701e-02	-1.9261762480e+06	1.5427728135e+06	-3.8340343454e+05
0.0825            	9.9032323352e-01	9.6767664828e-03	7.8071416234e-01	5.5589003667e-02	5.0783048502e-01	1.6369683399e-01	4.9216951498e-01	1.2819972883e+05	3.4521105950e+02	3.3218260624e+02	3.3064558500e+02	3.6466579811e-01	-2.6985743194e-01	9.4808366171e-02	-1.9528861360e+06	1.5694740219e+06	-3.8341211411e+05
0.085             	9.9032793990e-01	9.6720600996e-03	7.7845336527e-01	5.6121873494e-02	5.0795227726e-01	1.6542476123e-01	4.9204772274e-01	1.2837820036e+05	3.4489965272e+02	3.3202534882e+02	3.3055017833e+02	3.6858728335e-01	-2.7377707371e-01	9.4810209640e-02	-1.9785263552e+06	1.5951061377e+06	-3.8342021759e+05
0.0875            	9.9033250581e-01	9.6674941928e-03	7.7627590551e-01	5.6617690641e-02	5.0807309703e-01	1.6710640385e-01	4.9192690297e-01	1.2854512945e+05	3.4459057246e+02	3.3187431052e+02	3.3045763817e+02	3.7238576810e-01	-2.7757384423e-01	9.4811923864e-02	-2.0031556379e+06	1.6197279165e+06	-3.8342772144e+05
0.09              	9.9033693684e-01	9.6630631593e-03	7.7417751538e-01	5.7079294599e-02	5.0819283379e-01	1.6874319002e-01	4.9180716621e-01	1.2870132413e+05	3.4428413628e+02	3.3172916090e+02	3.3036786459e+02	3.7606649418e-01	-2.8125298319e-01	9.4813510987e-02	-2.0268285367e+06	1.6433939170e+06	-3.8343461967e+05
0.0925            	9.9034123833e-01	9.6587616724e-03	7.7215420855e-01	5.7509270428e-02	5.0831139370e-01	1.7033652103e-01	4.9168860630e-01	1.2884752805e+05	3.4398061691e+02	3.3158959170e+02	3.3028075989e+02	3.7963442013e-01	-2.8481944533e-01	9.4814974807e-02	-2.0495958049e+06	1.6661548861e+06	-3.8344091888e+05
0.095             	9.9034541533e-01	9.6545846673e-03	7.7020225756e-01	5.7909976106e-02	5.0842869745e-01	1.7188776633e-01	4.9157130255e-01	1.2898442657e+05	3.4368024771e+02	3.3145531489e+02	3.3019622892e+02	3.8309423931e-01	-2.8827791908e-01	9.4816320229e-02	-2.0715047329e+06	1.6880580983e+06	-3.8344663458e+05
0.0975            	9.9034947267e-01	9.6505273263e-03	7.6831817350e-01	5.8283566370e-02	5.0854467838e-01	1.7339826013e-01	4.9145532162e-01	1.2911265216e+05	3.4338322743e+02	3.3132606113e+02	3.3011417940e+02	3.8645039651e-01	-2.9163284367e-01	9.4817552841e-02	-2.0925994454e+06	1.7091476572e+06	-3.8345178823e+05
0.1               	9.9035341493e-01	9.6465850655e-03	7.6649868755e-01	5.8632013531e-02	5.0865928082e-01	1.7486929892e-01	4.9134071918e-01	1.2923278916e+05	3.4308972436e+02	3.3120157821e+02	3.3003452200e+02	3.8970710355e-01	-2.9488842492e-01	9.4818678631e-02	-2.1129211668e+06	1.7294647615e+06	-3.8345640531e+05
0.1025            	9.9035724648e-01	9.6427535222e-03	7.6474073423e-01	5.8957125751e-02	5.0877245871e-01	1.7630214002e-01	4.9122754129e-01	1.2934537809e+05	3.4279987988e+02	3.3108162977e+02	3.2995717047e+02	3.9286835361e-01	-2.9804864984e-01	9.4819703764e-02	-2.1325084587e+06	1.7490479450e+06	-3.8346051370e+05
0.105             	9.9036097146e-01	9.6390285424e-03	7.6304143610e-01	5.9260563146e-02	5.0888417442e-01	1.7769800075e-01	4.9111582558e-01	1.2945091943e+05	3.4251381165e+02	3.3096599406e+02	3.2988204166e+02	3.9593793466e-01	-3.0111730023e-01	9.4820634424e-02	-2.1513974323e+06	1.7679332897e+06	-3.8346414253e+05
0.1075            	9.9036459383e-01	9.6354061698e-03	7.6139808985e-01	5.9543852004e-02	5.0899439768e-01	1.7905805814e-01	4.9100560232e-01	1.2954987702e+05	3.4223161634e+02	3.3085446285e+02	3.2980905553e+02	3.9891944190e-01	-3.0409796520e-01	9.4821476696e-02	-2.1696219406e+06	1.7861546193e+06	-3.8346732131e+05
0.11              	9.9036811737e-01	9.6318826348e-03	7.5980815356e-01	5.9808397391e-02	5.0910310467e-01	1.8038344905e-01	4.9089689533e-01	1.2964268118e+05	3.4195337204e+02	3.3074684047e+02	3.2973813507e+02	4.0181628939e-01	-3.0699405290e-01	9.4822236492e-02	-2.1872137514e+06	1.8037436720e+06	-3.8347007937e+05
0.1125            	9.9037154566e-01	9.6284543444e-03	7.5826923503e-01	6.0055494353e-02	5.0921027725e-01	1.8167527062e-01	4.9078972275e-01	1.2972973141e+05	3.4167914042e+02	3.3064294287e+02	3.2966920630e+02	4.0463172087e-01	-3.0980880137e-01	9.4822919499e-02	-2.2042027044e+06	1.8207302590e+06	-3.8347244538e+05
0.115             	9.9037488213e-01	9.6251178727e-03	7.5677908115e-01	6.0286337901e-02	5.0931590226e-01	1.8293458095e-01	4.9068409774e-01	1.2981139895e+05	3.4140896859e+02	3.3054259680e+02	3.2960219817e+02	4.0736881985e-01	-3.1254528871e-01	9.4823531140e-02	-2.2206168534e+06	1.8371424064e+06	-3.8347444704e+05
0.1175            	9.9037813005e-01	9.6218699515e-03	7.5533556809e-01	6.0502031930e-02	5.0941997090e-01	1.8416239998e-01	4.9058002910e-01	1.2988802901e+05	3.4114289077e+02	3.3044563908e+02	3.2953704248e+02	4.1003051902e-01	-3.1520644246e-01	9.4824076561e-02	-2.2364825963e+06	1.8530064854e+06	-3.8347611092e+05
0.12              	9.9038129254e-01	9.6187074623e-03	7.5393669233e-01	6.0703597210e-02	5.0952247825e-01	1.8535971046e-01	4.9047752175e-01	1.2995994280e+05	3.4088092974e+02	3.3035191586e+02	3.2947367379e+02	4.1261960907e-01	-3.1779504846e-01	9.4824560617e-02	-2.2518247933e+06	1.8683473310e+06	-3.8347746232e+05
0.1225            	9.9038437257e-01	9.6156274279e-03	7.5258056236e-01	6.0891978558e-02	5.0962342273e-01	1.8652745908e-01	4.9037657727e-01	1.3002743946e+05	3.4062309818e+02	3.3026128202e+02	3.2941202934e+02	4.1513874692e-01	-3.2031375904e-01	9.4824987873e-02	-2.2666668749e+06	1.8831883497e+06	-3.8347852517e+05
0.125             	9.9038737300e-01	9.6126270049e-03	7.5126539114e-01	6.1068051291e-02	5.0972280575e-01	1.8766655757e-01	4.9027719425e-01	1.3009079769e+05	3.4036939980e+02	3.3017360058e+02	3.2935204893e+02	4.1759046334e-01	-3.2276510073e-01	9.4825362609e-02	-2.2810309412e+06	1.8975516191e+06	-3.8347932205e+05
0.1275            	9.9039029652e-01	9.6097034767e-03	7.4998948904e-01	6.1232627040e-02	5.0982063134e-01	1.8877788392e-01	4.9017936866e-01	1.3015027732e+05	3.4011983040e+02	3.3008874215e+02	3.2929367484e+02	4.1997717020e-01	-3.2515148137e-01	9.4825688824e-02	-2.2949378528e+06	1.9114579787e+06	-3.8347987415e+05
0.13              	9.9039314575e-01	9.6068542466e-03	7.4875125743e-01	6.1386459007e-02	5.0991690580e-01	1.8986228357e-01	4.9008309420e-01	1.3020612075e+05	3.3987437876e+02	3.3000658444e+02	3.2923685173e+02	4.2230116716e-01	-3.2747519691e-01	9.4825970251e-02	-2.3084073142e+06	1.9249271129e+06	-3.8348020133e+05
0.1325            	9.9039592317e-01	9.6040768315e-03	7.4754918266e-01	6.1530246717e-02	5.1001163744e-01	1.9092057062e-01	4.8998836256e-01	1.3025855420e+05	3.3963302749e+02	3.2992701178e+02	3.2918152655e+02	4.2456464796e-01	-3.2973843759e-01	9.4826210367e-02	-2.3214579505e+06	1.9379776283e+06	-3.8348032215e+05
0.135             	9.9039863114e-01	9.6013688563e-03	7.4638183064e-01	6.1664640325e-02	5.1010483633e-01	1.9195352904e-01	4.8989516367e-01	1.3030778894e+05	3.3939575372e+02	3.2984991475e+02	3.2912764842e+02	4.2676970630e-01	-3.3194329390e-01	9.4826412406e-02	-2.3341073785e+06	1.9506271246e+06	-3.8348025389e+05
0.1375            	9.9040127195e-01	9.5987280477e-03	7.4524784165e-01	6.1790244530e-02	5.1019651406e-01	1.9296191382e-01	4.8980348594e-01	1.3035402234e+05	3.3916252983e+02	3.2977518970e+02	3.2907516855e+02	4.2891834140e-01	-3.3409176202e-01	9.4826579374e-02	-2.3463722719e+06	1.9628922592e+06	-3.8348001268e+05
0.14              	9.9040384777e-01	9.5961522293e-03	7.4414592571e-01	6.1907622133e-02	5.1028668358e-01	1.9394645215e-01	4.8971331642e-01	1.3039743887e+05	3.3893332396e+02	3.2970273847e+02	3.2902404017e+02	4.3101246309e-01	-3.3618574903e-01	9.4826714060e-02	-2.3582684217e+06	1.9747888082e+06	-3.8347961348e+05
0.1425            	9.9040636068e-01	9.5936393165e-03	7.4307485817e-01	6.2017297273e-02	5.1037535896e-01	1.9490784456e-01	4.8962464104e-01	1.3043821106e+05	3.3870810056e+02	3.2963246800e+02	3.2897421842e+02	4.3305389675e-01	-3.3822707769e-01	9.4826819053e-02	-2.3698107923e+06	1.9863317221e+06	-3.8347907019e+05
0.145             	9.9040881269e-01	9.5911873119e-03	7.4203347565e-01	6.2119758387e-02	5.1046255531e-01	1.9584676596e-01	4.8953744469e-01	1.3047650027e+05	3.3848682089e+02	3.2956429005e+02	3.2892566026e+02	4.3504438777e-01	-3.4021749102e-01	9.4826896752e-02	-2.3810135727e+06	1.9975351770e+06	-3.8347839570e+05
0.1475            	9.9041120570e-01	9.5887943008e-03	7.4102067234e-01	6.2215460904e-02	5.1054828859e-01	1.9676386675e-01	4.8945171141e-01	1.3051245756e+05	3.3826944340e+02	3.2949812086e+02	3.2887832442e+02	4.3698560590e-01	-3.4215865652e-01	9.4826949382e-02	-2.3918902251e+06	2.0084126232e+06	-3.8347760197e+05
0.15              	9.9041354155e-01	9.5864584469e-03	7.4003539647e-01	6.2304829715e-02	5.1063257547e-01	1.9765977382e-01	4.8936742453e-01	1.3054622431e+05	3.3805592416e+02	3.2943388094e+02	3.2883217128e+02	4.3887914919e-01	-3.4405217019e-01	9.4826979000e-02	-2.4024535291e+06	2.0189768291e+06	-3.8347670006e+05
0.1525            	9.9041582201e-01	9.5841779886e-03	7.3907664705e-01	6.2388261431e-02	5.1071543328e-01	1.9853509152e-01	4.8928456672e-01	1.3057793297e+05	3.3784621713e+02	3.2937149475e+02	3.2878716282e+02	4.4072654779e-01	-3.4589956028e-01	9.4826987517e-02	-2.4127156231e+06	2.0292399228e+06	-3.8347570022e+05
0.155             	9.9041804876e-01	9.5819512353e-03	7.3814347092e-01	6.2466126455e-02	5.1079687986e-01	1.9939040262e-01	4.8920312014e-01	1.3060770762e+05	3.3764027453e+02	3.2931089054e+02	3.2874326257e+02	4.4252926747e-01	-3.4770229078e-01	9.4826976696e-02	-2.4226880425e+06	2.0392134306e+06	-3.8347461192e+05
0.1575            	9.9042022344e-01	9.5797765636e-03	7.3723495989e-01	6.2538770882e-02	5.1087693350e-01	2.0022626923e-01	4.8912306650e-01	1.3063566455e+05	3.3743804709e+02	3.2925200006e+02	3.2870043547e+02	4.4428871296e-01	-3.4946176478e-01	9.4826948175e-02	-2.4323817562e+06	2.0489083123e+06	-3.8347344392e+05
0.16              	9.9042234759e-01	9.5776524142e-03	7.3635024814e-01	6.2606518247e-02	5.1095561283e-01	2.0104323361e-01	4.8904438717e-01	1.3066191277e+05	3.3723948429e+02	3.2919475838e+02	3.2865864790e+02	4.4600623105e-01	-3.5117932758e-01	9.4826903464e-02	-2.4418071993e+06	2.0583349949e+06	-3.8347220432e+05
0.1625            	9.9042442271e-01	9.5755772889e-03	7.3548850979e-01	6.2669671127e-02	5.1103293679e-01	2.0184181908e-01	4.8896706321e-01	1.3068655454e+05	3.3704453460e+02	3.2913910374e+02	3.2861786752e+02	4.4768311356e-01	-3.5285626960e-01	9.4826843966e-02	-2.4509743042e+06	2.0675034036e+06	-3.8347090059e+05
0.165             	9.9042645025e-01	9.5735497475e-03	7.3464895663e-01	6.2728512625e-02	5.1110892452e-01	2.0262253075e-01	4.8889107548e-01	1.3070968576e+05	3.3685314565e+02	3.2908497729e+02	3.2857806330e+02	4.4932060012e-01	-3.5449382914e-01	9.4826770975e-02	-2.4598925300e+06	2.0764229903e+06	-3.8346953964e+05
0.1675            	9.9042843160e-01	9.5715684049e-03	7.3383083597e-01	6.2783307726e-02	5.1118359535e-01	2.0338585630e-01	4.8881640465e-01	1.3073139644e+05	3.3666526443e+02	3.2903232301e+02	3.2853920538e+02	4.5091988071e-01	-3.5609319502e-01	9.4826685691e-02	-2.4685708892e+06	2.0851027614e+06	-3.8346812784e+05
0.17              	9.9043036807e-01	9.5696319287e-03	7.3303342872e-01	6.2834304560e-02	5.1125696871e-01	2.0413226672e-01	4.8874303129e-01	1.3075177104e+05	3.3648083748e+02	3.2898108747e+02	3.2850126508e+02	4.5248209821e-01	-3.5765550899e-01	9.4826589224e-02	-2.4770179733e+06	2.0935513022e+06	-3.8346667108e+05
0.1725            	9.9043226096e-01	9.5677390368e-03	7.3225604745e-01	6.2881735558e-02	5.1132906411e-01	2.0486221699e-01	4.8867093589e-01	1.3077088887e+05	3.3629981096e+02	3.2893121975e+02	3.2846421481e+02	4.5400835065e-01	-3.5918186805e-01	9.4826482599e-02	-2.4852419761e+06	2.1017768013e+06	-3.8346517478e+05
0.175             	9.9043411151e-01	9.5658884947e-03	7.3149803475e-01	6.2925818524e-02	5.1139990109e-01	2.0557614672e-01	4.8860009891e-01	1.3078882441e+05	3.3612213083e+02	3.2888267126e+02	3.2842802806e+02	4.5549969343e-01	-3.6067332666e-01	9.4826366767e-02	-2.4932507160e+06	2.1097870720e+06	-3.8346364394e+05
0.1775            	9.9043592089e-01	9.5640791134e-03	7.3075876154e-01	6.2966757627e-02	5.1146949919e-01	2.0627448084e-01	4.8853050081e-01	1.3080564761e+05	3.3594774299e+02	3.2883539565e+02	3.2839267928e+02	4.5695714134e-01	-3.6213089874e-01	9.4826242606e-02	-2.5010516567e+06	2.1175895735e+06	-3.8346208317e+05
0.18              	9.9043769025e-01	9.5623097477e-03	7.3003762557e-01	6.3004744318e-02	5.1153787791e-01	2.0695763012e-01	4.8846212209e-01	1.3082142420e+05	3.3577659331e+02	3.2878934865e+02	3.2835814392e+02	4.5838167056e-01	-3.6355555963e-01	9.4826110929e-02	-2.5086519265e+06	2.1251914298e+06	-3.8346049672e+05
0.1825            	9.9043942071e-01	9.5605792935e-03	7.2933405001e-01	6.3039958179e-02	5.1160505668e-01	2.0762599181e-01	4.8839494332e-01	1.3083621594e+05	3.3560862778e+02	3.2874448797e+02	3.2832439833e+02	4.5977422046e-01	-3.6494824797e-01	9.4825972488e-02	-2.5160583368e+06	2.1325994483e+06	-3.8345888850e+05
0.185             	9.9044111331e-01	9.5588866866e-03	7.2864748213e-01	6.3072567713e-02	5.1167105484e-01	2.0827995016e-01	4.8832894516e-01	1.3085008088e+05	3.3544379258e+02	3.2870077321e+02	3.2829141975e+02	4.6113569532e-01	-3.6630986734e-01	9.4825827980e-02	-2.5232773987e+06	2.1398201366e+06	-3.8345726212e+05
0.1875            	9.9044276910e-01	9.5572309005e-03	7.2797739198e-01	6.3102731067e-02	5.1173589163e-01	2.0891987695e-01	4.8826410837e-01	1.3086307360e+05	3.3528203414e+02	3.2865816575e+02	3.2825918624e+02	4.6246696602e-01	-3.6764128798e-01	9.4825678047e-02	-2.5303153392e+06	2.1468597183e+06	-3.8345562088e+05
0.19              	9.9044438906e-01	9.5556109447e-03	7.2732327129e-01	6.3130596718e-02	5.1179958615e-01	2.0954613199e-01	4.8820041385e-01	1.3087524541e+05	3.3512329923e+02	3.2861662864e+02	3.2822767667e+02	4.6376887155e-01	-3.6894334826e-01	9.4825523284e-02	-2.5371781162e+06	2.1537241484e+06	-3.8345396785e+05
0.1925            	9.9044597414e-01	9.5540258635e-03	7.2668463234e-01	6.3156304096e-02	5.1186215735e-01	2.1015906356e-01	4.8813784265e-01	1.3088664459e+05	3.3496753499e+02	3.2857612654e+02	3.2819687069e+02	4.6504222046e-01	-3.7021685622e-01	9.4825364243e-02	-2.5438714328e+06	2.1604191270e+06	-3.8345230581e+05
0.195             	9.9044752527e-01	9.5524747341e-03	7.2606100690e-01	6.3179984171e-02	5.1192362400e-01	2.1075900893e-01	4.8807637600e-01	1.3089731651e+05	3.3481468900e+02	3.2853662561e+02	3.2816674867e+02	4.6628779230e-01	-3.7146259087e-01	9.4825201431e-02	-2.5504007503e+06	2.1669501129e+06	-3.8345063736e+05
0.1975            	9.9044904333e-01	9.5509566653e-03	7.2545194527e-01	6.3201759998e-02	5.1198400472e-01	2.1134629473e-01	4.8801599528e-01	1.3090730391e+05	3.3466470932e+02	3.2849809345e+02	3.2813729168e+02	4.6750633890e-01	-3.7268130357e-01	9.4825035321e-02	-2.5567713005e+06	2.1733223356e+06	-3.8344896484e+05
0.2               	9.9045052920e-01	9.5494707960e-03	7.2485701539e-01	6.3221747220e-02	5.1204331792e-01	2.1192123739e-01	4.8795668208e-01	1.3091664695e+05	3.3451754452e+02	3.2846049903e+02	3.2810848146e+02	4.6869858558e-01	-3.7387371923e-01	9.4824866346e-02	-2.5629880980e+06	2.1795408076e+06	-3.8344729043e+05
0.2025            	9.9045198371e-01	9.5480162942e-03	7.2427580192e-01	6.3240054540e-02	5.1210158181e-01	2.1248414354e-01	4.8789841819e-01	1.3092538348e+05	3.3437314376e+02	3.2842381261e+02	3.2808030040e+02	4.6986523239e-01	-3.7504053748e-01	9.4824694909e-02	-2.5690559507e+06	2.1856103346e+06	-3.8344561611e+05
0.205             	9.9045340764e-01	9.5465923555e-03	7.2370790546e-01	6.3256784160e-02	5.1215881440e-01	2.1303531038e-01	4.8784118560e-01	1.3093354909e+05	3.3423145674e+02	3.2838800566e+02	3.2805273150e+02	4.7100695518e-01	-3.7618243380e-01	9.4824521381e-02	-2.5749794707e+06	2.1915355269e+06	-3.8344394372e+05
0.2075            	9.9045480180e-01	9.5451982020e-03	7.2315294180e-01	6.3272032190e-02	5.1221503346e-01	2.1357502601e-01	4.8778496654e-01	1.3094117729e+05	3.3409243379e+02	3.2835305084e+02	3.2802575835e+02	4.7212440669e-01	-3.7730006058e-01	9.4824346105e-02	-2.5807630833e+06	2.1973208084e+06	-3.8344227490e+05
0.21              	9.9045616692e-01	9.5438330814e-03	7.2261054115e-01	6.3285889025e-02	5.1227025656e-01	2.1410356983e-01	4.8772974344e-01	1.3094829963e+05	3.3395602590e+02	3.2831892190e+02	3.2799936510e+02	4.7321821749e-01	-3.7839404809e-01	9.4824169398e-02	-2.5864110372e+06	2.2029704260e+06	-3.8344061120e+05
0.2125            	9.9045750373e-01	9.5424962655e-03	7.2208034748e-01	6.3298439705e-02	5.1232450104e-01	2.1462121281e-01	4.8767549896e-01	1.3095494584e+05	3.3382218467e+02	3.2828559366e+02	3.2797353645e+02	4.7428899702e-01	-3.7946500546e-01	9.4823991554e-02	-2.5919274124e+06	2.2084884584e+06	-3.8343895398e+05
0.215             	9.9045881295e-01	9.5411870498e-03	7.2156201789e-01	6.3309764247e-02	5.1237778398e-01	2.1512821786e-01	4.8762221602e-01	1.3096114388e+05	3.3369086239e+02	3.2825304191e+02	3.2794825759e+02	4.7533733440e-01	-3.8051352156e-01	9.4823812840e-02	-2.5973161290e+06	2.2138788244e+06	-3.8343730453e+05
0.2175            	9.9046009525e-01	9.5399047518e-03	7.2105522198e-01	6.3319937949e-02	5.1243012225e-01	2.1562484007e-01	4.8756987775e-01	1.3096692012e+05	3.3356201204e+02	3.2822124344e+02	3.2792351425e+02	4.7636379937e-01	-3.8154016586e-01	9.4823633507e-02	-2.6025809545e+06	2.2191452905e+06	-3.8343566400e+05
0.22              	9.9046135129e-01	9.5386487109e-03	7.2055964128e-01	6.3329031685e-02	5.1248153247e-01	2.1611132704e-01	4.8751846753e-01	1.3097229937e+05	3.3343558729e+02	3.2819017591e+02	3.2789929259e+02	4.7736894302e-01	-3.8254548924e-01	9.4823453784e-02	-2.6077255113e+06	2.2242914778e+06	-3.8343403343e+05
0.2225            	9.9046258171e-01	9.5374182869e-03	7.2007496872e-01	6.3337112171e-02	5.1253203101e-01	2.1658791911e-01	4.8746796899e-01	1.3097730504e+05	3.3331154250e+02	3.2815981785e+02	3.2787557926e+02	4.7835329865e-01	-3.8353002477e-01	9.4823273882e-02	-2.6127532837e+06	2.2293208699e+06	-3.8343241378e+05
0.225             	9.9046378714e-01	9.5362128596e-03	7.1960090808e-01	6.3344242221e-02	5.1258163401e-01	2.1705484969e-01	4.8741836599e-01	1.3098195915e+05	3.3318983274e+02	3.2813014863e+02	3.2785236133e+02	4.7931738241e-01	-3.8449428842e-01	9.4823093995e-02	-2.6176676243e+06	2.2342368184e+06	-3.8343080590e+05
0.2275            	9.9046496817e-01	9.5350318277e-03	7.1913717357e-01	6.3350480982e-02	5.1263035735e-01	2.1751234545e-01	4.8736964265e-01	1.3098628247e+05	3.3307041382e+02	3.2810114839e+02	3.2782962628e+02	4.8026169409e-01	-3.8543877979e-01	9.4822914303e-02	-2.6224717602e+06	2.2390425496e+06	-3.8342921058e+05
0.23              	9.9046612539e-01	9.5338746083e-03	7.1868348930e-01	6.3355884152e-02	5.1267821667e-01	2.1796062655e-01	4.8732178333e-01	1.3099029456e+05	3.3295324222e+02	3.2807279800e+02	3.2780736202e+02	4.8118671772e-01	-3.8636398275e-01	9.4822734970e-02	-2.6271687988e+06	2.2437411703e+06	-3.8342762851e+05
0.2325            	9.9046725936e-01	9.5327406361e-03	7.1823958886e-01	6.3360504192e-02	5.1272522738e-01	2.1839990695e-01	4.8727477262e-01	1.3099401386e+05	3.3283827518e+02	3.2804507908e+02	3.2778555683e+02	4.8209292223e-01	-3.8727036608e-01	9.4822556147e-02	-2.6317617335e+06	2.2483356732e+06	-3.8342606032e+05