/*--------------------------------*- C++ -*----------------------------------*\
  =========                 |
  \\      /  F ield         | OpenFOAM: The Open Source CFD Toolbox
   \\    /   O peration     | Website:  https://openfoam.org
    \\  /    A nd           | Version:  12
     \\/     M anipulation  |
\*---------------------------------------------------------------------------*/
FoamFile
{
    format      ascii;
    class       volScalarField;
    location    "0.00515";
    object      alphat;
}
// * * * * * * * * * * * * * * * * * * * * * * * * * * * * * * * * * * * * * //

dimensions      [1 -1 -1 0 0 0 0];

internalField   nonuniform List<scalar> 
75962
(
5.8482236665949426582e-07
7.3437894834140942527e-07
8.7451968422600987416e-07
9.4186142348831615333e-07
9.6969252309550284889e-07
1.0137651738927379099e-06
1.1302875145146068468e-06
1.2980300445620864426e-06
1.3970851962791098656e-06
1.457725594602765079e-06
1.5385219408960366998e-06
1.6636423394139810012e-06
1.7929986186337954643e-06
1.8974076068485439407e-06
1.9817589574503469907e-06
2.0663652832722827465e-06
2.1773454480510129863e-06
2.3122998277641492717e-06
2.4296390668298195867e-06
2.4972708497849626145e-06
2.5330853499408994936e-06
2.5888233027348935443e-06
2.6880102507624258441e-06
2.8040760910678779988e-06
2.9018811086217634608e-06
2.9636841782546474205e-06
3.0021393115363992872e-06
3.055459389527800813e-06
3.1630665095414804254e-06
3.3272523904778546757e-06
3.5073377641108101742e-06
3.6554372016038814782e-06
3.7559735894372891547e-06
3.8267264943308899295e-06
3.8890070688143859345e-06
3.9449068164072308585e-06
3.9835521800291557535e-06
4.0042510286355776863e-06
4.0236381816686412594e-06
4.0621652428694765243e-06
4.1661833780309748027e-06
4.335701826185120221e-06
4.464802359540762554e-06
4.5332368612649686897e-06
4.5715877858994232466e-06
4.6402222631484789787e-06
4.8395884968103149067e-06
5.248418235807513552e-06
5.5303486270249668409e-06
5.6469119195232425582e-06
5.6630581063591016363e-06
5.6515968594849093801e-06
5.6279179641429193253e-06
5.6157487107637943404e-06
5.6151576380133449024e-06
5.6203645446199109446e-06
5.6518502748098480723e-06
5.7767848929546520247e-06
5.9301087043167932913e-06
6.0048081305303291686e-06
6.0161448398329819492e-06
6.0067536622126938575e-06
6.003225595285767911e-06
6.0374618868584960804e-06
6.1784412658985749859e-06
6.3432100714106232558e-06
6.4706141543755606749e-06
6.5753360287630896526e-06
6.6558911568054052846e-06
6.7047791835923336697e-06
6.7267871452103546748e-06
6.7449655334048207839e-06
6.787448025146205989e-06
6.9271545270564609308e-06
7.3146157656598214457e-06
7.6468421813191516501e-06
7.8023428613206631418e-06
7.8376274238294301074e-06
7.8289046571307979516e-06
7.8061416350052084521e-06
7.7996741615091301372e-06
7.844582672625746505e-06
8.0594456287644838667e-06
8.3125434153116870283e-06
8.4444640676078693719e-06
8.4809069454136473492e-06
8.4761823353240293055e-06
8.4676637600165909233e-06
8.4732278468220302684e-06
8.5251124225286386372e-06
8.5823824665864440137e-06
8.5860289863568773711e-06
8.5567825709769610788e-06
8.4738053330591083401e-06
8.4308806186539549945e-06
8.4225325488620950452e-06
8.46172695476063555e-06
8.5879842094824110767e-06
8.672110642093851048e-06
8.7082000792352149939e-06
8.7179834136579591815e-06
8.7180266807083291983e-06
8.7152509364156171683e-06
8.7107179323619140159e-06
8.6998432990173063225e-06
8.678641971893856193e-06
8.6595762069091530112e-06
8.646232332642333335e-06
8.6371912808081234266e-06
8.6302912350501890875e-06
8.62957216379513128e-06
8.6556200430825676562e-06
8.7193129256284153102e-06
8.768061997707843474e-06
8.8050043201640855066e-06
8.8428134155194763297e-06
8.8908763177470299444e-06
8.9498412959288654704e-06
9.0116407299785840238e-06
9.0650543356321668228e-06
9.1015141754396790079e-06
9.1201383130198922515e-06
9.1271018564362264071e-06
9.1335863184998635975e-06
9.15180299134309719e-06
9.2070271276587467796e-06
9.290429226615292305e-06
9.3716206690104605356e-06
9.4387960143952665432e-06
9.4871886594672979451e-06
9.521853554206499137e-06
9.5527501345400258514e-06
9.5888789116918108241e-06
9.6333520360819098135e-06
9.6828575403921099754e-06
9.7309161184803520661e-06
9.7704950913461509929e-06
9.7985569725724975675e-06
9.8165301128090747728e-06
9.8295402448580472906e-06
9.8453061935361374589e-06
9.8715165214826431392e-06
9.9126615743131469454e-06
9.9688830622634544946e-06
1.0035572122201234262e-05
1.0105362481800909895e-05
1.0170340864315910106e-05
1.0224421104278531749e-05
1.0264920158145491707e-05
1.0292246267774806152e-05
1.0309838176378241238e-05
1.0322286766409377695e-05
1.0335350966072209112e-05
1.0354231510979640255e-05
1.0382469956331398232e-05
1.0420450440341566263e-05
1.0465999048010781223e-05
1.0514969884304187887e-05
1.0562447398710376112e-05
1.0605201359569212146e-05
1.0641087246930681863e-05
1.0669861796459309563e-05
1.0692769307759894513e-05
1.0711327668614658179e-05
1.0728369652209921958e-05
1.0746694097142951244e-05
1.0768905757313923069e-05
1.079725682191103297e-05
1.0832701839361308743e-05
1.0874352089085420489e-05
1.0920134724106245913e-05
1.0967693747827507477e-05
1.1015249692245592393e-05
1.1061022716098482281e-05
1.1103318329961694904e-05
1.1141264670887928876e-05
1.1173746295644112827e-05
1.1199677669172021266e-05
1.1218795374093830505e-05
1.1230792894292724381e-05
1.123579503003113612e-05
1.1234589771358463741e-05
1.1228837749319017591e-05
1.1220694149204756498e-05
1.1212082942277205866e-05
1.1204224621312216845e-05
1.1197364269560455041e-05
1.1190689045424109639e-05
1.0633011801160466601e-05
1.061921723468932934e-05
1.0605665987329067557e-05
1.0592489807572713485e-05
1.0579673448309017035e-05
1.0567203152877741935e-05
1.0555051037648765521e-05
1.0543175343519967416e-05
1.0531455314308713216e-05
1.051964288077841624e-05
1.0507265060506153074e-05
1.0493811316822344669e-05
1.0479118894219868895e-05
1.0463699153240704819e-05
1.0448470370712432511e-05
1.0434216266017318765e-05
1.0421127942976475658e-05
1.0408906140666496581e-05
1.0397012090405554466e-05
1.0385065646857261716e-05
1.0372960538460278805e-05
1.0360973168596172768e-05
1.03494414957766528e-05
1.0338601879427707737e-05
1.032820842299982659e-05
1.0317843673876780797e-05
1.0306959982186512898e-05
1.0295406142297578955e-05
1.0283115433314338411e-05
1.0270364755865314573e-05
1.0257274722482037584e-05
1.0244221604547260488e-05
1.0231258815156845919e-05
1.0218613471338410136e-05
1.0206042490213897803e-05
1.0193597009285234705e-05
1.0181031878316981998e-05
1.0168573117389544664e-05
1.015614033664590989e-05
1.0144073662446740806e-05
1.0132288852012360928e-05
1.0121053575522521295e-05
1.0110142292819687844e-05
1.0099691718603460018e-05
1.008932707180715099e-05
1.007923737710696369e-05
1.0069040925147053158e-05
1.0058933638939452498e-05
1.0048411614055293673e-05
1.0037575449224330352e-05
1.002579196955639539e-05
1.0013176461699109827e-05
9.9993858456293816206e-06
9.9851233027653352956e-06
9.9705846049694642951e-06
9.9566656998203184625e-06
9.9432309249514965572e-06
9.9306204063161524647e-06
9.9182088944296460697e-06
9.9060136751778856583e-06
9.8933442048114851423e-06
9.8805294590821104441e-06
9.8673536434402125955e-06
9.8545228173275750856e-06
9.8417909045698087872e-06
9.8296275183360729851e-06
9.8174446652480103377e-06
9.8055612402851966117e-06
9.7933407071496481386e-06
9.7811672561439882571e-06
9.7685109669261415007e-06
9.7559752227367606584e-06
9.7432851771706096655e-06
9.7312957453258091357e-06
9.7196725875339289806e-06
9.7089569724735506114e-06
9.6982631227799384279e-06
9.6877372833327478373e-06
9.6764125441646894497e-06
9.6646810168091931692e-06
9.6519840444694970358e-06
9.6391084334306528916e-06
9.6257282556648553424e-06
9.612651926727213981e-06
9.5993403041436942949e-06
9.586298583028946994e-06
9.5727888284125573322e-06
9.5593640355420887939e-06
9.5456401937469976507e-06
9.5324796181923359512e-06
9.5195925492119490914e-06
9.5074972056575787294e-06
9.4954867950517592542e-06
9.483725630659970324e-06
9.471556050178610135e-06
9.4593885964586329161e-06
9.4469054034112162182e-06
9.4347510353485695267e-06
9.4226219547699453447e-06
9.4109792327615734915e-06
9.399133571153565645e-06
9.3871689262825589979e-06
9.3742021466245317068e-06
9.3605488370866620737e-06
9.3458181415634666503e-06
9.3309838312183045374e-06
9.31599631614201102e-06
9.301885256449257512e-06
9.288233022040543233e-06
9.2755863383812630442e-06
9.2630791880996345594e-06
9.2510532869452112521e-06
9.23868992896412683e-06
9.2264826441842277859e-06
9.2138177313278752663e-06
9.2013334752274807425e-06
9.1885777137688970601e-06
9.1762432008384977396e-06
9.1638674304207969241e-06
9.1520005012664950065e-06
9.1400943435075907142e-06
9.1286328847359729554e-06
9.1170905318137902742e-06
9.1059424836390384796e-06
9.0947260503204560523e-06
9.0838867091829255876e-06
9.0729694087410422162e-06
9.0622168238884426576e-06
9.0510386996979976269e-06
9.0396407160718179343e-06
9.0276298141539038946e-06
9.0154255685225969942e-06
9.0028921653320471622e-06
8.9904449072412314774e-06
8.9780479933719780993e-06
8.9660053754961113455e-06
8.9542061425244618458e-06
8.9427558120049335067e-06
8.9314130271477713342e-06
8.9203305105697938644e-06
8.9092469676027139007e-06
8.8984230038769703908e-06
8.8874631326637126984e-06
8.8766237096076116604e-06
8.8654145518258018729e-06
8.8541931681535955155e-06
8.8425515229958599793e-06
8.8310239138557900516e-06
8.8193267500683981654e-06
8.808073546139745153e-06
8.7969333168060506842e-06
8.7863731418912007794e-06
8.7760112273176056819e-06
8.7660651378233209749e-06
8.7562029961121653528e-06
8.7463575238806017008e-06
8.7363402990662687568e-06
8.7260817712573059791e-06
8.7155258988636859923e-06
8.7047906505989351282e-06
8.6936405235835165597e-06
8.6824423039963401992e-06
8.6707660547700130405e-06
8.6592863500471366152e-06
8.6476395782396673446e-06
8.636478002657754812e-06
8.6256224734712829306e-06
8.6152798749429568504e-06
8.6053293726802951882e-06
8.5955866032527683123e-06
8.585825771385818868e-06
8.5759513553607940738e-06
8.5657304869874310361e-06
8.5553435354284827492e-06
8.5447560039877036038e-06
8.5341001135759748269e-06
8.5236234557195333868e-06
8.5131898270908507633e-06
8.5031646983599862673e-06
8.4932287295158928088e-06
8.4836214837490800194e-06
8.4740229464928458096e-06
8.4646965269401548281e-06
8.4550806304739869188e-06
8.44582058023518145e-06
8.4361604550769546645e-06
8.4268197687749335761e-06
8.417165416700842233e-06
8.407631335994263829e-06
8.3976247617056684462e-06
8.3876679566463619304e-06
8.3770706335592749997e-06
8.3668628841170124456e-06
8.3562042469092916478e-06
8.3464153376181691801e-06
8.3364599108657517232e-06
8.3276310674188161199e-06
8.3185465092266729e-06
8.3104526814320698886e-06
8.3017506085094490805e-06
8.293695205009147289e-06
8.284688582375701401e-06
8.276137763441815062e-06
8.2664934850481304739e-06
8.257179892712900851e-06
8.2467986873274379202e-06
8.2368707124924161718e-06
8.2260332988237395155e-06
8.2160059134976771126e-06
8.205307399653819094e-06
8.1954697094344269474e-06
8.1850013053472152758e-06
8.1754391939865806533e-06
8.1652252278742120214e-06
8.1561969218457760486e-06
8.1465479421281733496e-06
8.1382118069662673533e-06
8.1291765187988873561e-06
8.1213928201424070681e-06
8.1126091987747181032e-06
8.1049429965454170178e-06
8.0959261594439532457e-06
8.087861702645696057e-06
8.0784138917769537957e-06
8.06996933319759866e-06
8.0603935113190508543e-06
8.0518945647868327451e-06
8.0423773934458738167e-06
8.0339535511602334694e-06
8.0244407878422154776e-06
8.0160644676131554635e-06
8.0065397781359602246e-06
7.9981207567477480172e-06
7.9885285884897991169e-06
7.9800581092544178066e-06
7.9705480951598645957e-06
7.9623630957807516143e-06
7.9530719166056322762e-06
7.9451421829558651201e-06
7.9358734329959064902e-06
7.9277320699552969913e-06
7.9180552643135478568e-06
7.9095108435689925669e-06
7.8993153115367157241e-06
7.8903296614092875851e-06
7.8798966944207303806e-06
7.8708604873604826356e-06
7.8606193400362225454e-06
7.8520459514368596648e-06
7.8424567816030719058e-06
7.8345401404956765203e-06
7.8255191872443089846e-06
7.8181182987254268e-06
7.8095334192794799361e-06
5.3977305419371800609e-07
6.9725182721899892261e-07
8.5659177600237138095e-07
9.8352134917146004047e-07
1.0757759692571597363e-06
1.1627071081502457031e-06
1.2478149817209505752e-06
1.3209891602895156453e-06
1.410718757171628211e-06
1.5408970212678871205e-06
1.6826325292229470543e-06
1.7981999587152226049e-06
1.8898708914037842827e-06
1.9896398715928217129e-06
2.1084518357726660979e-06
2.2291365140027431907e-06
2.344352339469930451e-06
2.4564537868300926844e-06
2.5463698632207930439e-06
2.598554941529250235e-06
2.6367865091066431199e-06
2.7066320986176973188e-06
2.8260732168063658032e-06
2.9639791674424834916e-06
3.0767256800884578696e-06
3.1438619699069716304e-06
3.1765604498882082758e-06
3.2063964988395910421e-06
3.2677755013443678503e-06
3.413454150839944475e-06
3.6134773514320531967e-06
3.7960191387499870293e-06
3.932055899302035239e-06
4.0205934837440357135e-06
4.0766910361893749255e-06
4.1135058672753940047e-06
4.1373429008124227045e-06
4.1573034979317636346e-06
4.1908029285373181021e-06
4.2652309053393790283e-06
4.4224852921906789938e-06
4.591998252565194007e-06
4.7244569586814763053e-06
4.796495033316444552e-06
4.8310142907886096471e-06
4.8842076984669535337e-06
5.0317909152002157367e-06
5.4030494363429500384e-06
5.7130286535127300558e-06
5.8586475442238138443e-06
5.8915714331013369881e-06
5.8856148941216187418e-06
5.8730264081750194614e-06
5.8666366258459361007e-06
5.867351667274033838e-06
5.8742538094660166383e-06
5.9071060314218276109e-06
6.0263825700033437689e-06
6.1691752227313192028e-06
6.2476229199937381375e-06
6.2677038342333578675e-06
6.2628430371561942931e-06
6.2592060429499455826e-06
6.2789991232700796697e-06
6.3865495348994906247e-06
6.5900395807267919747e-06
6.7673150454193031563e-06
6.9176334973316704857e-06
7.0313803276310374575e-06
7.099621905782515206e-06
7.1291857272500245047e-06
7.1472041570785433407e-06
7.1848859523546682501e-06
7.3029373312376901425e-06
7.6249204930804979376e-06
7.9051845905562307981e-06
8.0423659024836190141e-06
8.0760662510418181558e-06
8.0710477568532250879e-06
8.0618812330303558114e-06
8.0711316979348361701e-06
8.182257188138083011e-06
8.5232007181552766429e-06
8.8004138847931121214e-06
8.9323246755180180865e-06
8.9632365675265802507e-06
8.9562116164650504215e-06
8.9465707157195601995e-06
8.9564162053605020304e-06
9.0304677094331775708e-06
9.1056302315312791625e-06
9.1129293069856971438e-06
9.0825604557590273807e-06
8.9892075027803203691e-06
8.9375617234003559966e-06
8.9277795006519037224e-06
8.9711292331985928238e-06
9.1139450256486157506e-06
9.2071958333835993485e-06
9.2430116617511082758e-06
9.249747688872094869e-06
9.2467267504298850686e-06
9.2414392895937555391e-06
9.2299163443345393938e-06
9.1991168554811100441e-06
9.1637943510624193235e-06
9.1418518479650398925e-06
9.1304396536415948702e-06
9.1245383530671808826e-06
9.1315689248945450208e-06
9.163958100881421532e-06
9.1838092389024677674e-06
9.1938642905545677478e-06
9.2106850734586684734e-06
9.2476773561607372194e-06
9.3063215360682280099e-06
9.3782789379805666275e-06
9.4487956113817911266e-06
9.5048983131898518069e-06
9.5402770715427654747e-06
9.5575616721613484121e-06
9.5663976939926120781e-06
9.5800747616871362159e-06
9.6118007405736079191e-06
9.6648101598165400716e-06
9.7319671102379456078e-06
9.8031956228374165916e-06
9.8679435016950398058e-06
9.9206098575259600363e-06
9.9621458791643802621e-06
9.9990280929767739863e-06
1.0039315175416059462e-05
1.0087812045960952706e-05
1.0143688152298685181e-05
1.0201980430666068866e-05
1.0255281261179786541e-05
1.0297121098027542269e-05
1.0324891275370979079e-05
1.0340317883867399524e-05
1.0349186557618217367e-05
1.0360200619240696432e-05
1.0381501134759336797e-05
1.0418942709476983015e-05
1.0474121359595639806e-05
1.0544015658717260743e-05
1.0622071542028685423e-05
1.069920472211401229e-05
1.0766806669911220608e-05
1.0818498311174120502e-05
1.0851376734831876642e-05
1.0867547551822768779e-05
1.0872284449858007836e-05
1.0873612110791751819e-05
1.0880098112594836673e-05
1.0902304239199956125e-05
1.0942011755752810683e-05
1.09907293519323833e-05
1.1042912036747506375e-05
1.1093119148900537624e-05
1.1138414854188232576e-05
1.1177215304035984433e-05
1.1209638331764591683e-05
1.1236879551844655305e-05
1.1260129345243475411e-05
1.1281752110633559735e-05
1.13040660195019047e-05
1.1329859133629256992e-05
1.1361777953826287594e-05
1.1401035650958684726e-05
1.1446589952080863476e-05
1.1495989756275235127e-05
1.1546921566319511864e-05
1.15976211629112762e-05
1.1646528237416400598e-05
1.1692047188443886453e-05
1.1733399781969008359e-05
1.1769151429551944247e-05
1.1797809015829467311e-05
1.181894620162694565e-05
1.1832001903400257993e-05
1.1837194218651015892e-05
1.1835556735603108733e-05
1.1829084598928824346e-05
1.1820392021863369785e-05
1.181144070270790583e-05
1.180348546528275214e-05
1.1796508673856715446e-05
1.1789331440831181204e-05
1.1779944610341859434e-05
1.1207984074765890288e-05
1.1193668391558879411e-05
1.1179250301253242396e-05
1.1165023975188204027e-05
1.1151183903512231114e-05
1.1137713899325553534e-05
1.1124503470898627474e-05
1.1111560883718773663e-05
1.1098959329893492824e-05
1.108662945253916906e-05
1.1074210029210124792e-05
1.1061133716522110874e-05
1.1046929013773240452e-05
1.1031565368938280546e-05
1.1015591201306087839e-05
1.0999877782360006369e-05
1.0985122316399629434e-05
1.0971467945683331956e-05
1.0958563303770317137e-05
1.0945825739241597267e-05
1.0932867089697254984e-05
1.0919634160059041436e-05
1.0906585403839150027e-05
1.0894206181408290314e-05
1.0882787224873452373e-05
1.0871945418903438825e-05
1.086110195634033273e-05
1.0849572880375300121e-05
1.0837164878043511286e-05
1.08238606744018715e-05
1.0810102314258814075e-05
1.0796273031493979004e-05
1.0782911606473306434e-05
1.077010924212417321e-05
1.0757866465281135061e-05
1.0745751175229109828e-05
1.0733534790492237117e-05
1.0720876590189091764e-05
1.07079030253208246e-05
1.0694655098467777999e-05
1.0681526834551735943e-05
1.0668654321751461185e-05
1.065630810486147116e-05
1.0644378219012566554e-05
1.0632951051237636878e-05
1.0621807479869207653e-05
1.0611056118169702407e-05
1.0600446645536679106e-05
1.0589954873871244885e-05
1.057906041085128021e-05
1.056758198722378127e-05
1.0554998093746581955e-05
1.0541372461027551799e-05
1.0526648765664771692e-05
1.0511456761863344501e-05
1.0496135235119605491e-05
1.0481365095730171458e-05
1.0467156569215684897e-05
1.0453693480249056939e-05
1.0440478067376750498e-05
1.0427340180882763076e-05
1.0413800326957519768e-05
1.0400064595679225728e-05
1.0386194658992172545e-05
1.0372686886428005631e-05
1.035947890916371974e-05
1.034675776872093419e-05
1.0334197506775977198e-05
1.0321835696149640974e-05
1.0309272669827088267e-05
1.02965023419480928e-05
1.0283284949405918315e-05
1.0269926245025624378e-05
1.0256578349300082918e-05
1.0243740683305304712e-05
1.0231449744415816117e-05
1.0219789058031438349e-05
1.0208310785392890095e-05
1.0196741979405706815e-05
1.0184590628547916986e-05
1.0171824275796035456e-05
1.0158385032414564956e-05
1.0144582612369188056e-05
1.0130558753269048818e-05
1.0116538508568667396e-05
1.0102457529102013088e-05
1.0088322759483125265e-05
1.0073963480161106623e-05
1.0059524978083931405e-05
1.0045144395617820721e-05
1.0031240616467799928e-05
1.001792000698600838e-05
1.0005182739369983678e-05
9.9926424576271084745e-06
9.980030172758191817e-06
9.9671629559275616681e-06
9.9541689872991904282e-06
9.9412166431977374279e-06
9.9285098429720861584e-06
9.9160613624814730543e-06
9.9038106594354382136e-06
9.8914206984139502735e-06
9.8785325103289307744e-06
9.8647144826677478238e-06
9.849892407131944448e-06
9.8342703427871758866e-06
9.8184362135301425217e-06
9.80294816311182031e-06
9.7883128528584386512e-06
9.7745862108478758862e-06
9.7617013333741273911e-06
9.749190320642832163e-06
9.7367872687849086667e-06
9.7241554298812530775e-06
9.7112684708491901954e-06
9.6980831084752113999e-06
9.6847364225670300961e-06
9.6713345812765427322e-06
9.6580716065767045341e-06
9.6450480827151199696e-06
9.6322856961496739777e-06
9.6197483656602659829e-06
9.6073620306458975908e-06
9.595124282295591241e-06
9.5830479080320450771e-06
9.5712144781463623686e-06
9.5596482179218791268e-06
9.5483576527808339778e-06
9.5371194841208687217e-06
9.5257238426254592947e-06
9.5138800501873924131e-06
9.5015811715027591566e-06
9.488840365338899039e-06
9.4759637321849451275e-06
9.4630127958374155289e-06
9.4503235494503383521e-06
9.4377770864802970895e-06
9.4255522074126346123e-06
9.4133726471500772296e-06
9.4013307365019303308e-06
9.3892426095293791949e-06
9.3772690777056821464e-06
9.3653231469927097349e-06
9.3534927403119129218e-06
9.3417195531205911822e-06
9.3299701673958671173e-06
9.3181877911095953326e-06
9.3063312571922903897e-06
9.2943896558618921947e-06
9.2824800529968100961e-06
9.2707125049698794729e-06
9.2592779980734246637e-06
9.2481103804118151184e-06
9.2373292510037701114e-06
9.2266164660919065772e-06
9.2161544891527508855e-06
9.2054867139445185778e-06
9.1948602372499046981e-06
9.1838336222554975874e-06
9.1727165662453418501e-06
9.1612558260100198889e-06
9.1496215469011613687e-06
9.1377655651064486597e-06
9.125690815780742419e-06
9.1135991368677044856e-06
9.1016027775590540683e-06
9.0898812931949732232e-06
9.0787031618383448557e-06
9.0678190232544596033e-06
9.0575499874241401592e-06
9.047267874644078671e-06
9.0372403650698584582e-06
9.0268674532919751323e-06
9.0163559207401119337e-06
9.0053549829743112558e-06
8.994278419051006813e-06
8.9828313271086942572e-06
8.9717003770816183996e-06
8.9603589462091499593e-06
8.9496594361582061363e-06
8.9388305783067017736e-06
8.9286537727576982624e-06
8.9182615150413539122e-06
8.9084284350870580844e-06
8.8981271158718905931e-06
8.8884352914066525834e-06
8.8782238500708482546e-06
8.8686079627223970994e-06
8.8585336410570132915e-06
8.8488145463214421449e-06
8.8384445851796304889e-06
8.8283701359620894765e-06
8.8174279636957083532e-06
8.8070779054042402575e-06
8.7960173565631896687e-06
8.7859438130563916736e-06
8.7754460221396606484e-06
8.766218890062934277e-06
8.7564939356548662205e-06
8.7479417976064404664e-06
8.7385112106344404532e-06
8.7299076688124446966e-06
8.7201055739911517364e-06
8.7109237560994434588e-06
8.7004639399067840448e-06
8.6905953871694486835e-06
8.6795130858398039485e-06
8.6691823069789861981e-06
8.6578539098832361199e-06
8.6475845579015181311e-06
8.6365324215556570005e-06
8.626542986104665517e-06
8.6157639184270167675e-06
8.6060240975564141603e-06
8.5954031214828431894e-06
8.5860757813983299173e-06
8.5758528561817559102e-06
8.5670620478794511939e-06
8.5572919229647048043e-06
8.5488953900517333974e-06
8.5393697368112384422e-06
8.5311805081727453494e-06
8.521592104094990528e-06
8.513276761594115857e-06
8.5035246653197921955e-06
8.495029690626978766e-06
8.4851850123004772476e-06
8.4766069928862516648e-06
8.4666839924040145239e-06
8.4579111933813208894e-06
8.4477592996019605745e-06
8.4388029993543790705e-06
8.4284596077233580626e-06
8.4193770790390107256e-06
8.4089741580621526763e-06
8.3999560601854353109e-06
8.3897463873243324469e-06
8.3810938179193500967e-06
8.3711648782501892513e-06
8.3626894247332960738e-06
8.3526362576301772626e-06
8.3438820096495134633e-06
8.3333495093714648479e-06
8.3241610247506913435e-06
8.3131738879908965349e-06
8.3036192621556077808e-06
8.2924716989103743341e-06
8.2828968201256097313e-06
8.2720111902352158573e-06
8.2629345832203089249e-06
8.2526494590695908843e-06
8.2441916492665361484e-06
8.2344777650165775136e-06
8.2265106058131111448e-06
8.21721957789575348e-06
6.4298552824725923355e-07
7.7421950714583743974e-07
9.1062340562396163344e-07
9.9847728217094778426e-07
1.0832923997323734074e-06
1.1970862956028882878e-06
1.3003585652939073181e-06
1.3789467439063382638e-06
1.4794038586613374822e-06
1.6251788551196042026e-06
1.7782300502628450487e-06
1.8948260654234021775e-06
1.9777428181111745881e-06
2.0719702369123470753e-06
2.1988338622063450975e-06
2.3351324725649857393e-06
2.4633603523954027717e-06
2.5810267736864570647e-06
2.6719129001442823079e-06
2.7232101386246835844e-06
2.7613059017620160931e-06
2.832553194729091691e-06
2.9561464906051769138e-06
3.0920155185098019895e-06
3.1958764215870883708e-06
3.2544615983111844067e-06
3.2912833686999680792e-06
3.3484706589742190446e-06
3.4749842063284762695e-06
3.6936641660170360825e-06
3.936185547738581268e-06
4.1369436697437805375e-06
4.2536808978690406448e-06
4.2917391672151465975e-06
4.2932444391208620564e-06
4.2930401195272438849e-06
4.3031815872987747352e-06
4.3348135142307047603e-06
4.4187489096391820782e-06
4.5569015303192583508e-06
4.6982625937294509246e-06
4.8224402201647923572e-06
4.9088772416231829426e-06
4.9534077723311980426e-06
4.9830587122224731311e-06
5.0432432960183143207e-06
5.2163967744279050455e-06
5.592431915943909656e-06
5.8724589436713540072e-06
6.0039231805962841286e-06
6.0359860826733645263e-06
6.0357250450182575651e-06
6.0387471904991156104e-06
6.0572862514580633523e-06
6.1133901574491226685e-06
6.1990707022201992316e-06
6.2940493194726580169e-06
6.3876798172079014897e-06
6.4599244442643114682e-06
6.4954992322226837672e-06
6.5001657828382125847e-06
6.4961790374436663624e-06
6.4997779028732957318e-06
6.5509801549492192638e-06
6.7539510882278642182e-06
7.0200279908154180944e-06
7.2175686235624361676e-06
7.3560364334513083485e-06
7.4418428870596352315e-06
7.4828683860082131007e-06
7.4991021436780199715e-06
7.5185608968017174535e-06
7.5744498333267053618e-06
7.7902303735604634173e-06
8.1963816481032375602e-06
8.4328988906568598337e-06
8.5092880724666981396e-06
8.5088228165872804794e-06
8.4788787651713371754e-06
8.4533820376433047814e-06
8.4598352609513580646e-06
8.569889254265962501e-06
8.9380453296423358062e-06
9.2516248297326418191e-06
9.4003149693790879061e-06
9.4363154018320701514e-06
9.4303364727728475824e-06
9.4225778251830604734e-06
9.4402684613773869566e-06
9.5529488904650979015e-06
9.6584108031177748972e-06
9.6712237989116937224e-06
9.6379822627582640155e-06
9.52093576225848788e-06
9.4417616507553538856e-06
9.4230788587419049389e-06
9.4366423553519210207e-06
9.5249860620978161221e-06
9.6173846810841631422e-06
9.6782525847548352057e-06
9.7236284603338053782e-06
9.7578368050814773521e-06
9.7771717287941654933e-06
9.7814772955719672345e-06
9.7760638916168465275e-06
9.7599850474138740759e-06
9.7123679550428889594e-06
9.6671366352292547241e-06
9.6440886386608688612e-06
9.6335251465805052623e-06
9.6290810889758546526e-06
9.6453599352308478667e-06
9.7019020677101416254e-06
9.7453457452833121131e-06
9.7691389366792331646e-06
9.7830627872093181335e-06
9.8009935809155281148e-06
9.8390864545058079966e-06
9.916713083538836182e-06
9.9996933241949684332e-06
1.0070965977295462398e-05
1.0125920164702795719e-05
1.0169020951167886e-05
1.0208837356916914831e-05
1.0251483973843325705e-05
1.0299221270916046519e-05
1.0348965455856097982e-05
1.0396413654010953703e-05
1.0438814369538388369e-05
1.0476673433605701908e-05
1.0512853395182142783e-05
1.0552460934361569708e-05
1.0599645634726887532e-05
1.0654921732438228481e-05
1.0715357022090917223e-05
1.0775951848065017045e-05
1.0832582229014663905e-05
1.0882164354091414173e-05
1.0924152518102979168e-05
1.0960855788244714258e-05
1.0996279535645860984e-05
1.1034279013677076168e-05
1.1077218867344691108e-05
1.1123721004982334886e-05
1.1172743899571334613e-05
1.1221096320464736708e-05
1.1265975683986692791e-05
1.1304926821780667657e-05
1.1336751426780098932e-05
1.1362482064156258311e-05
1.1385305828168123797e-05
1.1410528608258913271e-05
1.144284287323144745e-05
1.1485363976921811506e-05
1.1537508590828394092e-05
1.1595201873500063562e-05
1.1653179572882351353e-05
1.1706143179121629344e-05
1.1750667994864608608e-05
1.1786055538516628243e-05
1.1814169048585870518e-05
1.1837040675267338608e-05
1.1856765974930806359e-05
1.1875216234290424358e-05
1.1893575271912301615e-05
1.1913829965797766475e-05
1.193818727213764359e-05
1.1968560495623644537e-05
1.2005757879502981387e-05
1.2049246343530375453e-05
1.2096458974740376016e-05
1.2144988119220233194e-05
1.21932486192440021e-05
1.2240738813950967747e-05
1.2286492988695555073e-05
1.2329090589030239814e-05
1.2367086402300770545e-05
1.2399526941703234532e-05
1.2425039640241276756e-05
1.2442928594842870711e-05
1.2453688057565225999e-05
1.2457667981781183722e-05
1.2456359439405289814e-05
1.2451604549270837744e-05
1.2445682167104800333e-05
1.2439479192244177558e-05
1.2433058261669368335e-05
1.2426246926707368968e-05
1.2418065761917001626e-05
1.1799892316319224655e-05
1.1784975375039046487e-05
1.1770027239553214359e-05
1.1755324363308944567e-05
1.1741017447967875097e-05
1.1727005762030875258e-05
1.1713122308417555647e-05
1.1699431896239095204e-05
1.1686090344918969265e-05
1.167303027678922889e-05
1.1659798450843404086e-05
1.1645837951063479695e-05
1.1630792696315230369e-05
1.1614799424661274155e-05
1.1598377984641831129e-05
1.1582307750073245057e-05
1.1567080289678318954e-05
1.1552863069335340062e-05
1.153923304309132042e-05
1.1525726031960834911e-05
1.1511811505204338401e-05
1.1497627215132155752e-05
1.1483521811972005738e-05
1.1470258469790109912e-05
1.1457907347537509842e-05
1.1446283714494152246e-05
1.1434511441655090049e-05
1.1422150484291755462e-05
1.1408685865430284693e-05
1.139438349754017946e-05
1.1379526871813353033e-05
1.1365068965840254787e-05
1.1351404784445830556e-05
1.1338927597260804861e-05
1.1327036445168751935e-05
1.1315396976317828096e-05
1.1303193508567942581e-05
1.1290433668820233762e-05
1.1276800406935166897e-05
1.1262809218521250692e-05
1.1248500601842671492e-05
1.1234467917329755168e-05
1.122065549993180615e-05
1.120743524455724603e-05
1.1194480078396378466e-05
1.1182252518501299921e-05
1.1170438843251854447e-05
1.1159336056097282966e-05
1.114818897501326599e-05
1.1136932102130253156e-05
1.1124600660902231154e-05
1.1111356678919161837e-05
1.1096696969599210067e-05
1.1081424626253202369e-05
1.1065489815422628977e-05
1.1049890241747251974e-05
1.1034414112301629406e-05
1.1019770591915790505e-05