/*--------------------------------*- C++ -*----------------------------------*\
  =========                 |
  \\      /  F ield         | OpenFOAM: The Open Source CFD Toolbox
   \\    /   O peration     | Website:  https://openfoam.org
    \\  /    A nd           | Version:  12
     \\/     M anipulation  |
\*---------------------------------------------------------------------------*/
FoamFile
{
    format      ascii;
    class       volScalarField;
    location    "0.00515";
    object      k;
}
// * * * * * * * * * * * * * * * * * * * * * * * * * * * * * * * * * * * * * //

dimensions      [0 2 -2 0 0 0 0];

internalField   nonuniform List<scalar> 
75962
(
3.8296143680272737872e-05
6.0599507949874233408e-05
8.5935717385263670582e-05
9.9817663179439298539e-05
0.00010586017465397603459
0.00011577274658423414777
0.00014399798063563580184
0.00019037380111774042509
0.00022105858484276703956
0.00024095609326493609963
0.00026873205874908826429
0.00031494755891129619678
0.00036686451491331191575
0.00041153719789933018366
0.00044921488132388233492
0.00048890486983615326702
0.00054393170829416441579
0.00061476021195727692786
0.00067973279089688851129
0.00071858760286657200837
0.0007395701172348578302
0.00077256904369272724753
0.00083324658998144016456
0.00090817553306267288522
0.00097533111930370836821
0.0010202991566272392922
0.0010490947430611332215
0.0010879159113638399263
0.0011669858296331583371
0.001292791692949874947
0.0014381067391140602962
0.0015635203290780849781
0.0016527885044679115414
0.0017193305684023664406
0.0017803742898995743305
0.0018355883739733969313
0.0018735856094650314881
0.0018935030705370839259
0.0019119109438246718012
0.0019498086503691417111
0.0020538530291498604922
0.0022293935652010930457
0.0023695774649006100775
0.0024471489575409953975
0.0024918002977468191317
0.0025690808242342655365
0.0027954698441668450123
0.0032911277689189580471
0.0036619911032158519552
0.0038286122374844161476
0.0038614326472990543465
0.0038549912472490930476
0.0038286098298260756549
0.0038143109583583553572
0.0038141273405411985943
0.0038235018909893035872
0.0038723261853760475651
0.0040535014517794959107
0.0042806192798205602162
0.0043975972981754579
0.0044224570111401810893
0.00441691899102895566
0.0044193961563255947447
0.0044771564312932827026
0.0046962814735033520455
0.0049584742625554192874
0.0051667328334706460677
0.005341366386340425966
0.0054795284234679369345
0.0055674069048147669519
0.0056097906452357466922
0.0056436501388819945019
0.0057176300340181472615
0.0059590029842868565829
0.0066509811306487680999
0.0072797468962125730374
0.0075890054470222068073
0.0076669153272846081101
0.0076611420882815584044
0.0076328491423120516102
0.0076403042084901310813
0.0077485289176069428729
0.0081957486770126014575
0.0087345632419314027384
0.0090283835360202013831
0.0091202366049421609157
0.0091214132932958165434
0.0091095628059327908577
0.0091227534131101441217
0.0092337526934298166242
0.0093608469203014521565
0.0093776576710673936743
0.0093300655061196377527
0.0091720676554295672844
0.0091048177792720508261
0.0091128610982372394017
0.0092198474088817962413
0.0095134046586691951852
0.0097115166216556574053
0.0097991788293374567503
0.0098263049109715266266
0.0098314623348223287302
0.0098308138310192767079
0.0098276208512819117347
0.0098129582911149221963
0.0097783926172030910529
0.0097512222118623804318
0.0097383001563281501589
0.0097356807884387986524
0.0097386560981981701302
0.0097555369555811979193
0.00983064140328197833
0.0099876240807287314932
0.010105669572442979587
0.010192546512123057748
0.010279994261685928766
0.010391747373533093135
0.010529657219289912176
0.010674397236918157367
0.010799628243404002167
0.010886215420054348377
0.010933819575931083209
0.010958259395230136521
0.010985730906958691283
0.011043619698527067097
0.011191264761416422346
0.011408635960877376234
0.011622963632356526562
0.011805977051737215691
0.011945158535491046461
0.012050900022133281125
0.012145804646310537703
0.012251855136358014153
0.012378628545776645259
0.012520565470277101108
0.012662754219308063053
0.012786381603901572288
0.012881179412605513537
0.012948490376016029077
0.013000711169160919511
0.013058518468027071821
0.013143370131678318996
0.013268728948899386616
0.013436736816373700751
0.013636360079411933774
0.01384792646184066639
0.014048921072470129529
0.014220896016471661072
0.014354664818955096064
0.014450379855687901787
0.014517756301578669739
0.014570407468204635282
0.014624960674622183854
0.014695818021804319883
0.014792528816242205003
0.014916516466588361153
0.015063153834169711737
0.015222619603735937713
0.015381850889653828768
0.015530838948703376209
0.015661295138623569645
0.015770127974551909761
0.015859689176846214487
0.015934362007603956185
0.016003199388245480106
0.016075131174743913232
0.01615801952569706143
0.016258521079655433028
0.01638003582398023239
0.016521344039651483793
0.016677912638796036499
0.016843727801110697923
0.017013335392579546218
0.017180168204074967864
0.017337256487406169786
0.017480442425045983335
0.017605603456784416766
0.017709574156488685354
0.017792431387428121747
0.017854525553632413781
0.017897397814074556682
0.017923708806256679477
0.017937515432479046729
0.017943402600210801856
0.01794516875476985171
0.017945512654908912092
0.017945797730981000867
0.017945464441053181337
0.017147436436959755113
0.017129018456288169769
0.01711076393030435891
0.01709263806709914249
0.017074627653689253975
0.017056943650024025683
0.017039614562185698837
0.017022494880825154995
0.017005417033145075328
0.016988397993136495484
0.016971219029767840164
0.01695331064999055018
0.016934154036741380644
0.016914082067180733621
0.016894022299378523566
0.01687479915936561381
0.016856455829717852807
0.016838732486295630852
0.01682132151669033307
0.016804165640351673844
0.016787102701749608002
0.016770282357843533522
0.016753812875028667451
0.01673800398477992557
0.016722492272827238491
0.016707032171454399422
0.016691040779058936155
0.016674689677123252785
0.016657682149101342428
0.016640270156308402394
0.016622039232835148642
0.016603589346647941449
0.01658481790590968924
0.016566494552168471721
0.016548057314505253135
0.016529889294052295401
0.016511282268408207508
0.016492894458765082477
0.016474256632755771013
0.016456175575272284639
0.016438096432670270403
0.016420733143220473532
0.016403291067596834779
0.016386378716336837125
0.016369047885511096158
0.016352243159858372012
0.01633506835051881656
0.016318553414336745
0.016301540365959491657
0.016284955760466995195
0.016267333113731529542
0.016249347697010071978
0.016229632592340427488
0.016209654789811712983
0.016188911638485920658
0.016169253074395185943
0.016149697822813859766
0.016131483656589645781
0.016113155527320819488
0.016095605270833070188
0.016077131633605037941
0.016058857692770107939
0.016039722563059816834
0.016021506848050936361
0.016003003244184289128
0.015985582825072501556
0.015967475832157233817
0.015950098208924092663
0.015931831643759161027
0.015914239219000262532
0.015895613229523233162
0.01587757092535663217
0.015858616852130625469
0.015840904118481977103
0.015822969597838628525
0.01580668841100694999
0.015789830381590392455
0.015773838717949618254
0.015756438046847159179
0.015739349686147274116
0.01572064586529473354
0.015702370239363109411
0.015682863584868336065
0.015664412183373280923
0.015645267287653901594
0.015627301529399496155
0.015608276988957236336
0.015589865716919261429
0.015570364913753784175
0.015552031778260486453
0.015533548209417082087
0.015516624636102880133
0.015499350053513589673
0.015482799102268803015
0.015465192367175965849
0.01544787934884287936
0.015429519823485806501
0.015411851873624073106
0.015393734882147635384
0.015376924191469959827
0.015359779982019929404
0.015343337433209270834
0.015325303409536568042
0.015306873726793237059
0.015286396275424687236
0.015266270147861230391
0.015245402068591691266
0.015226382611560895786
0.015207424234828558277
0.015190311632625045843
0.015172547940317280407
0.01515576735165977823
0.015137780909832662321
0.015120529374411639453
0.015102092134656327008
0.015084459962085695547
0.015065949441892880281
0.015048625599368937664
0.015030814815563378964
0.015014226118066454491
0.014997013340470117387
0.014980734941619252079
0.014963651019366449105
0.014947335580151665385
0.014930333072090915328
0.014914248202266458532
0.014897822868012623385
0.014882155423794606389
0.01486560651082000778
0.014849069065928267516
0.014831340650503063022
0.014813743651072693031
0.014795652446761328735
0.01477816745313298083
0.014760841654424580738
0.014744333559885384674
0.014728000020262780809
0.014712035364185464814
0.014695635428016780299
0.014679453347066604915
0.014662897040802111079
0.014647146393631748501
0.014631206796449157392
0.014616166693152205652
0.014600529074074036079
0.014585412381290657757
0.014569239746444846359
0.01455342351367443568
0.014536655391941148696
0.014520646465459970814
0.014504141427781570492
0.014488663341517929103
0.014473071337214997792
0.014458297778373579295
0.014443537215835348941
0.014428859689683503492
0.014413886657731939112
0.014398563752350103731
0.014382839839439344118
0.014367179168900611266
0.014350823134174085435
0.014334913567790621286
0.014317826577357263204
0.014301476220214029769
0.014284301588791604998
0.014268129056995719831
0.014252181084744677472
0.014237135327952806993
0.014222734782592661579
0.014208629176852059436
0.014194404519504608478
0.014180052805777915159
0.014164961462655459301
0.014149699106043668595
0.014133988465177035887
0.014118045616292818067
0.014102504368382656058
0.014086806471618454686
0.014072166444823182296
0.014057594309972679114
0.014043945121825326255
0.014030169781016401179
0.014017087695296484573
0.014002761454114713568
0.013989310625785544503
0.013974310587545802145
0.013960336875620149577
0.013945577140112394576
0.013931759496453097538
0.013917110254851245907
0.013903380254511134295
0.013888102838886749388
0.013874344035139955442
0.013858843750633466005
0.01384550821763434747
0.013830543709548165712
0.013818104502120606702
0.013803730816063968304
0.013791932952122677378
0.013777942193755624012
0.013766482286487064998
0.013752701613805158598
0.013741515069173841287
0.013727772753316318244
0.013716015328671709445
0.01370132011580052836
0.013688447492858663024
0.013672633272255787368
0.013659456329417819787
0.013643944050640921875
0.01363118892205490186
0.013616205132295330221
0.013604023426550525613
0.013589312850146136741
0.013578015628605331552
0.013563963474006320367
0.013553512648677368962
0.013540001859950129628
0.013530119599253355445
0.013516662325138774012
0.013507010745614687897
0.013493201461194599677
0.013483051428661929974
0.013468766623067422381
0.013458177513225788244
0.013443981699062879445
0.013433382437688927424
0.013419310252208599757
0.013408828387155111161
0.013394746483726818059
0.013384604136637480443
0.013370837537218962024
0.013360978249744959873
0.013347327873326977551
0.013337395511550182575
0.013323785109816257965
0.01331428967402232405
0.013300763193783784327
0.013291573151833541502
0.013277916681657064846
0.013268329487920210025
0.01325415908991791486
0.013244482409031884881
0.01322996882574027297
0.013220045438259270601
0.013205549175517529784
0.01319571804202137634
0.013181537030881651518
0.013172397059502499034
0.013159145897387203306
0.013150754384182587395
0.013137934137894463626
0.013129936376989649605
0.013117498032469726565
3.0991120487780988871e-05
5.1779705422258990829e-05
7.8348814507271582076e-05
0.00010338512157242694402
0.00012354191893000770488
0.00014424713133110060657
0.00016633646655918345983
0.00018708811595654083236
0.00021402490133342886897
0.00025568023197738342029
0.00030538989870468162286
0.00034947758934060810894
0.00038656598661164807496
0.00042887317831586898621
0.00048226938043509343492
0.00054022864219812748599
0.000599093194333656133
0.00065930811051974791848
0.0007096178426016946407
0.00073949943657575603097
0.00076138271767391813277
0.00080207245086915963505
0.00087466764712809327853
0.00096359211514231927608
0.0010412120984502693313
0.0010903676789875702338
0.0011155462495037479862
0.0011381729255520466916
0.0011836933014376465299
0.0012931321477017280238
0.0014503391046106310636
0.0016013711988077496476
0.0017201809594795101389
0.0018026878166520156257
0.0018583488190368644896
0.0018957750373557907039
0.0019195080767004121889
0.0019383667231363172802
0.0019698900850851821381
0.0020418964883854020739
0.0021992865896595680843
0.0023772012740371321893
0.0025224099633844123715
0.0026047701567364399747
0.0026455563399409940534
0.002705264570751539973
0.00287089513531290242
0.0033120574569859887425
0.0037113805173457714917
0.0039152454571184250667
0.0039711662686083481696
0.0039717322054317397151
0.0039596929939005815272
0.0039528950859349463315
0.00395458401673570107
0.0039668208386125242831
0.004018139227360419119
0.0041911951850905721992
0.0044020470989033612733
0.0045238085280965741053
0.0045617240677709464808
0.0045628511439306414232
0.0045648298315322235683
0.0046004729102699292928
0.0047658163284266556389
0.0050811306012061479079
0.0053640080456607164977
0.0056107949798571976618
0.0058038526806943350686
0.0059247225122199907027
0.0059802709641558534498
0.0060145404828308322506
0.0060817895293034116358
0.006289302033979755728
0.0068665262274298583325
0.0073952378927498504252
0.0076672979687807838942
0.0077417345862254381
0.0077416640304444383006
0.007737277878207641027
0.0077730038462770724081
0.0080079139899832518096
0.0087077397941232367179
0.0093004587828262891974
0.0095951182128462837034
0.0096741316628456940074
0.0096698559773999714917
0.0096563600885791658207
0.0096806893143238804261
0.009842211355416120161
0.010010628851395170225
0.010035945012846075874
0.0099859324537703263169
0.0098051994360255530225
0.0097200217981035577641
0.0097260664983202203826
0.0098429386408532097696
0.010174933352474366255
0.010395159810118837634
0.010483497924795005807
0.010505371591874609546
0.010505784066649136513
0.010501822469539678906
0.010484610039668726747
0.010425456141647847577
0.010358785568942849992
0.010325295290223324499
0.01031757613971442944
0.010323250307854582933
0.010358770801559887692
0.010452241444390077824
0.010515592840067922165
0.010551588219750305392
0.010596505086992729847
0.010682581917281028933
0.010816642608370504591
0.010982546280610017142
0.011147065241476497924
0.011279137683281847612
0.011363334065705957276
0.011406528685365392023
0.011433055076890812421
0.011475494231904241615
0.011564999905112815712
0.011708086327070016397
0.01188613423180744956
0.012074192082568964771
0.012247353145810406169
0.012393264734506087218
0.012514789326779223594
0.01262690604646086838
0.012747923005936627472
0.012888986635457001101
0.013048710986065265721
0.013215971476123944059
0.013372448771297817602
0.013500681911389905004
0.013592496596031058628
0.013651232365032451438
0.013691614269803711879
0.013736853276226049236
0.013809403435639806823
0.013926262514641619267
0.014093301915262392704
0.014303553286753228901
0.01453930162106555242
0.014774808058779297787
0.014985048317023351092
0.01515101723434211442
0.015263609015672989846
0.015328326411790391473
0.01536009800139580099
0.015381652157565399094
0.015417089155214652035
0.015496406424603021909
0.015626024348795074931
0.015783926969631399684
0.015956331183229890275
0.016128077658571580294
0.016288805945270747044
0.016430443923703817732
0.016550306723662044223
0.016650741702440269298
0.016736343709715304634
0.016816395563927052231
0.016899502803562792969
0.016994156145323725121
0.017107536571434461825
0.017243063494306338362
0.01739869615391876137
0.017568869728683593479
0.017747721231181193269
0.017929389772318431867
0.018107213165910789054
0.018274124388940403418
0.018426511629479086496
0.018560032066312116134
0.018671091409324713783
0.018759874500940378755
0.01882608068282959693
0.018871367813987661999
0.018898711219032745395
0.018912635067818279327
0.018918607362973693248
0.018920315506652688603
0.018920762994852617644
0.018920996796513475657
0.018919871533226575305
0.01891336669782496191
0.018068924581829775428
0.018050017798433539568
0.018030819023947465551
0.018011670190433013566
0.017992846812223742964
0.017974331574368576647
0.017955939198184667216
0.017937666542460994207
0.017919618757880614174
0.017901765139118307191
0.017883805434533339013
0.017865269708955518885
0.017845721574163732337
0.017825060930154231625
0.017803753583010110961
0.017782629653313130474
0.017762356455793409937
0.017743036250226124767
0.017724442582785316508
0.017706132961771352957
0.017687861105768035858
0.017669407854242182021
0.017651238548473370538
0.017633684203538599333
0.017617115452209550219
0.01760084951317929941
0.017584454351033215747
0.017567264563878227934
0.017549554634890010552
0.017531119268434387087
0.017512368891761144474
0.01749320933377739723
0.017474324872064971731
0.017455657199592227585
0.017437551387378499856
0.017419371918334768806
0.017401175462245781211
0.017382309081471303963
0.017363166938759562463
0.017343474169308516208
0.017323976855248640616
0.017304551375534611701
0.017285739537258641707
0.01726702106055523489
0.017248713127606458972
0.017230361140520511487
0.01721265466475661865
0.017195167477107000525
0.017178325716801508272
0.017161111494791353449
0.01714369729580443244
0.017125029281169858175
0.017105526925033590763
0.017084605328553846559
0.017063343717153619389
0.017041643069114563447
0.017020713086839233535
0.017000139423098994257
0.016980734849781957407
0.016961552008189367119
0.016942763766553063653
0.016923222850299547704
0.016903539287335463126
0.016883495299044738724
0.016864173477253267819
0.016844986747217342848
0.016826454521106471579
0.016807758560105214712
0.016789506251848274054
0.016770940612515609219
0.016752395622101578371
0.016733102140918776346
0.01671368159100222045
0.016693989682493973886
0.016675004206035754645
0.016656480622093520344
0.016638816485642700382
0.016621172659927817283
0.016603562001345051335
0.016585171026097921682
0.016566267594434993388
0.016546545572149309877
0.016526591251465765076
0.016506424454315282019
0.016486573004827045907
0.016466882376254616399
0.016447513621708365755
0.016427864618083647119
0.016408035849578107152
0.016387857132216833433
0.016368131737700009759
0.016348997478241412279
0.016330737349662869523
0.01631271820130326955
0.016294683005773056422
0.016276292690725571721
0.016257755025337189414
0.016239109957259030559
0.016220580194927860379
0.016202154387990459067
0.01618411563526703234
0.016166225119326794318
0.016148202723751992754
0.016129187885891210774
0.0161089080507968406
0.016087401333184241786
0.016065573397321744609
0.01604417964353108475
0.016024071578239838798
0.016005100337516009468
0.015987228730518648206
0.015969491265416448089
0.015951734689237939691
0.015933467199951908966
0.015914941459585895539
0.015896030783088207355
0.015876949212182713683
0.015857715914410493163
0.015838686959874566373
0.015820043171076433181
0.01580182600845125504
0.015783951470036739623
0.015766182762725528682
0.015748447418771238659
0.015730679544497624955
0.015713058790292565997
0.015695691970188590386
0.015678803304714040295
0.015662001286544990908
0.015645019569134954035
0.015627268752260621565
0.015608932987689031965
0.015590058199022788221
0.015571468788950154974
0.015553063464955682246
0.015535610336473444637
0.01551841185003231989
0.01550182726601187326
0.015484861729250051776
0.015467837913085492538
0.015450252617125376231
0.015432782762801857193
0.015415321602377173374
0.015398311601985252908
0.015381692629653515719
0.015365432919471171125
0.015349314850475217348
0.015333038633826659783
0.015316314971423850358
0.015299255877624399688
0.015281986104383601596
0.015265025887307945643
0.015248193352944919982
0.015232042593302968711
0.015215754176165713699
0.015200189184054378744
0.015184080964304279629
0.015168445122568914238
0.015151957604320604595
0.015135724114659337286
0.015118963641603710285
0.015102233818575862972
0.015085306139335057096
0.01506798321504547282
0.015050611999762668683
0.015033179051711685961
0.015015927176299346743
0.014999534732826218242
0.014983197869822955164
0.014968217185076550246
0.014952850850469615041
0.014938357879303103617
0.014923096415287681257
0.014907950599388288676
0.01489175412338535065
0.014875693744991407702
0.014858540546653276407
0.014842338766332419456
0.014825206098919458189
0.014809927474362013719
0.014793978089446288213
0.014779969584761170481
0.01476500116605495086
0.014751543755032073962
0.014736077321196588627
0.014722115539605876502
0.014705988840891182773
0.014691582341771192849
0.014675716311420929083
0.014661429902350184284
0.014645666299372500641
0.014631669364462080232
0.014615470399946466767
0.014601606799073683571
0.014585316682991688458
0.014571752023430608464
0.014555847361844858126
0.014543045546180135077
0.014527557696390797429
0.014515263405393431101
0.014499886315008134186
0.014487658372427892825
0.014472316331505698586
0.014460145205393086856
0.014444836282978573694
0.014432365574681945211
0.014416393333609032329
0.014403101762314889783
0.014386422767463113298
0.014373057021816603926
0.014356865180831186735
0.014344020118826936866
0.014328392879493466461
0.014316044505243883181
0.014300491957220235612
0.014288834620329074823
0.014273646140590087392
0.014262603079317469693
0.014247710190041468908
0.014236928848334436809
0.014222120392937647251
0.014211711554253098413
0.014196754141727052634
0.01418624269424907311
0.014171154756307660638
0.014160414851207857312
0.0141452721926451086
0.014134430536581853513
0.014119237887237920046
0.014108131536699895781
0.014092797657205793915
0.014081886360597739224
0.014066744943241149199
0.014056084320571907501
0.014041090662012997367
0.014030589251094007994
0.014015816631392879338
0.014005895355416174766
0.013991418312212160896
0.013981695935837276309
0.013966832957423647513
0.013956687741760131355
0.013941148982805405196
0.013930734904927809942
0.013914866172074838446
0.013904177344904174868
0.013888289349077950416
0.01387754189811844785
0.013862048171122607482
0.013852095420798267791
0.013837467056055487505
0.013828287472442078385
0.01381421301656986407
0.013805363498480112405
0.013791534115608045097
4.1811989839620130347e-05
6.0609483516996340725e-05
8.410800004061773881e-05
0.00010140301851946327072
0.00011925903815961295235
0.00014517246225526713008
0.00017129303020772140322
0.00019341540450623268574
0.00022342895401310239258
0.00027016821509210254149
0.00032428472803754175265
0.00036885740770246808152
0.00040175693592382988534
0.00044091292419320624041
0.00049737896941781081697
0.00056246872807165547783
0.00062773689850693318443
0.00069119020649154353734
0.00074248441210631040913
0.0007719999713343287176
0.00079348807643974468735
0.0008345203531839294215
0.00090925227820392359041
0.00099655356860452811059
0.0010676193446229520403
0.0011101321597689422192
0.0011376787055118460328
0.0011793406613176443849
0.0012716495298535611131
0.0014379170818404000531
0.0016335252603786871821
0.0018053910058118884541
0.0019117524076436404838
0.0019512966339953518105
0.0019582985569281934762
0.0019624088971625279834
0.001973478482161636436
0.0020024766905593098174
0.0020807445443498766291
0.0022153364874572425806
0.002360001354797748932
0.0024926309161483885084
0.0025884622563470943007
0.0026400479381693928334
0.0026744492829195699
0.0027400436157768311672
0.0029306119280692291724
0.003370553820888305338
0.003725115405706887553
0.0039060978853771148069
0.0039593724477027317232
0.0039667996628053505542
0.0039749419053854801939
0.0040011751107127437044
0.0040771470460896509086
0.0041965810302669985521
0.0043344935604090768094
0.0044751950548130563917
0.0045876559019477217496
0.0046473043387683394406
0.0046612630829321209311
0.0046617876983554859885
0.0046729495096107746127
0.0047530534051014776756
0.0050584557660212740859
0.0054721867582040563741
0.0057909758765037708944
0.0060218961515242632951
0.0061706021899730978744
0.0062461618991221275199
0.0062795268247779669618
0.0063175022219788875416
0.006418531784487415022
0.0067987749936987817295
0.007542223347734701086
0.0080021961381193749269
0.0081628509189603654095
0.00817186853570673645
0.0081227847884381629284
0.0080855600850854667666
0.0081153615713941435611
0.0083476635730514898992
0.0090991060708707650201
0.0097654348345926067498
0.01009368200371216738
0.010181105226993766855
0.010177772221609026129
0.010169179278412014342
0.010212995043136699827
0.010462423668733575668
0.010701918102959900522
0.010741896989837513079
0.010686853393454350328
0.010453774283248925062
0.010307261992439177567
0.010291890950479854264
0.010342011127222498074
0.010551329696451778109
0.010768136762515485849
0.010913322096336509556
0.011024061407618431993
0.011111109552987392946
0.011166019521840570006
0.011187465579307753413
0.011187853516934376588
0.011166070366562450694
0.011075289865419538429
0.01099143441952003461
0.010958647169525836257
0.010953942325745973096
0.010962882366846296578
0.011017130765614117222
0.011159745768809351679
0.011267098694333729098
0.011323352434588861495
0.011353222464811412937
0.011391651027339419824
0.011477824498170426104
0.011658545036734028338
0.011855468402010339163
0.01202899752949152315
0.012168561227151271364
0.012284678839544658016
0.012396864535294194881
0.012517881951483813413
0.012651160846948004621
0.012788272556617666723
0.012919475659599366155
0.013039840885691432112
0.013152044027710724228
0.013263142690887977371
0.013384530301448458595
0.013525285205304450262
0.013686502048324227995
0.013861247527557371204
0.014036983803031770693
0.014202673460456139223
0.014349711616245449872
0.014476569508299379913
0.014589708094679874895
0.014700458207324658758
0.014820107834506058772
0.014956184575361110289
0.015105553560277927214
0.015264678455832462328
0.015423173635943553117
0.015571610324970706213
0.015702345343859783894
0.015812060200932297888
0.015903858284394282313
0.015986713384866235721
0.016075489323805952635
0.016183578104586416463
0.016320449304822223779
0.01648580169015122221
0.016670067763078399298
0.016860371080610097455
0.017042519298706565456
0.017205285033424694285
0.017342978622716342246
0.017456485628164139512
0.017548331177720668389
0.017624231765151893853
0.017692484641584203808
0.017760535393086297057
0.017836989828888767662
0.01792870687097550958
0.018040109967960196724
0.018172741822743893048
0.018325683564573907319
0.018492765802655367069
0.018667376879685292773
0.018843495325086036252
0.019017192409654357782
0.019183531702030454796
0.019337666147351884049
0.019476206232408359298
0.019598122267873996361
0.019700995689443064063
0.019783874170330579406
0.019848701770525917221
0.019895787125618100838
0.019927736028056513423
0.019947480896773565201
0.019959783400922557345
0.019966621097329138174
0.019969489609484521869
0.019970501492237505842
0.019968986201427230132
0.019024578040089928227
0.019005081969243237811
0.018985218464954864426
0.018965412350716592121
0.018946030959701817137
0.018926926885261159683
0.01890772823829991664
0.018888545824771871967
0.018869689299363261864
0.01885109545333827144
0.018832088322994794405
0.018812069176194389647
0.01879080791119986521
0.018768719252960124749
0.018746344174331731197
0.018724487927709223406
0.018703388938146187082
0.01868332637399866894
0.018663815506370622782
0.018644717179431159054
0.018625184057324172676
0.018605487159483975051
0.018585672194471554441
0.018566931625930035293
0.018548875824767146331
0.018531451961769071501
0.018513326475231128843
0.018494761329804425276
0.01847511935996921234
0.018455097775357243856
0.018434337224607671296
0.018414174008157979667
0.018394520923831862713
0.018376244414661666027
0.018358036413520888858
0.018340132552758833806
0.018321229128131142488
0.018302148240845170918
0.018281900891148387955
0.018261587380929793917
0.0182404742459284612
0.018219855038517779322
0.018198935273794011186
0.018178812978302417297
0.018158441847254683937
0.018139245738896348642
0.018120270331659190516
0.018102813312720410915
0.018085088218366140306
0.018067816861206568296
0.018048836948543946906
0.018029342432652861739
0.018007800931903121533
0.017986251973572054547
0.017963485334076528116
0.017941614522605904558
0.017919165891398389917
0.017898240482822951047
0.017877177208240231654
0.017857607520198080092
0.0178370013901092625
0.017816781698169727177
0.017795132667116395075
0.017774611789832098219
0.017753628036072797991
0.0177341230812689786
0.017713809662081497764
0.01769479937107823822
0.017675024073270349106
0.017656406487736180794
0.017636273669030259198
0.017616582123114392366
0.017595287631336668094
0.017575258962121715484
0.01755443749648732954
0.017535461207475271789
0.017515662192735637764
0.017497398963649296588
0.017477718457955905562
0.017458794664319744749
0.017437808399864244968
0.017417585901972527235
0.017395690070331332883
0.01737522107332708371
0.017353416167651267848
0.017333176197919533679
0.017311604540581452399
0.017291503771511895771
0.017269823337725486584
0.017249624002321668759
0.017228158341132018827
0.017208796252177357283
0.017188466692821317144
0.017169877454577247428
0.017149677906824215001
0.017130874874307529948
0.017110615595647995363
0.01709217511603963735
0.017072195992254950159
0.017053870675773161875
0.017033750142949243001
0.017015337674599888274
0.016994798423504455659
0.016975219311237119135
0.016952543858753079536
0.016930831927521955427
0.016907020033970043826
0.016885952515597900392
0.016864282418043143041
0.016845957879992778244
0.01682658927802620219
0.016809510720605113504
0.016790076926558268611
0.016772169545636594901
0.016751694436975168856
0.016732944320816216938
0.016711781264324761936
0.016692565088247957039
0.016671284398394999038
0.016652413834889190358
0.016631940258471963889
0.016613860776454922319
0.016593926803909933576
0.01657608439962496294
0.016556283635468953264
0.01653861093608862548
0.016519408079877919565
0.016502404313794273583
0.016483739636677811891
0.016466562166001223744
0.016446902317015482664
0.016428376069297753043
0.01640772433242840278
0.016389115621425046077
0.016369271482623889979
0.016352045734178373426
0.01633349445132958877