/*--------------------------------*- C++ -*----------------------------------*\
  =========                 |
  \\      /  F ield         | OpenFOAM: The Open Source CFD Toolbox
   \\    /   O peration     | Website:  https://openfoam.org
    \\  /    A nd           | Version:  12
     \\/     M anipulation  |
\*---------------------------------------------------------------------------*/
FoamFile
{
    format      ascii;
    class       volScalarField;
    location    "0.00515";
    object      k_0;
}
// * * * * * * * * * * * * * * * * * * * * * * * * * * * * * * * * * * * * * //

dimensions      [0 2 -2 0 0 0 0];

internalField   nonuniform List<scalar> 
75962
(
3.8367906751950231535e-05
6.0627276182449306875e-05
8.5939772893755389787e-05
9.9785931115481423708e-05
0.00010581649420528062614
0.00011574612177857295642
0.0001440511068675809673
0.00019040565699721828403
0.00022104592144891237952
0.00024093678811670354292
0.0002687472613037180367
0.00031498634910144882168
0.00036689102317895668686
0.00041154168417408806607
0.00044920102018642532344
0.00048889294666370770436
0.00054396273572149755286
0.00061482200526540074868
0.00067974941686671681851
0.00071852204441853750883
0.00073948334544696669394
0.00077254403393176203103
0.00083328820211051675328
0.00090821837563562950527
0.00097531244181370344969
0.0010202132915121148605
0.0010489976961325412318
0.0010878985580572153591
0.0011671170042205235209
0.0012930176778756404237
0.0014383082564246973522
0.0015636097877828197562
0.001652771487983918609
0.001719264630312035717
0.0017803050959371720906
0.001835498614117056981
0.0018734339408259987909
0.0018933079253338283305
0.0019117428045401917581
0.0019497402069084915788
0.0020541034611892216265
0.002229653178633553539
0.0023696654791262217361
0.0024470539645503252765
0.0024916937633483252079
0.0025691765917625199005
0.0027964571359474265158
0.0032923390204413435257
0.0036625102978262540077
0.0038285077069946755676
0.0038610562479277918749
0.0038545640769466335204
0.0038281715399073254491
0.003813955408836922599
0.0038137973153340378081
0.003823224942898879701
0.003872276052605715807
0.004053984758245101315
0.0042808248006951489864
0.0043974205734024600367
0.0044220695021232317087
0.004416512665664049965
0.0044190810458386541038
0.0044772018866909447238
0.004696930755830616179
0.0049589338297661459884
0.005167052426444478791
0.0053415537586832297079
0.0054795365881505830527
0.0055672203297663439003
0.0056095080588911393898
0.0056434367976137735784
0.0057176631767722864777
0.0059600590782161672401
0.0066532151956451108729
0.0072808737434610923747
0.0075891631731518308795
0.0076665633968603721926
0.0076606330639609624203
0.0076323093207911231473
0.0076399035945150101101
0.007748814203089432126
0.0081974062043871850913
0.0087354734335094389591
0.0090284244386087311035
0.009119738467061577411
0.0091208170310466026021
0.009109018399104449118
0.0091224053152293496649
0.0092338749224699298579
0.0093605900683511218674
0.0093771285325407408712
0.009329172363277973834
0.009171055021555527334
0.0091042404314185636227
0.0091124628146037819909
0.0092201162963460366745
0.0095139481990164434522
0.0097115574327891369955
0.0097989188027004132941
0.0098258992215856533897
0.0098310173621706745811
0.0098303753943354520162
0.0098271866742985301141
0.0098124589441050645566
0.0097778698633347576469
0.0097507488411986732724
0.0097378659860752406208
0.0097352468597039915066
0.0097382083977151558812
0.0097551460295122079114
0.0098306228293931728623
0.0099876514658357503501
0.010105586759313894482
0.010192423044747241437
0.010279916910242235806
0.010391763714561646006
0.010529749576446071138
0.010674492216599837727
0.010799636632336623646
0.010886082540379853761
0.010933553698136753637
0.010957931455177127508
0.010985447084889014835
0.01104352296234125709
0.011191605481048227597
0.011409061413166027288
0.011623326464602094441
0.01180618444338528937
0.011945207153370421618
0.012050870713943914389
0.012145798043846826528
0.01225192665423620493
0.012378761494174415209
0.012520694699395630567
0.012662805697657141327
0.01278631125562334353
0.012880993411070375959
0.012948232349961976556
0.013000448832178023925
0.013058328406627663087
0.013143312362779413158
0.013268825298709624461
0.013436962665443422799
0.013636654132612464202
0.013848212486425658801
0.014049130366933863454
0.014220986673171428019
0.014354626220946149068
0.01445022960693832792
0.014517530901604295407
0.014570157368392551087
0.014624746090020025388
0.014695694117279303054
0.014792524698349584361
0.014916621835016104572
0.015063323975800950449
0.015222790776808745733
0.015381969003602996918
0.015530875998171097402
0.015661248763916172516
0.015770017201521439182
0.01585953366397535938
0.015934184799391494514
0.016003029598074643841
0.016075001564656046099
0.016157962562091055664
0.016258557350438920808
0.01638016083192416969
0.016521530615445784163
0.01667812510722838093
0.016843936652641892243
0.017013522823786111915
0.017180324188438993865
0.017337379251990633205
0.017480527023999613973
0.017605634380845346793
0.017709534409927646381
0.017792304286245459732
0.017854297539737488953
0.017897065836435105401
0.017923290314668792467
0.017937048089920245436
0.017942931131501790865
0.017944726153015115588
0.017945107292707689756
0.017945414128707377899
0.017945075622510176655
0.017146960582391086031
0.017128543466661712291
0.017110297406143074039
0.017092182943201677386
0.017074183383696046878
0.017056509648251935718
0.017039191171204667169
0.017022081054619886409
0.017005006290070678876
0.016987975965888735957
0.01697076707600474535
0.016952816445339378981
0.016933623566502169905
0.016913540910856516425
0.016893501397897005278
0.016874316477079990412
0.016856009730228091459
0.016838307857378470578
0.016820901465107455236
0.016803741502651799167
0.01678667770647861851
0.016769867103154208199
0.016753415957323533614
0.016737623952348096301
0.016722117302015782059
0.016706646146675750014
0.016690631975093687261
0.016674255203019631294
0.016657227500554094846
0.016639805033409560409
0.016621573108015378489
0.016603128232617642146
0.016584363786127747503
0.01656604525491189514
0.016547609281099051604
0.016529440298404377008
0.016510833297478356985
0.016492448719527909307
0.016473818548046099269
0.016455748993874266817
0.016437683643547754825
0.016420334102242313545
0.016402903460286385323
0.016385997496113136052
0.016368668265669104184
0.016351860749016115804
0.016334678894233956026
0.016318152060281834043
0.016301121097640286495
0.016284511009932847725
0.016266855920854014772
0.016248836481333083642
0.01622909506307175162
0.016209106919578525341
0.016188372158997821337
0.01616873524646216323
0.016149204890292971626
0.016131010607312687433
0.016112691858138534357
0.016095139649365486356
0.016076658128576028911
0.016058377484785873318
0.016039242214744748455
0.016021032982768083214
0.016002539389206663079
0.015985128017220160551
0.015967026218754721417
0.015949648647927350958
0.015931377853871737243
0.015913779341982965676
0.015895149607048422724
0.015877110400833491233
0.015858169174190524936
0.015840477335258455055
0.015822565941883331986
0.015806301784910225389
0.01578944859792539776
0.015773448444560963372
0.015756029495206526347
0.015738919656936127545
0.015720197919707249584
0.015701912026905205655
0.015682402089141775359
0.015663949943429306827
0.015644801779681222209
0.015626828076249432709
0.015607793218559934054
0.015589375717599426863
0.01556987784249111266
0.01555155739843566004
0.015533090711497955436
0.015516181417896613565
0.015498913586759895458
0.01548236245820943692
0.01546475248004262025
0.015447438297914948754
0.015429082653622116714
0.015411422808631190795
0.01539331383177388636
0.01537650491288627963
0.0153593513178535198
0.015342886870032160923
0.015324822739913855976
0.015306363220645737705
0.01528586642074872444
0.015265737163704214824
0.015244882154791744924
0.015225885762805972667
0.015206952484270482365
0.015189860290701144921
0.015172109097587265988
0.015155333560564490658
0.015137346954238800265
0.015120093204929111255
0.01510165427217766837
0.015084022862686100389
0.015065515799650389117
0.015048197681382014315
0.015030393338449701823
0.015013810600023406658
0.014996602400473974664
0.014980327205755880962
0.014963244933838871359
0.014946930065851531458
0.014929926578554918865
0.014913839018257038158
0.014897407638675671041
0.01488173002866197657
0.014865167341597125897
0.01484861501339034516
0.0148308730726916492
0.014813266675341378587
0.014795170666693838873
0.014777686453090873794
0.014760366147736901296
0.014743867368707811588
0.014727544458610870165
0.014711589719578394009
0.014695198053666804969
0.014679021099035689801
0.014662467011033219685
0.014646714940980775851
0.014630770955696474622
0.014615723503782282119
0.014600077514656546046
0.014584953143327271385
0.014568775854951025728
0.014552959687056651883
0.014536197252398208937
0.014520198648334174327
0.01450370605583533104
0.014488240734109461907
0.014472658398668226259
0.014457891263291245201
0.014443131373660361011
0.014428450294840701115
0.014413470178557326318
0.014398138607780551143
0.014382406761596668032
0.014366737871411797839
0.014350375488386000328
0.014334459825350686149
0.014317369852154399057
0.014301020791102167506
0.014283851921686178954
0.014267691203559165064
0.014251756425151480834
0.014236724602525646644
0.014222334588939117631
0.01420823470627374796
0.014194011856887556872
0.014179658392870128289
0.014164565169077381057
0.014149303484414312709
0.01413359603907893107
0.014117661067716424581
0.014102129032487307689
0.014086441516230962384
0.014071810618361225639
0.014057245121049329745
0.014043600664744901318
0.014029829313662377926
0.014016749162254475702
0.014002426228325278931
0.013988977257586396319
0.013973976988410977129
0.013960001224041040588
0.013945234589121165841
0.013931406007778193365
0.013916743897622606968
0.013903000682744219227
0.013887717232739987816
0.013873960153396779071
0.013858472140059117234
0.013845156402773750939
0.01383021646503383717
0.013817800345113529642
0.013803444957973890969
0.013791656985466662494
0.013777666809266940831
0.013766198609253139581
0.013752403461027153803
0.013741198643010757094
0.013727436753943689576
0.013715662593882963632
0.013700955953514944857
0.013688077569399147507
0.013672263458165495598
0.013659089342880719603
0.013643579496424503364
0.013630826643309761764
0.013615845819817970139
0.013603668383850190532
0.013588967102453275437
0.013577682265542125387
0.013563645858921592746
0.013553210721044374812
0.013539713576310665952
0.013529839216682403025
0.013516384793329477843
0.013506729040110231413
0.01349291115457969259
0.013482750825114030863
0.013468456163018279609
0.013457860959439920182
0.013443661504397281733
0.013433061352247546716
0.013418989251912384272
0.013408507127634371886
0.013394424868071824752
0.013384280835285481542
0.013370511806336270177
0.013360651053271596633
0.013347001479022374548
0.013337073816227206988
0.013323471903813157921
0.013313984654886991052
0.013300464940580649514
0.013291276086764768419
0.013277614762680616661
0.01326801765002801059
0.013253835026883487025
0.013244144084650435328
0.013229617733979919317
0.013219686192986071158
0.013205187326696817343
0.01319536038251535072
0.013181189358144204671
0.013172063440438206219
0.013158827214694933383
0.013150449838385624632
0.013137642422507407255
0.013129655003126360774
0.013117221881570374081
3.1015884238241580998e-05
5.1807570662488740352e-05
7.83715220464188965e-05
0.00010339368176964768562
0.00012353683942971729632
0.00014423959630599568309
0.00016631528528558754839
0.00018706685167037213945
0.00021404036016880260951
0.00025572975402553965599
0.00030543134367678776309
0.00034948804597187822611
0.00038656708733818051157
0.00042889298290557675321
0.00048230322146163359795
0.00054024392564582315868
0.000599107397723956615
0.00065932214690991115726
0.00070958683518104477116
0.00073941645831353145033
0.00076131063445282346272
0.00080207978195577945418
0.00087474884961774275818
0.00096366640342030439065
0.0010412070741334803273
0.0010902730991505962636
0.0011154087652988126274
0.001138070445403017994
0.0011837003978724745367
0.0012933725580170668968
0.0014506079338030832774
0.0016015635126821459438
0.0017202375991730353005
0.0018026263130858850067
0.001858228008747590072
0.0018956201202497114343
0.001919324018590489421
0.001938184257817234489
0.001969773946693919621
0.0020419890475276872115
0.002199573799473238285
0.0023774464405488756648
0.0025224853309194677012
0.0026046419638925386898
0.0026453807364714607663
0.0027052459913043296405
0.0028715161415783551149
0.003313328094592048103
0.0037119853334092781615
0.003915223284647802518
0.0039708253228716867272
0.0039713487626075200804
0.0039592854163835794132
0.0039525333286008984893
0.0039542360528731371541
0.0039665225351931919506
0.0040180643041271635676
0.0041915890352328946319
0.0044022150928335465267
0.0045236435164554278376
0.0045613295563145597744
0.0045624175676868211973
0.0045644488473093143208
0.00460035566891232265
0.0047664633077443467959
0.0050818284901519563887
0.0053645893229614209641
0.0056111883213423143293
0.0058039804664308126264
0.0059245868731069894
0.0059799920507761184993
0.006014305786755910592
0.0060817377318949511489
0.0062900878124702774494
0.0068682537348456230986
0.0073960873072515904633
0.0076673481826305539544
0.007741342989637300942
0.0077411790347783320659
0.0077367952214068376124
0.0077727857663743363248
0.0080089757870788393784
0.0087099227795746168163
0.0093014376138109283731
0.0095951259705951419399
0.0096736186716047580653
0.0096692383807131122159
0.0096558242893226235021
0.0096803983071791499526
0.0098425081196386304122
0.01001042230179488568
0.010035402657880446858
0.0099849969903578143088
0.0098040497958248404992
0.0097193763894758648109
0.0097256354425939474384
0.0098432856019938057279
0.010175617991663938114
0.010395226826545695201
0.010483200525916237453
0.010504910686086960797
0.010505288832040857866
0.010501322240117547807
0.010484061039321665096
0.010424768504722252763
0.010358199425776912217
0.010324816353961107501
0.010317146187836939708
0.010322849089142110621
0.010358527850030035261
0.010452049055312563272
0.010515242580361102223
0.010551223518510380664
0.010596264009304516562
0.010682527130986604197
0.010816743100654916884
0.0109827057458704129
0.011147171947686903767
0.01127911301050544754
0.011363157885961308255
0.011406244656174863855
0.011432753980058631832
0.011475281772564478039
0.011564985532630476031
0.011708242214706543124
0.011886403027253395967
0.012074476695262311918
0.012247563382989235317
0.012393361107745637373
0.012514799126991495506
0.012626906289228901487
0.012747987592562475337
0.01288913653372575005
0.013048908245537411271
0.013216146040280216459
0.013372531751734448996
0.013500632686711247152
0.013592313484276962246
0.013650952737040653387
0.013691309821732718793
0.013736608127024792572
0.013809287077991545464
0.013926311695501155177
0.014093510037587806197
0.014303877219172700386
0.014539671427435228376
0.014775139844105833475
0.014985264938415638475
0.015151065596402689406
0.0152634782598265583
0.015328049167097573466
0.015359741330539147808
0.015381305553664945118
0.015416843359418661019
0.015496382069714676258
0.015626131547220378087
0.0157840939711620179
0.015956483654317538123
0.01612816771274950059
0.016288825555135350714
0.016430408906380984668
0.016550237435824215887
0.016650649572177517177
0.016736232796632131981
0.016816277637827854036
0.016899403994647281546
0.016994116033825699269
0.017107586680166275012
0.017243205056574301831
0.017398898876140645592
0.017569092955994642519
0.017747936793303487751
0.017929587464552393383
0.018107392689330592539
0.018274285889632018581
0.018426643576460705054
0.018560107171211606691
0.01867108347678224714
0.018759761385124966437
0.018825845807053435271
0.018871010869026566548
0.018898256112461271627
0.018912130444100276605
0.018918105705743312045
0.018919850861493711647
0.01892033882042953169
0.018920590805389721212
0.018919446600209666176
0.018912875952532170326
0.018068440819389783303
0.018049527935321552086
0.018030329426853515529
0.018011187260959096029
0.017992373238089935661
0.017973866531760928494
0.017955482970232451712
0.017937222130834352962
0.017919187174610079483
0.01790133944375661007
0.017883369309264957048
0.017864803699251845942
0.017845214407201333284
0.017824519679169478076
0.017803203323212613007
0.017782099285375049108
0.017761861449257981826
0.017742572691890459713
0.017723994091174616328
0.01770568302226788876
0.017687402751149598756
0.017668947951163752746
0.017650792454041240587
0.017633263707388033281
0.017616718241359494851
0.017600459406193705997
0.017584050206324298299
0.017566830753969382012
0.017549087448072681061
0.017530628080439716876
0.017511871371620777588
0.017492723435997212245
0.017473860827782183858
0.017455214047874149236
0.017437119338674176433
0.017418938279959567811
0.017400730376373973324
0.01738184965812538188
0.017362697220656982122
0.017343002261012856885
0.017323511367431980446
0.017304098471161950129
0.017285301071691662467
0.017266596076674557703
0.017248297639307949569
0.017229950454830278428
0.017212244493446916815
0.017194753049531930761
0.017177899735275871385
0.017160664575205902826
0.017143219497543746993
0.017124513918299773957
0.017104974887389819832
0.017084026993851867543
0.017062756631346192443
0.01704106545847432555
0.017020157212527253776
0.016999608249668837073
0.016980222852947174372
0.016961048634049905731
0.016942259116574369393
0.016922712525770360753
0.016903026244214833934
0.016882986854949610239
0.016863676162412969545
0.016844503068326514839
0.016825982721424808525
0.016807293593584397839
0.016789041426411206032
0.016770469342209107927
0.016751914602808292559
0.016732613395160959857
0.016713193156626150737
0.016693512259067250919
0.01667454621985301616
0.016656043683107517317
0.016638394558286331154
0.016620754058394440061
0.016603134234788374801
0.016584725350042725522
0.016565801928957617217
0.016546063527000078736
0.016526099330708053647
0.016505927456540586684
0.016486071715785238084
0.01646637418953040416
0.016446995686505556239
0.016427338028833334688
0.016407507752837093007
0.01638733835736585695
0.016367630962364439207
0.0163485159558198756
0.016330268677555489359
0.016312252598895640721
0.016294214045800194807
0.016275820495813730221
0.016257285388204156112
0.016238649653541787493
0.016220132253350609541
0.01620171552657889702
0.016183676102393063784
0.016165771260701480155
0.01614772143683672681
0.016128672316152396077
0.016108362306370926226
0.016086840246112347336
0.016065016978118653451
0.016043645293515543943
0.01602356788928338896
0.016004625880696548429
0.015986774449350035082
0.0159690453114923539
0.015951287156420485697
0.015933012063651264684
0.015914477641154438359
0.015895560690773517798
0.015876477546355183268
0.015857247373274006852
0.01583822508174432403
0.015819588761616154571
0.015801377957052237938
0.015783507454029087336
0.015765741211882660505
0.015748008078965328171
0.015730243351447844441
0.015712626574545734276
0.015695263421964731482
0.015678375021683236407
0.015661567558535097883
0.015644574222691123855
0.015626808279990668515
0.015608457410290417153
0.015589571418562545718
0.015570976344793931515
0.015552571465297673065
0.015535123005041855462
0.015517931437482365004
0.015501353694204713513
0.015484393346376508147
0.015467373290743335196
0.015449790622764983383
0.015432322552985070982
0.015414861935328053044
0.015397851900886730392
0.01538123183228799068
0.015364970404569914392
0.015348850356282094792
0.015332572594972313645
0.015315849582039594776
0.015298794613296100645
0.015281532884646819789
0.015264581995564229303
0.015247758290615863117
0.015231612799036512579
0.015215326470057364064
0.015199759320387399089
0.015183645895209931312
0.015168002643027785406
0.015151506845174295482
0.01513526604992558762
0.015118498601958390432
0.015101763960327398151
0.015084832254190492715
0.015067508268866472779
0.015050140346962071966
0.015032714919014823415
0.015015475979569738174
0.014999096988318255316
0.014982773351233661524
0.014967801354831984303
0.014952438770242021393
0.014937945359341968724
0.014922679690312478512
0.014907529061960991118
0.01489133002737625007
0.014875270119408064498
0.014858122401459953471
0.014841927956993461457
0.014824804979800605687
0.014809535523253666497
0.014793594341845246742
0.014779592903367399365
0.014764631301005757061
0.014751179370316532327
0.014735719676543882969
0.014721763843482445905
0.014705640836547542033
0.01469123531314288876
0.014675364440977273564
0.014661068340068715565
0.014645292763096820834
0.014631282188119400928
0.014615075366046231461
0.014601210921849697155
0.014584929989576184833
0.014571382291423816413
0.014555500050160237804
0.01454271997095763283
0.014527250026366629598
0.014514965029479569292
0.014499587912822926167
0.014487350962711174202
0.0144719931730701145
0.014459803066513473788
0.014444474968433443363
0.014431988267140847398
0.014416005999156329687
0.014402711122592334186
0.014386035143504749892
0.01437267592641936105
0.014356490174380443642
0.014343650125470912629
0.014328027353070635352
0.014315683294527930744
0.014300139134130574609
0.014288492103579318593
0.014273316775025569197
0.014262286334607392896
0.014247404342081947809
0.014236630400103963967
0.014221826278819812636
0.01421141659876856353
0.014196455611292469953
0.014185939259404133431
0.014170846152977660884
0.014160102261369463331
0.01414495579767805454
0.014134110159710489701
0.014118911769023023695
0.014107798753999870739
0.014092458578854277426
0.014081541608390566594
0.014066396264264801122
0.014055734271113574582
0.014040743072492173349
0.014030247911230310856
0.014015484635241824349
0.014005571794989655349
0.013991100264537226563
0.013981377082176690493
0.013966507827439314515
0.013956351153045762348
0.013940799715918737733
0.013930373142461281721
0.013914494506191249848
0.013903800798385860041
0.013887912609756849699
0.01387717127003533675
0.013861689053790078249
0.013851750925881719731
0.013837138360856680169
0.013827974279910209415
0.013813913741330681451
0.013805076112744629063
0.013791254712017555345
4.183909381889399585e-05
6.0617365420082538671e-05
8.4101819222804000803e-05
0.00010138552351033777406
0.00011925179983185382499
0.00014517190429455379915
0.00017127754651124484867
0.00019339346400902606348
0.0002234460159307727887
0.00027022159673948509652
0.00032432275159051388155
0.00036885569992223200732
0.00040174651716228464799
0.00044093138194540383622
0.00049742055389446224265
0.00056250386325959196143
0.00062776663762732873731
0.00069120102517926103151
0.00074243878877624104162
0.00077189953119792987114
0.00079340425885757236233
0.00083452343073407622004
0.00090932460962874406187
0.0009966040885488354744
0.001067583927136000338
0.0011100216657305610538
0.001137569097819900784
0.0011793269142751142391
0.0012718715254375464931
0.001438284228974468686
0.0016338847418553791545
0.0018055683453995507743
0.0019116727888473842266
0.0019510495091808912997
0.0019580187625087230006
0.0019621530338495966374
0.0019732670636900843594
0.0020023557300527148294
0.0020808423317718155975
0.0022154909861541523426
0.0023601473564140956589
0.0024926967689784767894
0.0025883741324370908646
0.0026398320610056930612
0.0026742602978574113969
0.0027400473683332595212
0.0029313730820938401107
0.0033716353971359859856
0.0037255878657521950166
0.0039060349108666911691
0.0039590487686142180127
0.0039664398246064581921
0.0039746110381020001434
0.0040009477813809568233
0.0040771278977782942493
0.0041966164262835737794
0.004334560298298885915
0.0044752182103155223672
0.0045875343434023984138
0.0046469965632388058815
0.0046608405491822650635
0.0046613562945585591477
0.0046726283631620948653
0.0047532056524030108849
0.0050595969085014654357
0.0054730898813540084305
0.0057915356482254078119
0.0060221221536441420924
0.0061705204439095927629
0.0062458684162120560457
0.0062791785458377420356
0.0063172420339122816596
0.0064186420820372411603
0.006800566830130363831
0.0075437469811275928433
0.0080026516038201357672
0.0081625509377936892458
0.0081713608925297193109
0.0081220875195307917077
0.0080850571643928826476
0.0081151161881441585821
0.0083487126370989650503
0.0091015646671723012678
0.0097665825755830996263
0.010093763908014306493
0.010180611573992769114
0.010177152571744981294
0.010168631652273591934
0.010212800334385666035
0.010463038356691786376
0.010701810314299018204
0.010741339404185234682
0.010685854907281876203
0.010452326412917765583
0.010306471040833122682
0.010291392415590074408
0.010341906438105681609
0.010551805660410192717
0.01076828556326112421
0.010913273746225117533
0.011023905815243499953
0.011110852405467346385
0.011165656718087516031
0.011187032931005735578
0.011187410669850626418
0.011165480464028848528
0.011074458413180686411
0.010990786489192907321
0.010958123050221877173
0.010953444131203299641
0.01096242186818583049
0.011016956903151707559
0.011159740981265757476
0.011266906036931109356
0.011323047015373724142
0.011352896531002078587
0.011391409946216011703
0.011477863373797390217
0.011658802609380231399
0.011855701107838713393
0.012029121850975791827
0.012168569423592498491
0.01228462649131657411
0.012396823226579178553
0.012517898180581119028
0.012651233822954046498
0.012788363149009806738
0.012919541387714937944
0.013039858698679138507
0.013152018305097958745
0.013263110255628724615
0.013384546189711835421
0.013525381619708329306
0.013686668354483786866
0.013861443884882898928
0.014037166394299131766
0.014202809355429040633
0.014349780640104824528
0.014476573925598491474
0.01458967390369738
0.014700421328899848303
0.014820096424518458197
0.014956200762175166086
0.015105588296240163998
0.01526472163468332692
0.015423208606516797606
0.015571617608698924001
0.015702303146051296845
0.015811959755877014189
0.015903716055042604188
0.015986573645042662095
0.01607540700657193386
0.016183596341225302967
0.016320580257608022917
0.016486014631105366107
0.016670300657405840578
0.016860551406025204441
0.017042590982250381548
0.017205235926408820463
0.017342844543057688717
0.017456320127446290497
0.017548170456359757363
0.017624084192873513965
0.017692340699395549264
0.017760390555332138812
0.01783686018623114114
0.017928625046046819252
0.018040105700894933094
0.018172822266218278259
0.018325823238049016028
0.01849292490798028557
0.018667532321111422744
0.018843651346586463846
0.019017360888762963045
0.01918370709221698181
0.01933782444269374623
0.019476317066682208301
0.019598153714209316789
0.01970091959192395506
0.019783677842426388577
0.019848386487112949783
0.019895372509637201941
0.01992726369529816341
0.019946999528498741278
0.019959323924373148507
0.019966184500408486885
0.019969058626516083405
0.019970054247951354864
0.019968497107865093576
0.019024076731796756012
0.019004579348886583429
0.01898471960791734206
0.018964921025079784639
0.018945546776185238219
0.018926447275041290846
0.018907253907069574567
0.01888808156780564726
0.018869237401954060823
0.018850648828059899526
0.018831630847061311962
0.018811583385736012353
0.018790285518636914985
0.018768167968635934145
0.018745785970796426806
0.01872394675506553266
0.018702877687766131937
0.018682841323236509118
0.018663341376395494592
0.018644238172102957363
0.018624694485356620144
0.018604995074045952569
0.018585194582539786567
0.018566480983747461753
0.018548449774138185686
0.018531033433917307174
0.018512893203333834896
0.018494295924480787935
0.018474617236350080601
0.018454570779167303596
0.018433810258170001128
0.018413672209216996878
0.018394057064675367608
0.018375813620185078162
0.018357620900559319665
0.018339711019156448857
0.018320785662513546649
0.018301676759863747673
0.018281405473719539861
0.018261078574844446382
0.018239963400065419691
0.018219351413400503015
0.018198443807935362621
0.018178331924698504229
0.018157971283503111792
0.018138786294289190731
0.018119820420708435127
0.018102366778880555481
0.018084634326618380384
0.018067341926869075197
0.01804832911786282898
0.018028795982972783268
0.01800721961330642093
0.017985648285081399372
0.017962876260729735561
0.017941014815186451248
0.01791858409771892105
0.017897677414938365642
0.017876627203548430683
0.017857061647339612931
0.017836452790287539438
0.017816229569522057385
0.017794582940711109464
0.017774072948307857722
0.017753106210268855547
0.017733619179710013308
0.017713320462832214675
0.017694318528360279685
0.01767454320032892795
0.017655916815463568864
0.017635770268667638749
0.017616066893971351476
0.017594769555354064505
0.017574749017797611228
0.017553944082567902313
0.017534986061099471638
0.017515200270512773506
0.017496940450631999486
0.017477252278993375689
0.017458312947554146394
0.017437309329357802978
0.017417072328197554659
0.017395166192489430745
0.017374688572867714315
0.017352873658676926799
0.017332621495575857573
0.017311038090208893253
0.017290931188734464524
0.017269255374152598509
0.017249072154284603164
0.01722762924441370927
0.017208288087732382526
0.017187970189443544516
0.017169381775848861771
0.017149177085053746855
0.017130371297314643531
0.017110117433965579825
0.017091689510834472132
0.017071724593800404607
0.017053407306351100331
0.01703328307171117148
0.01701485256219033293
0.016994283671843461725
0.01697467110811233526
0.016951970320855380692
0.016930250819397574952
0.016906452338718225975
0.016885413987722711071
0.016863778361180997711
0.016845482697632002678
0.016826130193314740857
0.016809052910585788737
0.016789609108247918051
0.016771686814802913568
0.016751198469524487128
0.016732440743302757352
0.0167112768096426903
0.016692065152155599606
0.016670791536406388833
0.016651927872859149937
0.016631458731523465072
0.016613381234393199276
0.016593448573414184416
0.016575609498732067626
0.016555815143008311557
0.01653815234764801842
0.016518959742343040931
0.016501962987723436255
0.016483298126885946588
0.016466112069990518352
0.016446437568888958025
0.016427895081845809294
0.016407229984108651077
0.016388613531672091561
0.016368767792866160959
0.016351544710833148394
0.016332997738634592866