/*--------------------------------*- C++ -*----------------------------------*\
  =========                 |
  \\      /  F ield         | OpenFOAM: The Open Source CFD Toolbox
   \\    /   O peration     | Website:  https://openfoam.org
    \\  /    A nd           | Version:  12
     \\/     M anipulation  |
\*---------------------------------------------------------------------------*/
FoamFile
{
    format      ascii;
    class       volScalarField;
    location    "0.00515";
    object      p;
}
// * * * * * * * * * * * * * * * * * * * * * * * * * * * * * * * * * * * * * //

dimensions      [1 -1 -2 0 0 0 0];

internalField   nonuniform List<scalar> 
75962
(
98423.502476144538377
98395.677593113825424
98450.864995967858704
98424.09266623329313
98480.089914933196269
98513.706013065268053
98503.206410424929345
98436.190869599668076
98434.742833318174235
98543.079620897595305
98625.93847752957663
98581.802501777245197
98464.564658115428756
98415.473738086671801
98459.835407181511982
98499.942697156468057
98495.926884490647353
98500.389840944902971
98544.339156950794859
98601.873661829667981
98628.330345010501333
98632.635582060669549
98629.399132739621564
98594.484163221524796
98527.328426918946207
98478.950883469849941
98490.450631205560057
98539.647363486146787
98567.220341025735252
98556.26231385571009
98546.652995465774438
98566.785229819783126
98589.680810017045587
98579.773283243746846
98550.84634959147661
98548.950758648541523
98576.368161064718151
98608.530003811261849
98622.859942172843148
98606.072720358904917
98568.629935913399095
98540.295877060547355
98545.306633124971995
98575.794674269200186
98597.521031030541053
98601.942759271987597
98601.053333913398092
98593.872632291182526
98578.581995093889418
98561.335188615194056
98545.906064276699908
98524.395328801154392
98502.938186567844241
98495.587698075003573
98504.324679694924271
98505.891861084615812
98483.579506364461849
98457.439982594150933
98445.810429735123762
98435.342813053910504
98405.130798545666039
98360.468819856178015
98329.222281253911206
98318.950533599010669
98319.987319229898276
98331.695602604217129
98354.948292811561259
98378.183415510517079
98384.35068904417858
98378.85523292554717
98391.330372348544188
98434.754762710159412
98487.205910535776638
98515.440843680684338
98507.145346679841168
98483.976100096784648
98473.453831260165316
98485.077064657729352
98496.573639535563416
98483.853524574675248
98448.73025384140783
98415.595377553370781
98404.737634669596446
98411.506257386383368
98411.956521045969566
98390.623501251320704
98360.787159424929996
98347.885894611594267
98363.966012267570477
98398.179516694464837
98428.99434540560469
98442.607424975023605
98436.953921720283688
98413.746471706384909
98378.020905815676088
98341.511447796205175
98319.929617727582809
98321.092051922125393
98338.993359121523099
98358.093857332685729
98370.449563393587596
98379.860098451012163
98396.871664082747884
98426.293384529039031
98463.229374922259012
98501.086261044431012
98537.653911503890413
98570.668446035502711
98593.004319208950619
98592.004003704510978
98564.956706448472687
98524.001888396262075
98488.738496124409721
98470.395285379490815
98464.584053176440648
98459.527129397916724
98449.95937744458206
98442.355316977482289
98446.09868332631595
98462.635164310049731
98483.087161774834385
98494.356432251763181
98488.583073799265549
98468.751785196611308
98446.392289524592343
98433.415145873834263
98433.065884007504792
98437.942685453468584
98437.29256468078529
98427.313124545689789
98415.505212759715505
98414.097745105696958
98428.424800660955952
98451.242389456514502
98468.207766759311198
98470.021499960726942
98458.215309161911136
98442.392040598249878
98432.590835322975181
98433.065010130871087
98442.156597227294696
98455.486958461347967
98468.037132202996872
98474.986590056403656
98473.8485962577397
98465.892921741819009
98455.25581240079191
98447.116455886527547
98445.694373801350594
98452.015138667644351
98463.386635645278147
98475.513020498736296
98486.611742936685914
98498.959960280320956
98516.429300747331581
98539.491841221155482
98562.770499686477706
98578.064938641458866
98580.496306438610191
98572.046697048805072
98560.177006799916853
98553.591462889235117
98556.637124635875807
98568.84853594697779
98587.042335771548096
98608.742530558287399
98634.084734893447603
98664.332256515641348
98698.438957836769987
98731.563717653756612
98757.574036040823557
98772.53516694404243
98776.966828041782719
98775.337774546162109
98774.050877908375696
98777.921719938123715
98788.274816845587338
98802.851246585749323
98816.961974534453475
98824.569410238429555
98820.548330184348742
98803.782389341766248
98778.697656394942896
98753.99226832689601
98738.766561936892685
98737.829579832570744
98749.131630918956944
98764.90911707849591
98589.834072499885224
98580.663481070107082
98573.836273065389832
98571.285999222804094
98572.896451696040458
98577.602381763877929
98584.869491258039488
98594.716200325681712
98606.271690046647564
98616.280560041894205
98619.46562871572678
98611.403865978878457
98591.964195280117565
98566.419733871516655
98543.069807313295314
98528.964530290351831
98526.551386901948717
98532.991488982006558
98542.402765304330387
98549.937014443290536
98554.818195657571778
98560.122547676117392
98569.969079602582497
98586.316144052703748
98607.42857896615169
98628.726837426918792
98645.215960015295423
98654.066299967947998
98655.537960788453347
98652.275910688447766
98647.635988978188834
98644.2367371947621
98643.278100993236876
98644.672029809837113
98647.503506328430376
98650.865225771485711
98654.36676474113483
98658.287087272954523
98663.467150938129635
98671.13633638653846
98682.483788786965306
98698.185399536945624
98718.538236718755797
98742.876558502408443
98770.077199939638376
98798.744705606412026
98827.440851852341439
98854.517016162804794
98877.97686356822669
98895.287756743127829
98903.933288073807489
98902.568687690407387
98892.179738543869462
98876.158120447566034
98859.31896921817679
98846.202275229647057
98839.170562016588519
98837.701834371720906
98839.363189797149971
98840.58442439782084
98839.021449531646795
98834.424381942255422
98828.32922410631727
98822.960575815392076
98820.088201250648126
98820.398457052287995
98823.280167595061357
98827.096180645457935
98829.882139361230657
98830.268329105150769
98828.163208925776416
98825.052428792085266
98823.545417829504004
98826.413592091077589
98835.350821119223838
98849.934526514538447
98867.350685367113329
98883.363497867263504
98894.100993864441989
98897.547330788278487
98894.122828657680657
98886.085107276987401
98876.071483233579784
98865.633961978674051
98854.74214871469303
98842.372251153123216
98827.732047016703291
98811.345991342750494
98795.188827590303845
98781.751422934656148
98772.759177105384879
98768.19955454619776
98766.361944616452092
98764.856267580558779
98762.023120054771425
98757.791330386316986
98753.489976057055173
98750.757584141654661
98750.269490937746014
98750.919298384047579
98749.955999687721487
98743.941390878200764
98730.165308411829756
98707.839635738098877
98678.604977820141357
98645.994869404559722
98614.236521703263861
98586.903330164204817
98565.950858011914534
98551.438068976349314
98541.83425616940076
98534.785699406522326
98528.026854534458835
98520.065248870101641
98510.48306007629435
98499.751428489384125
98488.809035901576863
98478.618032241123728
98469.907277311125654
98463.110856637082179
98458.440210140863201
98456.022104209347162
98455.932353674666956
98458.125864649482537
98462.347197018854786
98467.974483828060329
98473.945308164766175
98478.866618271218613
98481.324234401254216
98480.255511214214494
98475.189083905468578
98466.332857396730105
98454.498887928741169
98440.91869519049942
98427.155631606583484
98414.839094327908242
98405.316282675266848
98399.335393159810337
98396.957964029628783
98397.481762355804676
98399.636129051403259
98401.893485620559659
98402.789664643976721
98401.164000105185551
98396.45294243429089
98388.931301104239537
98379.699210454782587
98370.412295878137229
98362.855996427417267
98358.527469068547362
98358.228832996072015
98362.050222800928168
98369.437341348646441
98379.351495810115011
98390.40824813398649
98401.192374057995039
98410.533001230389345
98417.586040590060293
98421.709133958182065
98422.561536784720374
98420.055462453470682
98414.53689185436815
98406.975060382741503
98398.868956572754541
98391.945984460267937
98387.77577272139024
98387.274332427812624
98390.472004485724028
98396.698546673957026
98404.704325932500069
98412.870119236249593
98419.697859917127062
98424.404412366697215
98427.114271352198557
98428.629657746569137
98430.029748716566246
98432.250865155016072
98435.834436973120319
98440.779496555318474
98446.771986116393236
98453.505338770890376
98460.917798407637747
98469.265506788535276
98478.901311498819268
98489.91563039025641
98501.912554817638011
98513.941951214277651
98524.613691373131587
98532.494497224834049
98536.635573589970591
98536.932863316804287
98534.233735365603934
98530.268886760910391
98527.376075253967429
98527.931237734548631
98533.729484431270976
98545.491307292570127
98562.609927182173124
98583.239351228708983
98604.685813507763669
98624.13271321519278
98639.271533229897614
98648.838196269309265
98652.824756346686627
98652.147824116837
98648.199178360213409
98642.470703876286279
98636.179712376775569
98630.060435219085775
98624.394416362410993
98619.195666274768882
98614.577499150764197
98610.934570957208052
98608.965591229847632
98609.541824098007055
98613.443491361002089
98621.114061066022259
98632.385104467626661
98646.331895156414248
98661.459773924332694
98676.133357467522728
98689.006416807998903
98699.338181518513011
98707.142612804760574
98713.04138582352607
98717.976678267121315
98722.773699820303591
98727.848382687632693
98733.110890761119663
98738.066956957874936
98742.133300388013595
98744.95262117596576
98746.480897645044024
98747.152086017667898
98747.785081755399005
98749.296820802541333
98752.317757262964733
98756.973162737747771
98762.714807705997373
98768.356199280635337
98772.414771237657988
98773.508268405625131
98770.84774958541675
98764.44105961859168
98755.057408637891058
98744.038545084345969
98732.907577394536929
98723.211423335102154
98716.241531435487559
98712.821752977615688
98713.237843173323199
98717.340263059610152
98724.596408813929884
98734.22455776744755
98477.469967792363605
98558.462823495021439
98418.428025808316306
98400.687445133429719
98578.073498817699146
98702.62593957837089
98696.276921178025077
98534.059802550997119
98454.306674975770875
98547.658072768652346
98614.664250089714187
98603.617626397113781
98575.107978886444471
98561.081292969291098
98547.019086140717263
98518.583791721015587
98487.716428774350788
98487.159724200784694
98520.832076767779654
98574.749668452044716
98621.51501460756117
98647.047672652581241
98650.002353056639549
98614.431694353712373
98544.495078744672355
98497.592168528164621
98510.032713853084715
98548.862888647141517
98554.683432605932467
98529.530612935413956
98528.464298909850186
98567.48590214876458
98595.04173268667364
98575.907824342721142
98545.189452162303496
98550.513002535197302
98587.951676102995407
98625.248382223784574
98634.426828523239237
98604.57289368059719
98542.054012972352211
98495.545572713905131
98498.175003899101284
98531.028702781928587
98559.703388327980065
98583.621242089939187
98607.989247433055425
98610.034204294788651
98577.394507458855514
98535.700431761229993
98517.449199834169121
98519.880872917856323
98525.303043184641865
98529.641010781459045
98534.375265359238256
98521.955358189821709
98484.852110446212464
98449.542848034150666
98434.672936384027707
98423.324096031996305
98391.212146621692227
98349.170950103522046
98322.470429054636043
98318.385340110384277
98332.687891886220314
98364.035913653104217
98405.181696569095948
98432.482963465285138
98433.654474668874172
98423.697886981040938
98436.268516944372095
98480.078439292919938
98531.359717692976119
98547.546967901478638
98516.416669318583445
98463.542768049330334
98427.310327811719617
98427.475213332683779
98447.5657501675596
98454.14593324137968
98430.864088738788269
98395.714705513993977
98377.597214982684818
98383.848803775894339
98395.965774858996156
98393.654867032921175
98379.721397407862241
98373.028340854405542
98385.329050261469092
98411.929228529508691
98438.167628227238311
98451.550746115099173
98444.38474418570695
98415.512623918824829
98372.593496128087281
98334.426124794903444
98318.768280585427419
98329.155219728592783
98353.688487737847026
98374.653005856845994
98382.352557183752651
98381.969356919027632
98387.926100227428833
98410.51190611255879
98448.751420496802893
98492.70184892929683
98534.359558677577297
98568.904896104242653
98591.065309636484017
98591.685373121363227
98567.120741993450793
98526.914586149869137
98489.147724486945663
98467.797868465626379
98461.647791645576945
98460.525128141540335
98456.867838854741422
98452.163975411152933
98452.714313147458597
98460.241905525515904
98468.916813447445747
98469.274914717170759
98455.41463821392972
98430.423794030910358
98405.360846116978792
98392.169558366906131
98394.923938027393888
98405.838321562318015
98411.971265246669645
98406.254629632763681
98392.994278631842462
98382.751798421726562
98382.593121951969806
98390.808821778191486
98400.348856020369567
98406.488270075453329
98409.892922177547007
98413.817684699548408
98421.153717415087158
98432.658958992833504
98446.757372105435934
98459.819922016715282
98467.143427462578984
98465.192977458194946
98453.978257988070254
98438.279154419331462
98424.559013407881139
98417.21568993240362
98417.827005307350191
98425.843546262665768
98439.126577874427312
98455.060434257611632
98472.388649618253112
98491.718679267156404
98513.600135852480889
98535.360131651104894
98550.105090092867613
98550.594314004250919
98535.234125817165477
98511.299194758961676
98491.946269772321102
98488.127162020464311
98503.199278113461332
98531.628611068052123
98563.499048249388579
98591.769452653563349
98616.207619392022025
98640.814098830436706
98667.87560321429919
98694.416873181646224
98714.224208235216793
98723.431874295609305
98724.220078037324129
98723.653770281540346
98729.178965245999279
98744.245158147503389
98767.071158232400194
98792.247201076272177
98812.979326328219031
98822.940909521072172
98817.885608320488245
98798.430550082091941
98770.93559972156072
98745.80609243393701
98732.564830655232072
98735.106339627745911
98749.589543488720665
98766.510692594500142
98777.064597206597682
98606.681972868173034
98598.493220502568875
98589.950627009107848
98583.41650385230605
98580.298701014748076
98580.488576658914099
98583.293746659357566
98588.777027502132114
98597.437515404439182
98608.585044256746187
98618.95374834179529
98623.320173923755647
98617.446745672204997
98601.23561838074238
98579.642269230855163
98560.337422603042796
98549.538354708784027
98548.734616751520662
98554.441299083075137
98561.040670555259567
98564.563042263151146
98565.160047963887337
98566.82028232801531
98574.460110554515268
98590.408947244897718
98612.545230966774398
98635.201108777226182
98652.213671167817665
98659.933391933707753
98658.852022570703411
98652.949171552740154
98647.515257510487572
98646.81622504889674
98652.34719758866413
98662.826105961605208
98675.251489321453846
98686.441172759223264
98694.544646926020505
98699.556772266587359
98703.044216190406587
98707.097891598037677
98713.977907218024484
98725.060482370565296
98741.039431696932297
98761.810397685374483
98786.375534528691787
98813.400769504951313
98841.35609856377414
98868.239363341548597
98891.370561557385372
98907.677656263258541
98914.537251427551382
98911.003903938879375
98898.603062271926319
98881.159308906921069
98863.502273108955706
98849.721239324877388
98841.696163145912578
98838.614218138973229
98837.794068279778003
98836.288879947867827
98832.405443924610154
98826.3603909482772
98819.849645682988921
98815.055163253797218
98813.573587594495621
98815.790334761564736
98820.726369301584782
98826.390820435495698
98830.5403582083527
98831.690305327734677
98829.757955818684422
98826.252362574799918
98823.812443355069263
98825.154045939038042
98831.850046750521869
98843.44747015152825
98857.415627031368786
98869.999196236458374
98877.87103997466329
98879.416566545827664
98875.087157980859047
98866.636294276773697
98855.922584937943611
98843.81232878708397
98830.054889045728487
98814.021455040143337
98795.841841262910748
98777.040358974365517
98760.216876621256233
98747.800441194922314
98740.762754553521518
98737.990305195009569
98736.86519666579261
98734.744070577828097
98730.492174542872817
98724.964677224241314
98720.311493297369452
98718.424942152996664
98719.54896324602305
98721.650445767183555
98721.052114485995844
98713.923082934255945
98697.872030831989832
98672.973042735728086
98641.875058722376707
98608.925640119690797
98578.745618614280829
98554.856290058640298
98538.743895624720608
98529.665866060415283
98525.188795496695093
98522.196717115934007
98518.016896582834306
98511.15055975249561
98501.514588227422792
98490.127020726300543
98478.430731857210048
98467.663858510844875
98458.49594671036175
98451.064312486851122
98445.21809716282587
98440.922123915865086
98438.457884716321132
98438.310933489061426
98440.897456393431639
98446.134089324186789
98453.194245936640073
98460.588283739300095
98466.438116145887761
98469.086982662396622
98467.566561117302626
98461.813846594042843
98452.604250390839297
98441.278236364058102
98429.348072173612309
98418.202609024738194
98408.885446300322656
98401.797909923872794
98396.856025809494895
98393.601269002712797
98391.368767066436703
98389.355588495149277
98386.873849805342616
98383.33932557796652
98378.405891924136085
98372.217851380846696
98365.518570302214357
98359.450778006299515
98355.254132628455409
98354.011721129310899
98356.236353700369364
98361.771259686473059
98369.897316961039905
98379.554879341420019
98389.55198133396334
98398.779224193887785
98406.313040147681022
98411.547937791852746
98414.103732366405893
98413.750499212794239
98410.515618398741935
98404.738292953683413
98397.361426163144642
98389.840136981438263
98383.93058023697813
98381.227199803324766
98382.703773249304504
98388.265628894689144
98396.826674219424604
98406.845804837677861
98416.591651655806345
98424.484160034538945
98429.581822702442878
98431.903053576912498
98432.289333655513474
98431.913517803928698
98431.853870229402673
98432.768298119175597
98434.844478758197511
98437.96228552320099
98442.006343761400785
98447.105123790184734
98453.695227815755061
98462.307332047843374
98473.205719556703116
98486.066089254556573
98499.996791473327903
98513.55484626913676
98525.131330707590678
98533.420012419577688
98537.915154808113584
98539.114710914538591
98538.433958748559235
98537.951089203299489
98539.933669662437751
98546.218044240551535
98557.688812499967753
98573.994300378428306
98593.558184966095723
98613.851594373365515
98632.127776863286272
98646.160886825018679
98654.726440240847296
98657.828035155078396
98656.547196550411172
98652.535519153869245
98647.468472253080108
98642.609294115100056
98638.639724114807905
98635.679698960520909
98633.550113684512326
98632.089237008520286
98631.376253943395568
98631.826780456904089
98634.097914055615547
98638.866872563536162
98646.508934384779423
98656.895386944452184
98669.446148612129036
98683.230131159027223
98697.228179238256416
98710.627923688414739
98722.970231925894041
98734.202034432353685
98744.56699987713364
98754.362459347306867
98763.678153919783654
98772.242272305447841
98779.474894326733192
98784.750747256766772
98787.749889349433943
98788.61401748690696
98787.945099078016938
98786.697760928756907
98785.903481323708547
98786.366548743608291
98788.434406771528302
98791.846675980559667
98795.7287931960891
98798.909364012666629
98800.201939091901295
98798.673250655774609
98793.931674802370253
98786.248013952354086
98776.483448069717269
98765.860439382769982
98755.670154092469602
98747.050624787676497
98740.860891482487204
98737.632759212647215
98737.665935308672488
98740.994224631722318
98747.404533384906244
98756.426825015631039
98436.40876008644409
98616.895411766628968
98464.265708451275714
98319.59830403244996
98443.615636267073569
98735.459620681693195
98818.786023569075041
98634.827656327615841
98521.460110567655647
98560.372912663238822
98558.669546442630235
98563.080471235705772
98648.797155699969153
98702.554155034842552
98657.367578712044633
98584.877223703617346
98540.980413734330796
98508.853052182224928
98501.404617558291648
98539.950564936414594
98603.990182496374473
98647.114870918550878
98645.821618188274442
98597.393041366914986
98534.884817559708608
98508.002494893866242
98524.564241490748827
98543.293970110738883
98540.183492782904068
98538.663118216660223
98567.048018248460721
98605.009143272953224
98609.327105258518714
98574.772104298011982
98537.722380218503531
98528.60319442920445
98560.052347424192703
98603.210314499519882
98609.861496907062246
98559.154821198389982
98490.037693853781093
98459.405598246186855
98483.756447741165175
98527.553606674831826
98559.721970803089789
98585.566359869670123
98609.474784668986103
98609.331938459043158
98573.771329351788154
98532.14874034334207
98519.57792973787582
98532.98492975672707
98545.811230133331264
98546.690110810755868
98537.559136177951586
98512.849372365730233
98474.692289292725036
98440.759760953500518
98421.375389841516153
98409.76902236614842
98394.897409474913729
98378.228492484602612
98368.664543581850012
98371.521598251187243
98389.921646434027934
98424.318041298771277
98463.158762500781449
98484.217519207086298
98482.661927218010533
98478.711223127000267
98494.098109743266832
98530.21182823619165
98555.632475638427422
98542.560747409850592
98487.915150150132831
98417.045055672366288
98372.545749724755296
98375.685991786274826
98408.544483965219115
98428.463710457610432
98410.555602027088753
98372.125828694130178
98349.091136703675147
98358.600187049814849
98386.075335574016208
98406.605268388448167
98410.727399224837427
98408.900415230804356
98413.033190740607097
98423.462913002193091
98435.561879780434538
98439.792885566144832
98425.642704571597278
98394.044001221627695
98358.2040770665335
98335.932564813803765
98335.726395219637197
98353.144533828904969
98376.437556162272813
98393.57055978057906
98398.158380351873348
98394.1925245297316
98392.946099320950452
98408.270275211398257
98441.317768117121886
98483.593779515111237
98521.544200425181771
98551.811548508339911
98570.805976768679102
98574.487568373646354
98555.542741097233375
98520.112349215953145
98484.853609763915301
98464.436904858492198
98461.30989028608019
98466.716493112820899
98470.250107933636173
98469.022298680225504
98465.888345851970371
98462.868634357771953
98457.477256329584634
98444.761051293695346
98422.269903411710402
98393.734221264458029
98368.747331045320607
98357.332826700076112
98362.537537773532677
98377.30230028857477
98389.054652903476381
98388.586618939079926
98375.869817693092045
98359.072041372346575
98347.177449513881584
98343.3121674185968
98345.982520975434454
98353.413264395188889
98365.75306631399144
98383.36166106298333
98404.410148633338395
98425.719421529531246
98443.668935160705587
98454.254172238433966
98453.474643518085941
98440.409233981612488
98419.743215376671287
98399.737277605949203
98387.592519267520402
98385.628298934767372
98391.855751288065221
98403.512374649886624
98419.185233614145545
98438.694392123186844
98461.902388160699047
98487.507557806951809
98512.007950306433486
98528.985442579869414
98530.630595200433163
98512.615460837580031
98479.027825898418087
98442.600418604386505
98419.619873355768505
98422.241547450466896
98451.351746152082342
98495.706831970208441
98539.884207280934788
98573.712720508920029
98596.856517532651196
98615.442869531878387
98634.168632911751047
98651.721797811158467
98663.046054117192398
98665.999812456619111
98665.027181449404452
98668.66211860004114
98683.439560067825369
98710.007283181679668
98743.257283917919267
98775.218504734802991
98798.296427169902017
98807.358356212818762
98800.515719401810202
98780.100333031776245
98753.201893740610103
98729.856560211454052
98718.832693073971313
98723.244232554017799
98738.721553687137202
98756.100384226214373
98766.853509677981492
98609.833924534294056
98601.996453982239473
98594.919745346167474
98590.339646766864462
98588.742334848066093
98589.50037495570723
98591.972265347911161
98596.471297094030888
98603.703491306732758
98613.162127705858438
98622.034633624934941
98625.95155277872982
98621.496928128341096
98608.678497380067711
98591.591047669222462
98576.511144408243126
98568.45579301789985
98568.468903097629664
98573.35025874596613
98578.083106218517059
98579.433488593247603
98578.025187841354636
98577.876844282189268
98583.786333850352094
98598.123370370551129
98618.907878850470297
98640.522020423522918
98656.596672321218648
98663.176362920727115
98660.77570133296831
98654.127132156980224
98649.828871292455005
98653.119654866939527
98665.663846250201459
98685.15002183431352
98706.636851901726914
98725.029195353345131
98737.231225796145736
98743.00080366183829
98744.425923305941978
98744.749373002632638
98746.365506716072559
98751.637866307777585
98761.037799018027727
98774.539462332075345
98792.470158951313351
98814.629699330180301
98839.78496133054432
98865.430661157588474
98888.00103221090103
98903.760740423706011
98910.080613011596142
98906.47892697264615
98895.038375064381398
98879.729183562478283
98864.876472936346545
98853.545977176952874
98846.580255441978807
98842.607658251959947
98839.130196867670747
98834.084457799646771
98826.867294109018985
98818.501773909141775
98811.017720871808706
98806.537311900610803
98806.377370403919485
98810.439351585679105
98817.235857802341343
98824.405972887790995
98829.517910956506967
98830.99950028450985
98828.789180026346003
98824.419740266137524
98820.497016561464989
98819.613913072651485
98823.275034703648998
98831.148544519062852
98841.143590032166685
98850.21244655715418
98855.669686311259284
98856.189187618889264
98852.029786786137265
98844.268514324154239
98833.823859033087501
98820.829071139116422
98804.833934725800646
98785.656860269722529
98764.347588039963739
98743.397250494948821
98725.953091362243867
98714.336195764291915
98708.815104875931866
98707.416472513024928
98706.900633940487751
98704.485391495225485
98699.348052962028305
98692.913444740770501
98687.727049338893266
98685.71906677527295
98686.785913831525249
98688.395903569311486
98686.528723851733957
98677.456734001258155
98659.43227737894631
98633.441722457951983
98602.89517513057217
98572.471729792290716
98546.601664372166852
98528.189819560459
98517.857105167917325
98513.958694545450271
98513.359890797597473
98512.625525487732375
98509.25061608334363
98502.352518478990532
98492.563799153227592
98481.429986389150145
98470.512478501652367
98460.770730677686515
98452.35288032743847
98444.841180404473562
98437.782809917640407
98431.200015174603323
98425.814546151435934
98422.780369079759112
98423.169897516985657
98427.420202012493974
98434.977137755951844
98444.282540207859711
98453.127181626055972
98459.288263577516773
98461.272405870098737
98458.685465747083072
98452.102877560915658
98442.837932373411604
98432.337109218802652
98421.858770459031803
98412.311420130223269
98404.125632853712887
98397.326896162849152
98391.722231030667899
98386.981383460457437
98382.650323476904305
98378.276430478028487
98373.55095308937598
98368.267039150581695
98362.603780565594207
98357.170305995969102
98352.991536933419411
98351.103693966128048
98352.315988456801279
98356.891228638254688
98364.354084082428017
98373.610953618990607
98383.338603236203198
98392.352211437944788
98399.764408950999496
98405.04768872736895
98408.002815660292981
98408.674935571107198
98407.176371370951529
98403.705581036527292
98398.636244593988522
98392.69605582296208
98387.037343107251218
98383.098371960615623
98382.270172967153485
98385.45451729632623
98392.628507222718326
98402.695539325635764
98413.93492962475284
98424.543782978769741
98432.988701445196057
98438.234671302940114
98440.038865981579875
98439.022292028443189
98436.368583284231136
98433.347890476230532
98430.964081185680698
98429.78053291636752
98430.021339246930438
98431.749938980632578
98435.108935251584626
98440.415225015894976
98448.111119915178278
98458.56127229318372
98471.647330751307891
98486.644592661497882
98502.333790830205544
98517.178984443118679
98529.716482756964979
98538.98828353578574
98544.871422335170791
98548.224676777652348
98550.638318606317625
98554.020776699035196
98560.118256933958037
98570.033732253563358
98583.800672932164161
98600.357614893713617
98617.758776087182923
98633.665062783678877
98646.05108985066181
98653.808835272138822
98656.939047883803141
98656.462495307103381
98653.969645614066394
98651.06776184134651
98648.956129161655554
98648.207792431581765
98648.807311049764394
98650.328407579378108
98652.320324211294064
98654.636713646206772
98657.493090656353161
98661.319622442955733
98666.574222435709089
98673.548638269145158
98682.22805939130194
98692.350109664621414
98703.562073248554952
98715.547648766354541
98728.167572113743518
98741.406629676901503
98755.288692983740475
98769.710254406949389
98784.298556429377641
98798.307348583810381
98810.734220104684937
98820.565401766754803
98827.086156523568206
98830.168117991182953
98830.377441720716888
98828.776408228688524
98826.652307747237501
98825.115391832965543
98824.817457545068464
98825.788869561540196
98827.465582145799999
98828.854112562024966
98828.924275621931884
98826.905640148601378
98822.535822182195261
98816.067814409936545
98808.128433911682805
98799.495293247106019
98790.993525107740425
98783.328953869451652
98777.066995631117607
98772.528731886966852
98769.878100766436546
98769.35491326279589
98771.236161092543625
98775.559809762256918
98782.158441559047787
98790.646958991172141
98397.804677401174558
98665.299905383231817
98601.198475914643495
98497.603130178860738
98498.633169852750143
98627.201459801188321
98723.347272518833051
98644.067824652433046