/*--------------------------------*- C++ -*----------------------------------*\
  =========                 |
  \\      /  F ield         | OpenFOAM: The Open Source CFD Toolbox
   \\    /   O peration     | Website:  https://openfoam.org
    \\  /    A nd           | Version:  12
     \\/     M anipulation  |
\*---------------------------------------------------------------------------*/
FoamFile
{
    format      ascii;
    class       volScalarField;
    location    "0.00515";
    object      pMean;
}
// * * * * * * * * * * * * * * * * * * * * * * * * * * * * * * * * * * * * * //

dimensions      [1 -1 -2 0 0 0 0];

internalField   nonuniform List<scalar> 
75962
(
98732.019634930678876
98732.279704246728215
98731.814139944530325
98731.502648697322002
98731.311619016356417
98731.013148767407984
98730.660366453623283
98730.328390083130216
98730.025175421702443
98729.665334498306038
98729.208951537424582
98728.720244707248639
98728.28648390181479
98727.915808319681673
98727.534954406422912
98727.115075528185116
98726.682566658040741
98726.24941568900249
98725.793703096496756
98725.295119888411136
98724.761145637719892
98724.211599520334858
98723.648638622136787
98723.083196633146144
98722.546499903517542
98722.049773405058659
98721.564610269546392
98721.057174395842594
98720.52556899919
98719.997538367169909
98719.492066202365095
98718.999285389028955
98718.507203009998193
98718.027290551035549
98717.575293298155884
98717.144631868606666
98716.71386319337762
98716.270619835602702
98715.819106233146158
98715.373603730244213
98714.950509586487897
98714.553205219272058
98714.165012198121985
98713.763011813978665
98713.340558753436198
98712.908095046775998
98712.475592075570603
98712.048494432790903
98711.634247499678168
98711.234916549859918
98710.845326048569405
98710.462679615826346
98710.089325069202459
98709.719848214765079
98709.343028541945387
98708.956646336824633
98708.57487894235237
98708.210083384154132
98707.855824542493792
98707.505184076100704
98707.164107082004193
98706.844931952102343
98706.548012984087109
98706.261716119348421
98705.978503714082763
98705.695063311737613
98705.405334845752805
98705.105421816318994
98704.803954693779815
98704.510141602630029
98704.22157316035009
98703.921728807399631
98703.598504898982355
98703.258102121530101
98702.923311035367078
98702.612281987327151
98702.321703026405885
98702.035237820091425
98701.741804323799442
98701.450059570503072
98701.177385098664672
98700.931773299744236
98700.70548511526431
98700.483458299917402
98700.260625820155838
98700.046426992790657
98699.852421294111991
98699.676576517478679
98699.504676221316913
98699.323180396138923
98699.128858963667881
98698.928424018566147
98698.731064211329794
98698.547046121486346
98698.383827626588754
98698.243817240872886
98698.122414014476817
98698.008166048108251
98697.889734052674612
98697.763349045068026
98697.633772038461757
98697.506246616947465
98697.380561258556554
98697.251580970114446
98697.114162924073753
98696.967059056842118
98696.810761407992686
98696.645468776579946
98696.473389788661734
98696.30374157994811
98696.151045548453112
98696.026489012190723
98695.930952387978323
98695.854933480892214
98695.786585538546205
98695.720124483210384
98695.656072760699317
98695.594800779290381
98695.531419647159055
98695.457744591709343
98695.367728503610124
98695.261880890102475
98695.147147576601128
98695.031794746901141
98694.919304676994216
98694.805971486523049
98694.684026827308116
98694.547564375956426
98694.396908951108344
98694.237742933459231
98694.074838300221018
98693.906556555011775
98693.725874876312446
98693.526972597770509
98693.311606253264472
98693.089042974563199
98692.870843878161395
98692.665082408377202
98692.473639694639132
98692.293535447839531
98692.120873796520755
98691.95337840243883
98691.791114173291135
98691.6360113198607
98691.491336630293517
98691.359843510013889
98691.242416793524171
98691.137747791537549
98691.042057218437549
98690.950294146488886
98690.858223484130576
98690.764375394413946
98690.669389560658601
98690.574202641888405
98690.478253190914984
98690.379385847249068
98690.276464299851796
98690.172312300273916
98690.073608660255559
98689.987169004816678
98689.916161715853377
98689.858976034694933
98689.810651048566797
98689.765781940717716
98689.720825204174616
98689.674201819536393
98689.624810511842952
98689.570883053835132
98689.510336268940591
98689.442455053678714
98689.369574089141679
98689.296820201227092
98689.229910810288857
98689.172574091469869
98689.125406805236707
98689.085870682552923
98689.049793500162195
98689.013725405573496
98688.976162260762067
98688.938182294630678
98688.903782357301679
98688.87928840816312
98688.870209826476639
98688.878456627993728
98688.901015047144028
98688.930972332105739
98688.960447331803152
98688.984209292990272
98690.316940137170604
98690.33670742715185
98690.357058090245118
98690.37667581041751
98690.39377891762706
98690.406797792616999
98690.414349533370114
98690.415087833884172
98690.40781578955648
98690.392353121889755
98690.370873545340146
98690.348411966013373
98690.331532756565139
98690.325536433680099
98690.332093980250647
98690.348716680426151
98690.37031593627762
98690.391666231444106
98690.409557806269731
98690.423534865127294
98690.434829956357135
98690.444301477255067
98690.451231690080022
98690.453528989630286
98690.448987885785755
98690.436926623093314
98690.418987996978103
98690.398466426340747
98690.378846355175483
98690.362600885186112
98690.350649377302034
98690.342519496407476
98690.336944342838251
98690.332667011432932
98690.329125104952254
98690.326512334519066
98690.325425797622302
98690.326403569735703
98690.329638207927928
98690.334761542093474
98690.340846219842206
98690.346507287962595
98690.350276213575853
98690.350791900636978
98690.346965916498448
98690.338029064238071
98690.323618907263153
98690.303995870854123
98690.280023647021153
98690.253308495754027
98690.226424557098653
98690.202782924519852
98690.185990690588369
98690.178842633409658
98690.182281293164124
98690.195051634727861
98690.214355101357796
98690.237182608820149
98690.261460678302683
98690.286583449953469
98690.31329191759869
98690.342862830424565
98690.376242935788468
98690.413622042819043
98690.454286740350653
98690.496918684875709
98690.540177514907555
98690.583332394176978
98690.626533723858302
98690.670747128053335
98690.717268654509098
98690.766968023497611
98690.819635242252843
98690.873695993926958
98690.926480393129168
98690.97489578081877
98691.01646965330292
98691.050344110451988
98691.077495949561126
98691.100187435396947
98691.12110470427433
98691.142492437720648
98691.165562866648543
98691.19072609928844
98691.218240783258807
98691.248843650770141
98691.283935133673367
98691.325039298957563
98691.372995200144942
98691.427477056073258
98691.487005911534652
98691.549554141485714
98691.613291075671441
98691.677167209156323
98691.740937152033439
98691.804598371469183
98691.867844272841467
98691.929760538652772
98691.988997091524652
98692.044356532569509
98692.095563526585465
98692.143779157559038
98692.191518969149911
98692.242057159703108
98692.298392796583357
98692.362339560742839
98692.434102830680786
98692.512422560874256
98692.59510894693085
98692.679685647992301
98692.764050197438337
98692.846897287308821
98692.927742056635907
98693.006658510741545
98693.083930359760416
98693.159771793565596
98693.234058881833334
98693.306342540236074
98693.376030932035064
98693.442542997261626
98693.505332123997505
98693.563883363633067
98693.617731951191672
98693.666422994720051
98693.709594967411249
98693.747137630984071
98693.779350979675655
98693.807009595650015
98693.831358386072679
98693.853964243156952
98693.876468294110964
98693.900408586778212
98693.927023278505658
98693.957094374971348
98693.99088831077097
98694.028143918680144
98694.068081297955359
98694.109507108441903
98694.150989801768446
98694.191199021413922
98694.229304237363976
98694.265147284604609
98694.29925508434826
98694.332675135636237
98694.366771193119348
98694.402965740315267
98694.442438358819345
98694.485890419469797
98694.533386814771802
98694.584304651143611
98694.637479290206102
98694.691466111806221
98694.744914295020862
98694.796844650860294
98694.8468362360436
98694.895016642534756
98694.941986127843847
98694.988624759964296
98695.035930618541897
98695.084883193485439
98695.13637124314846
98695.191209155818797
98695.250060337362811
98695.313372226577485
98695.38124334490567
98695.453350868745474
98695.529028564109467
98695.607494981377386
98695.687994066916872
98695.769918235600926
98695.852957261231495
98695.9371493991639
98696.022763603497879
98696.110101636440959
98696.199261664107325
98696.289987317024497
98696.38165049944655
98696.473389996986953
98696.564367787403171
98696.653974745917367
98696.741843667579815
98696.827749501579092
98696.911476135326666
98696.992631366985734
98697.070604993685265
98697.144793160798145
98697.214896906472859
98697.281197415199131
98697.344668744772207
98697.406840970696067
98697.469500322462409
98697.53429099956702
98697.602247660746798
98697.673501965691685
98697.747154274140485
98697.821448800095823
98697.894077083154116
98697.96269335852412
98698.025407825902221
98698.081215292404522
98698.130253645693301
98698.173750164161902
98698.213673164224019
98698.252286738905241
98698.291719687476871
98698.333634857146535
98698.379035385936731
98698.428295443329262
98698.481432285625488
98698.53844964626478
98698.59949700513971
98698.664866689461633
98698.734833183931187
98698.809469995234394
98698.888454921820085
98698.970991411915747
98699.055890367235406
98699.141836715352838
98699.227713256332208
98699.312844306667103
98699.397133499223855
98699.481114042253466
98699.56581902373
98699.652518950344529
98699.742381284857402
98699.836322445858968
98699.934981522892485
98700.038797593850177
98700.148123813676648
98700.263344526276342
98700.384927992723533
98700.513542517903261
98700.650046512353583
98700.795188414049335
98700.949396756623173
98701.11271353776101
98701.284901620470919
98701.465639355257736
98701.654811492364388
98701.852795704995515
98702.060607017861912
98702.279855136162951
98702.512513646724983
98702.760638381005265
98703.026117125133169
98703.310501181447762
98703.614833631960209
98703.939584023799398
98704.284806668802048
98704.650215979738277
98705.035304563862155
98705.439518279177719
98705.862378113422892
98706.303686510058469
98732.78474341405672
98732.722331904689781
98731.541017705370905
98731.429931143778958
98731.319695577738457
98730.948194231881644
98730.474898820073577
98730.071157008336741
98729.768717019673204
98729.424417284535593
98728.98347677050333
98728.521386812761193
98728.081422202114481
98727.657674826012226
98727.233038892489276
98726.811550819766126
98726.397280841469183
98725.986175127909519
98725.556509839880164
98725.084900752553949
98724.569719382867333
98724.020883843491902
98723.452214512828505
98722.882044734928058
98722.340448070885031
98721.834230477121309
98721.335566851863405
98720.814974045468261
98720.27819451718824
98719.754335615958553
98719.249807638581842
98718.746169524703873
98718.23652295753709
98717.745801665223553
98717.293794470810099
98716.86274297098862
98716.42409728243365
98715.960915150193614
98715.486887420032872
98715.023394885458401
98714.595200278650736
98714.206269809219521
98713.827186987444293
98713.427614998872741
98713.005972815866699
98712.573386094154557
98712.133110943104839
98711.688974709541071
98711.26015599272796
98710.86082095389429
98710.482455826815567
98710.108881726511754
98709.732391319615999
98709.35245725090499
98708.966321258907556
98708.577048557504895
98708.200001936667832
98707.845798715032288
98707.505809420486912
98707.169812333697337
98706.844301518227439
98706.539958152527106
98706.254987427513697
98705.980304121825611
98705.706633454508847
98705.426154398926883
98705.131441927747801
98704.821836922172224
98704.510748629632872
98704.211621567286784
98703.919157213109429
98703.615005905303406
98703.286164025616017
98702.941660783457337
98702.608719913623645
98702.309077040568809
98702.043854444826138
98701.792325905596954
98701.534566911592265
98701.269378856624826
98701.013586239583674
98700.782694960449589
98700.574641782615799
98700.373954740513
98700.170021005251328
98699.966804466952453
98699.774188964671339
98699.594335549860261
98699.419647159098531
98699.239707796601579
98699.051185177610023
98698.857687253097538
98698.667085564346053
98698.491352980709053
98698.339339318132261
98698.213283034856431
98698.104664923390374
98697.998607968867873
98697.883663417887874
98697.758450361172436
98697.630697187414626
98697.5079231007403
98697.392317062302027
98697.278256192745175
98697.157541523847613
98697.024861535057425
98696.879816221815418
98696.724316030784394
98696.562325143808266
98696.401886125575402
98696.255984480216284
98696.135742395257694
98696.043614241003525
98695.971509793627774
98695.907045338302851
98695.842082105518784
98695.774885901875678
98695.7058394284104
98695.632731643330771
98695.550388264004141
98695.454966714198235
98695.347511392392335
98695.233992640904034
98695.121383793477435
98695.012253784327186
98694.902071842938312
98694.781445872809854
98694.64260742366605
98694.485197336165584
98694.315635072300211
98694.141337902270607
98693.965036349836737
98693.784130416417611
98693.594959240304888
98693.397669594953186
98693.196477294361102
98692.996672322158702
98692.802007051664987
98692.613285499712219
98692.429496545839356
98692.24976733456424
98692.074156144328299
98691.904396069978247
98691.743978907325072
98691.597101685096277
98691.466277885745512
98691.350728108664043
98691.246699503491982
98691.149313568152138
98691.053727726088255
98690.956236509417067
98690.855024182586931
98690.749832703208085
98690.640843609173317
98690.527637412480544
98690.410003788492759
98690.290112289003446
98690.174316394390189
98690.071709503943566
98689.989314940263284
98689.928171152074356
98689.882465692411643
98689.84230143885361
98689.798598358654999
98689.747396630918956
98689.689937383547658
98689.628797944751568
98689.564986243785825
98689.497813466790831
98689.426771706421277
98689.354189518649946
98689.285521165293176
98689.226263676566305
98689.178551808101474
98689.140278373291949
98689.106381506266189
98689.071235482013435
98689.031522964680335
98688.987268244993174
98688.94170542556094
98688.900867230302538
98688.872203144375817
98688.861502314233803
98688.869936013696133
98688.89314480034227
98688.922942928635166
98688.950968084594933
98688.972664058936061
98688.988747878189315
98690.45401477762789
98690.473810713679995
98690.494045558283688
98690.514267563848989
98690.533339996196446
98690.54974780518387
98690.562201415596064
98690.569699900544947
98690.571028163627489
98690.56481934931071
98690.550604305652087
98690.530150131089613
98690.507980334587046
98690.49014507366519
98690.481608487913036
98690.483876819052966
98690.494580496131675
98690.509126372431638
98690.523062978812959
98690.5339749676059
98690.541982961542089
98690.548699003527872
98690.555228041310329
98690.560575143565075
98690.561881498637376
98690.556206121866126
98690.542488048624364
98690.522421096335165
98690.499877574140555
98690.479302920371993
98690.463967596559087
98690.454656794929178
98690.449669253561297
98690.446008189173881
98690.440964544075541
98690.433205822468153
98690.423113125565578
98690.412351565333665
98690.402917683430132
98690.39626126823714
98690.392814954058849
98690.391989503434161
98690.392525191942696
98690.392888509682962
98690.391433588054497
98690.38661447163031
98690.377237969907583
98690.362588937932742
98690.342486435212777
98690.3175548605941
98690.289524036532384
98690.261381943448214
98690.237072037882172
98690.220436722884187
98690.214034486489254
98690.218442550642067
98690.232323765550973
98690.253111936544883
98690.278133129162597
98690.305509880170575
98690.334668922048877
98690.366100447732606
98690.400682908453746
98690.438994076568633
98690.480776314230752
98690.52496321061335
98690.570104040612932
98690.61492504941998
98690.658745620661648
98690.701786248479038
98690.745116652469733
98690.790166071383283
98690.837977438379312
98690.888535939157009
98690.940519008188858
98690.991466739753378
98691.038536610547453
98691.079534811797203
98691.113686179451179
98691.141826233928441
98691.16594067508413
98691.188376773076016
98691.211111279291799
98691.235367743371171
98691.261915768991457
98691.291635285320808
98691.325817083343281
98691.365984079806367
98691.413371011833078
98691.468227162244148
98691.529525237565394
98691.595253956038505
98691.663122105033835
98691.731492186067044
98691.799832517659524
98691.868448934459593
98691.937717860913835
98692.007308992615435
98692.075950962302159
98692.141863662691321
98692.203636242993525
98692.26112657613703
98692.31586872774642
98692.370861572038848
98692.429639864247292
98692.495114962672233
98692.568667475090479
98692.649852229384123
98692.736685702257091
98692.826345461478923
98692.916001682795468
98693.003620895382483
98693.088395131882862
98693.170597392323543
98693.251129606665927
98693.33094527432695
98693.41054814850213
98693.48982942859584
98693.568167775971233
98693.644739958021091
98693.718798499714467
98693.78981194953667
98693.857483069907175
98693.921606745396275
98693.98193197773071
98694.038007907234714
98694.089243428898044
98694.135223185803625
98694.176014709330047
98694.212337292236043
98694.245463833809481
98694.277057333150879
98694.308868398104096
98694.342442280656542
98694.378836677278741
98694.418491649776115
98694.461257930699503
98694.50653176344349
98694.553376940064481
98694.600771116340184
98694.647808542853454
98694.693848765295115
98694.738735425125924
98694.782765333715361
98694.826617854996584
98694.871182946502813
98694.917330479438533
98694.965777203819016
98695.016921376183745
98695.070703630932258
98695.126531283662189
98695.183369910373585
98695.24001834608498
98695.295483072070056
98695.349265684533748
98695.40140729174891
98695.452396618027706
98695.503036150010303
98695.554259736076347
98695.606972123787273
98695.662024400240625
98695.720142237390974
98695.781914780105581
98695.84778588784684
98695.917980460391846
98695.992440614645602
98696.07074034588004
98696.152128590489156
98696.23567052189901
98696.320554742123932
98696.40634881760343
98696.493037670836202
98696.580957706537447
98696.670636596973054
98696.762601409849594
98696.857180469189188
98696.954341394361109
98697.053649802517612
98697.154427607107209
98697.255987360040308
98697.357816967749386
98697.459564394725021
98697.560904211743036
98697.661393389164004
98697.760388761933427
98697.857077326116269
98697.950624575707479
98698.040467703598551
98698.126614900364075
98698.209754118259298
98698.291161363726133
98698.37246036939905
98698.455294063256588
98698.540877611303586
98698.629588491661707
98698.720844687763019
98698.813227469334379
98698.904801448399667
98698.993470547022298
98699.077446985917049
98699.155712709631189
98699.228320319045451
98699.296410322131123
98699.36194278523908
98699.427194643649273
98699.494327111940947
98699.565018222288927
98699.640254475147231
98699.720371621049708
98699.805295369602391
98699.894810789017356
98699.988798442849657
98700.087286662266706
98700.190368152121664
98700.298041618996649
98700.410084591450868
98700.525960276951082
98700.644864925416186
98700.765822673492949
98700.887923081259942
98701.010612335376209
98701.133773203357123
98701.257692080849665
98701.382950879749842
98701.510298036882887
98701.640517105188337
98701.774303954938659
98701.912297210670658
98702.055145041638752
98702.203588971300633
98702.358505388925551
98702.520843354141107
98702.691539571416797
98702.871477909648092
98703.061337477469351
98703.261424172233092
98703.471716278625536
98703.691978897462832
98703.921978774073068
98704.161758377944352
98704.411843109759502
98704.67329723011062
98704.94762830658874
98705.236606728925835
98705.542014279824798
98705.865430033692974
98706.208031830887194
98706.570588641116046
98706.95346399077971
98707.356636613229057
98707.779818198556313
98708.222613835998345
98708.684565762479906
98709.165242357630632
98709.66427602294425
98729.318648821805255
98730.49893889723171
98730.299883209547261
98730.36112320292159
98730.478981545238639
98730.253134824160952
98729.809813149331603
98729.438831429812126
98729.203321044275071
98728.944070262048626
98728.618093031735043
98728.270001547702122
98727.862795175329666
98727.388453900013701
98726.919411997077987
98726.493027414340759
98726.086968862291542
98725.675239522519405
98725.25637807000021
98724.811504012584919
98724.319007925572805
98723.77591616132122
98723.207589817800908
98722.644600973610068
98722.112896171136526
98721.607026413985295
98721.100590175294201
98720.580685533001088
98720.060630974767264
98719.553068865759997
98719.046173674229067
98718.523882143563242
98717.996422940777848
98717.49297625561303
98717.028505876238341
98716.587976076087216
98716.145860403732513
98715.682779760303674
98715.202175044250907
98714.736229406451457
98714.311462038313039
98713.920766807394102
98713.533259916715906
98713.126563806319609
98712.701475999914692
98712.265575037250528
98711.818451111044851
98711.365009055676637
98710.926561828062404
98710.522557647549547
98710.145626022727811
98709.774536716911825
98709.397837192722363
98709.017781537229894
98708.634646761740441
98708.254552144950139
98707.889337250293465
98707.545899504009867
98707.21978580513678
98706.902587008968112
98706.593201029230841
98706.294702381070238
98706.007198849270935
98705.725950488937087
98705.445401337987278
98705.156761092905072
98704.853189445027965
98704.53685407913872
98704.219685635500355
98703.912106838688487
98703.6071387421689
98703.289814651361667
98702.954752457968425
98702.61871795738989
98702.306709528638748
98702.036026919624419
98701.803663955302909
98701.584788792999461
98701.354690142019535
98701.109561419245438
98700.869708660378819
98700.655325120373163
98700.467278192096273
98700.288470411222079
98700.101295656248112
98699.903369438674417
98699.704367609840119
98699.512861928815255
98699.329143864932121
98699.14883778130752
98698.968897289960296
98698.790316517784959
98698.618794418332982
98698.463685338647338
98698.330601255758666
98698.216981658246368
98698.112040576728759
98698.003711359604495
98697.885708213405451
98697.759504767062026
98697.632179770735092
98697.511588307272177
98697.401298736891476
98697.296676337151439
98697.187518856939278
98697.065802723125671
98696.931644076146767
98696.788997135401587
98696.642930530753802
98696.499143524415558
98696.366318351982045
98696.254663564250222
98696.167125420004595
98696.096790721829166
98696.031951475408277
98695.963493546107202
98695.888622649159515
98695.807913988785003
98695.721544870189973
98695.628070691862376
98695.526227290582028
98695.417612043922418
98695.306600449272082
98695.197672006455832
98695.091306077709305
98694.982051170358318
98694.860790054415702
98694.719846639403841
98694.557691088630236
98694.38017090052017
98694.196430105526815
98694.012860379458289
98693.830592180820531
98693.648320128122577
98693.465204167659977
98693.281697882906883
98693.098842518040328
98692.916769295872655
98692.734525270978338
98692.551452167914249
98692.368668309602072
98692.188814375476795
98692.01602022392035
98691.855973749683471
98691.71312517352635
98691.587990862564766
98691.476991024726885
98691.374069384299219
98691.273568070610054
98691.171817363632726
98691.066473599756137
98690.955841480274103
98690.838579484203365
98690.713798300625058
98690.581855709591764
98690.44538744816964
98690.310511064410093
98690.186969193731784
98690.085325156556792
98690.011579007041291
98689.96327575968462
98689.929774540476501
98689.896694049035432
98689.852464973184397
98689.793505202425877
98689.723732754908269
98689.649550904970965
98689.574995447997935
98689.500916458870051
98689.427389685617527
98689.356855279169395
98689.294233165186597
98689.243618361608242
98689.2049023709842
98689.173295261265594
98689.14176380331628
98689.104479251676821
98689.059444141908898
98689.008860575209837
98688.958067180181388
98688.914294375950703
98688.884918803567416
98688.874741913503385
98688.883813484644634
98688.907199382563704
98688.936701481972705
98688.964506218195311
98688.986652363688336
98689.00399552055751
98690.615059178016963
98690.636581806567847
98690.658147478970932
98690.678762833485962
98690.696996376922471
98690.711674882710213
98690.722096870653331
98690.727761602523969
98690.727718001842732
98690.720727647843887
98690.706395967150456
98690.68633482210862
98690.664442977678846
98690.6458347200969
98690.634682063900982
98690.632315343333175
98690.636829032941023
98690.644216491142288
98690.650640619307524
98690.65437378459319
98690.656175655502011
98690.657885706430534
98690.660428567207418
98690.662612331856508
98690.661473183543421
98690.653894752118504
98690.638649216300109
98690.617440594898653
98690.594465541187674
98690.574648930356489
98690.561343506531557
98690.554896169618587
98690.552614250642364
98690.550134602381149
98690.543575058094575
98690.53117805821239
98690.51358225781587
98690.49319738271879
98690.473071563639678
98690.455773286565091
98690.442656345127034
98690.433825908054132
98690.428458864669665
98690.425191903006635
98690.422702420532005
98690.419487379607745
98690.413829409691971
98690.404058248270303
98690.389064331058762
98690.368849016667809
98690.345069084432907
98690.321033866348444
98690.300809065272915
98690.287992615412804
98690.284669685206609
98690.290992609239765
98690.305518408829812
98690.326059657061705
98690.350586509244749
98690.377993395319209
98690.408239209195017
98690.442014643049333
98690.480058054468827
98690.522455850630649
98690.568366085906746
98690.616220483949292
98690.664194450509967
98690.710817358500208
98690.755356788809877
98690.798109768962604
98690.840306518119178
98690.883546221230063
98690.929062491151853
98690.977080283046234
98691.026541470288066
98691.075404370349133
98691.121324660896789
98691.162366114935139
98691.197695531591307
98691.227803699017386
98691.254191548170638
98691.278715682288748
98691.303077099611983
98691.32868333584338
98691.356795292522293
98691.388920912606409
98691.426877010351745
98691.47238936444046
98691.526409174170112
98691.588532109322841
98691.656995507553802
98691.729216969222762
98691.802747441164684
98691.876142705412349
98691.949300453066826
98692.023027100702166
98692.097999839024851
98692.173928675299976
98692.249397088293335
98692.322453631757526
98692.391665335992002
98692.457076970269554
98692.520519521975075
98692.585117168258876
98692.654269621009007
98692.73047494450293
98692.814460611611139
98692.904988800481078
98692.999373794649728
98693.094385223943391
98693.187293288428918
98693.276588842403726
98693.36226680179243
98693.445539592255955
98693.528060225042282
98693.611139968706993
98693.695282326050801
98693.780120835814159
98693.864724158731406
98693.948053451880696
98694.029397176549537
98694.108453285516589
98694.18525026361749
98694.259862983264611
98694.33205656807695
98694.40119080725708
98694.466334590717452
98694.526549877686193
98694.581277715784381
98694.630598396630376
98694.67539332297747
98694.717187005895539
98694.757858533193939
98694.799200434470549
98694.84250496297318
98694.88846754617407
98694.937209155003075
98694.988400537855341
98695.041388724785065
98695.095417318807449
98695.149740887543885
98695.203775471774861
98695.257235312659759
98695.310261271428317
98695.363319676922401
98695.417038970408612
98695.472040550172096
98695.52879620816384
98695.587452540552476
98695.647734617450624
98695.708933823552798
98695.770041614057845
98695.83008324119146
98695.88841173730907
98695.944942358852131
98696.000145580866956
98696.054843136109412
98696.110011211480014
98696.166621431344538
98696.225497073857696
98696.287269517022651
98696.352418103750097
98696.421280977679999
98696.494041427940829
98696.570676578790881
98696.650962562096538
98696.73443776241038
98696.82038990368892
98696.907987747777952
98696.996552762735519
98697.085761335023562
98697.175777768556145
98697.267164621109259
98697.360673177012359
98697.457049254109734
98697.55683417840919
98697.660244398284703
98697.767114676709753
98697.876958501161425
98697.989185040889424
98698.103225129336352
98698.218606124195503
98698.334844186829287
98698.451399505123845
98698.567595927364891
98698.682559085616958
98698.795321798170335
98698.905069246698986
98699.011393133754609
98699.114527736644959
98699.215369434852619
98699.315296378190396
98699.415837778942659
98699.518311010440812
98699.623442449315917
98699.731142448756145
98699.84051333910611
98699.950101793423528
98700.058249064022675
98700.163470060899272
98700.264843702898361
98700.362314743266325
98700.456769309123047
98700.549863317413838
98700.643640390000655
98700.739980493439361
98700.840283029945567
98700.945407743842225
98701.055744361394318
98701.171295779160573
98701.291868324246025
98701.417286387761123
98701.547536536425469
98701.682672126160469
98701.822657926430111
98701.967272609763313
98702.116098967089783
98702.268570337502751
98702.424055690949899
98702.581972765052342
98702.741964274973725
98702.904000683469349
98703.068184347212082
98703.234677185799228
98703.403688421996776
98703.575473526070709
98703.750378134325729
98703.928916161108646
98704.111862138655852
98704.300296000947128
98704.495529334904859
98704.698919196758652
98704.91166979445552
98705.134643680139561
98705.368338266693172
98705.612994639232056
98705.868633276972105
98706.135144769636099
98706.412503348372411
98706.701009041134967
98707.001394830091158
98707.314821495849174
98707.642765327880625
98707.986745136848185
98708.348101224109996
98708.727855634409934
98709.126648043296882
98709.544791941691074
98709.982388199015986
98710.439429887817823
98710.915846973875887
98711.411495349515462
98711.926196131520555
98712.459756720156292
98713.011967814367381
98713.582694713884848
98730.308752660770551
98731.091240186753566
98730.616942885506433
98730.388767149561318
98730.333799847692717
98730.215898910551914
98729.902948813702096
98729.545083454344422