/*--------------------------------*- C++ -*----------------------------------*\
  =========                 |
  \\      /  F ield         | OpenFOAM: The Open Source CFD Toolbox
   \\    /   O peration     | Website:  https://openfoam.org
    \\  /    A nd           | Version:  12
     \\/     M anipulation  |
\*---------------------------------------------------------------------------*/
FoamFile
{
    format      ascii;
    class       volScalarField;
    location    "0.00515";
    object      rho_0;
}
// * * * * * * * * * * * * * * * * * * * * * * * * * * * * * * * * * * * * * //

dimensions      [1 -3 0 0 0 0 0];

internalField   nonuniform List<scalar> 
75962
(
1.1397971451612809446
1.1394893492004523061
1.1404934202873906468
1.1407040744723433434
1.1412501421897225384
1.1415760895900950445
1.1416924257214859928
1.1412102482731762976
1.1408114568174625436
1.1409373525379862269
1.1409358290676883119
1.1403398890354408124
1.139550786429639917
1.1394312100749242056
1.139913477960384558
1.1400947721003318325
1.1396823469000372242
1.1392418079270063558
1.1392517151126702046
1.1397222354387004373
1.1403489355370541869
1.1410211609810250177
1.1415266666866838996
1.1414187079706923367
1.1406650673031324406
1.1398349917049568347
1.1394768064659377416
1.1395828446614360008
1.1397569006656169677
1.139839539956320591
1.1400277703561396692
1.1403634176512758014
1.1404716356173851821
1.140049021177550248
1.1393631134041573016
1.1390325826715466118
1.139284332209088646
1.1399685085594004619
1.1407364595732865098
1.1411659993139051661
1.1410565557214040755
1.1405752900955992146
1.1401093374116888501
1.1399267136783199916
1.1400146994955935309
1.1403383268996485356
1.1407693646734708981
1.1409592185222872107
1.1406633166649919886
1.1399661092399702156
1.139187072149247415
1.1386297529288440522
1.1385557191667563526
1.1390055405417764955
1.1397015522985871616
1.1401361927573889776
1.1400238322823188497
1.1396026004103960716
1.1392246217448824819
1.1389661408415259203
1.1387164589477392074
1.1384441778698861647
1.13824100968520181
1.1380734530559688533
1.1378742007732263186
1.1377347903677736962
1.137766907239973202
1.1379264337307428701
1.1380583374832085042
1.1381442319234553739
1.1383649389465744228
1.1388017206006597615
1.139300825282675067
1.1396430671063233486
1.1397592980854540645
1.1398004715159006928
1.1399072878274705278
1.1400605422441825176
1.1400189438938792552
1.139595683330974607
1.1388737255297394224
1.1381472132847711976
1.1376724854255442221
1.1374789924900507998
1.1374151430268018004
1.1373764047392866949
1.1374680856794909811
1.1378588375799796317
1.138568877589387407
1.1393983099543496529
1.1400499097313019359
1.1403137172886568251
1.1401314555980401888
1.1395521978450362521
1.1387200135581350136
1.1378706908319375923
1.1372682865860279655
1.1370702222209054799
1.1372603906987306388
1.1376806564764985197
1.1381829884544396592
1.1386834638307212764
1.1391515148940476454
1.1395371416775761375
1.1397598105146873326
1.1397818683567824127
1.1396485269778313665
1.1394338342873211456
1.1391815354823200401
1.1388822386154513477
1.1385839134976383225
1.1384187482638130628
1.1385405347319332847
1.1390023806704339115
1.1397128044608644259
1.1405175059886365485
1.141321614491539238
1.1421343258975449331
1.1429954069868080158
1.1438863778637293755
1.1447122295982810058
1.1453530314702682347
1.1457425851288871588
1.1459128659443609255
1.145972088517558829
1.1460336902589225438
1.1461399990226170953
1.1462461884384722577
1.1462805556456812095
1.1462270839347934448
1.146157355917568843
1.1461733182642548368
1.1463131516239963847
1.1465099382190331312
1.1466430086757077866
1.1466399895886794091
1.1465217438885602075
1.1463757484268262132
1.1462895754322666164
1.1462988270626390808
1.1463869521083136505
1.1465125809443346139
1.1466278373901366283
1.1466874836078471134
1.1466688500014285967
1.1465840172653563034
1.1464716093792040041
1.146380178053616028
1.146349565529546588
1.1463909718224516432
1.146482587675508702
1.1465879829810481372
1.1466905301496723713
1.1468059459078636664
1.1469616126343997742
1.1471561060833717072
1.1473411960678925325
1.1474489525065789675
1.1474427290802573509
1.1473446196579601963
1.14722148939175983
1.147148364242569718
1.1471614291061360547
1.1472562556784247079
1.1474054151022725634
1.1475874163750994228
1.1478018182529181601
1.1480565784492986481
1.1483397710878282538
1.1486086200303962102
1.1488112844200621954
1.1489155895593925472
1.1489271105783489535
1.1488841731145131853
1.1488408597953141399
1.148837559216635551
1.1488859079332502944
1.1489681300225340621
1.1490462537821564126
1.1490714642374986187
1.1490027876609321122
1.1488330957520638265
1.1486008242558525261
1.1483787043405973005
1.1482411603274984557
1.1482256619045623225
1.1483125943578957884
1.1484360381974667575
1.1469607624759967646
1.1468847801628383465
1.1468289895746524021
1.1468085475570992671
1.1468220072367871776
1.1468608696416027204
1.1469214018156062007
1.1470039866810288753
1.1471007168970333012
1.1471834051101459373
1.1472076701832691903
1.1471374927067155003
1.146973426132387619
1.1467607183480064137
1.1465685922295700827
1.1464546211982393764
1.1464376123923902817
1.1464928251010113591
1.1465713203579910306
1.1466338188300686518
1.1466750254680102561
1.1467208755104532081
1.1468049232990602526
1.1469422062260572481
1.1471173170523543128
1.1472920720913963866
1.1474258113288298144
1.1474962954052490005
1.147506705851107256
1.1474793981366617768
1.147441921187239755
1.1474153091444085906
1.1474088114936742411
1.1474211671362497533
1.1474445966938637831
1.1474716961007356275
1.1474995818084618993
1.1475309433602198794
1.1475731373813085057
1.1476365817553975113
1.1477311475771410088
1.1478622701331020473
1.1480321255913783496
1.1482348742305619194
1.1484611278735190609
1.1486993226407891111
1.1489374359605040166
1.1491615876495042681
1.1493548319167672389
1.1494958423067436204
1.1495638307209388174
1.149548336652607361
1.149458545531199638
1.1493234385081732007
1.1491833272617293371
1.1490755690497105324
1.1490189492416913453
1.1490083810600724146
1.1490230967278103336
1.1490333559820837817
1.1490201503525734328
1.1489818714081052597
1.1489315494756227043
1.1488876421135261197
1.1488646788640275442
1.1488681391518509312
1.1488927272750548703
1.1489247034437324313
1.1489478090799147836
1.1489509420516363924
1.1489337760441995506
1.148909073976142281
1.1488986888061889502
1.1489254108383173403
1.149002620387352902
1.1491258714232130966
1.1492710430848824821
1.1494028368995228284
1.1494896300300967429
1.1495155701435757489
1.1494849022214483902
1.1494166490033430605
1.1493324099647874714
1.1492445311042729372
1.1491524247161379879
1.1490477580679756553
1.1489245729148134245
1.1487879511008978195
1.1486546426157937528
1.1485451022015185085
1.1484729464258929266
1.148437234028456766
1.1484232119049755383
1.1484110096406507928
1.1483872645189552308
1.1483519361592950947
1.1483163703482262008
1.14829410288641931
1.1482903374077739755
1.1482954112190095763
1.1482862228996946197
1.1482343698581931601
1.148117867821152549
1.1479308738069688989
1.1476875771339396515
1.1474174972942492445
1.1471554776246406515
1.1469306473441807093
1.1467586718722304617
1.1466396330821497784
1.1465606653251447788
1.1465023504577616098
1.1464461793160281022
1.1463801019713770746
1.1463008814519930478
1.1462124406136822152
1.1461224063809107854
1.1460385932084071747
1.1459669748061409589
1.1459111806485107188
1.1458730796374501093
1.1458538337880532776
1.1458540708627298343
1.1458732577539072484
1.1459089581687480486
1.1459556553813960988
1.1460043028622926009
1.1460433621049570529
1.1460614061898382054
1.1460500750295805616
1.1460059162431213142
1.1459310279419443468
1.145832342235524548
1.1457200540879068917
1.1456069765486860401
1.1455063604730764126
1.1454290432670390931
1.1453809532143210959
1.1453623614344061732
1.1453672852927441195
1.1453851741971250444
1.1454035284472818823
1.1454104051777116435
1.1453963593258607023
1.145356895825857757
1.1452944260469666293
1.145218121556594193
1.1451416830251959222
1.1450798124401693201
1.1450447423459735319
1.145042909476844839
1.1450749100856967289
1.145136073516507258
1.1452178455484882669
1.1453088960610262603
1.1453976719649978655
1.145474628990694077
1.1455328291594057966
1.1455669070722784841
1.1455739378824327801
1.1455530399000952713
1.1455070287761330849
1.1454439807862646372
1.1453764607853247348
1.1453189263082441673
1.1452844520563540964
1.1452805723758030521
1.1453074106476224259
1.1453593308796372607
1.14542590295380875
1.1454937158549500786
1.1455504606719428828
1.1455898431223445755
1.1456130611138630737
1.145626785973661077
1.1456398408743719841
1.1456597311853751187
1.1456906497532466371
1.1457323695397736429
1.1457822368612249342
1.145837831480012392
1.145898893227169868
1.1459677977073827737
1.1460475926761728438
1.1461389369059689081
1.1462383732994805285
1.14633781203688212
1.1464255677959906965
1.1464897290502724658
1.1465225902761515542
1.1465236115391732596
1.1465002217081152747
1.1464670515223496228
1.1464435843385236691
1.146449426474323019
1.1464991847240526557
1.1465983539731532392
1.1467413810455908685
1.146912565213310975
1.1470894003121925309
1.1472487082065252473
1.1473718227436431327
1.147448852547662046
1.1474803087888467701
1.1474741850431766643
1.1474420894085324285
1.1473960990085609879
1.1473457590614042356
1.1472965544357458523
1.1472504420494589183
1.1472075115744850837
1.1471689486147815806
1.147138420958031535
1.1471221516970973031
1.1471276712548412746
1.1471615392574674441
1.1472272011730209051
1.1473228133280839458
1.1474402131183931708
1.1475666303644251887
1.1476883361686454066
1.1477942815814781152
1.1478786043506830072
1.147941777163540289
1.1479892490392571425
1.1480289753603931668
1.1480677627347646297
1.1481089249283391585
1.1481516194210654724
1.1481917268228176709
1.1482245165753084404
1.1482472799144185505
1.1482600194481982214
1.1482665708913220026
1.1482737447851358858
1.1482889039702255385
1.1483167805434832953
1.1483578159097740379
1.1484069341427316502
1.1484540761538379883
1.1484869910487549571
1.1484944849749938456
1.1484704285323215078
1.1484153784570889645
1.1483361365675406329
1.1482441319849410188
1.148152103331486984
1.148072727218443001
1.1480165042618180049
1.1479900140692218535
1.1479953996212539646
1.1480312304772841703
1.1480928613990655229
1.1481735781013810982
1.140543931047234949
1.1406821856161344364
1.1401372335712558481
1.1405779850108730411
1.1421295484782563179
1.1431682203127755404
1.1432746969807685566
1.1419908295219629579
1.1409616233288959464
1.1409590500363526733
1.1408132331184845931
1.1405161166686919039
1.1405158434179736293
1.1407331433569734003
1.1407439452821697135
1.1403233506593901669
1.1396223343579117149
1.1390860238191657938
1.1389933447111426634
1.1394444116886328633
1.1402507834784616492
1.1411074831409533381
1.1416854788640253826
1.1415977990088828076
1.1408306567340962268
1.1399920007584236625
1.139597872495531572
1.1395791243888802047
1.1395684127054019896
1.1395744997190326853
1.1399000546341320206
1.1404509444392878503
1.1406285691429260964
1.1401305707931688183
1.1394084049269621595
1.1391039347195068832
1.1394062225049890191
1.1401069328652118084
1.1408242898417895184
1.1411498513630069507
1.1408373646873983809
1.1401909641009730922
1.1396582327044963989
1.1394370447117925238
1.1395584410104264705
1.1400805437773351425
1.140807850645403132
1.1411690942770715829
1.1407881421543446532
1.1398908821919910839
1.1390415174594943348
1.1386105009175107039
1.1386971352620345321
1.1392212079775450029
1.1399029218185516843
1.1402581849597623886
1.1400432242037727981
1.1395279653381231721
1.1390738115717751189
1.1387575414388724226
1.1384743731343314188
1.138248008616388196
1.1381306387857688112
1.1380620696107430767
1.1380028092348786206
1.1380380746113714086
1.1382269136890941219
1.1384401727152924089
1.1385631377058094138
1.1386443865487980709
1.1388751001885677461
1.1392885667163823449
1.1397152131629186833
1.1398723455103303426
1.1397155865217694082
1.1394522774708362167
1.139333117024950548
1.1394249815270822701
1.1395207768441770746
1.139333389179728151
1.1387813554003687333
1.1381013777697217559
1.1376171050492873693
1.1374497318124634493
1.1374824186660013048
1.1375656841249954798
1.1377220049901712873
1.1380816516829130869
1.1386832308503769262
1.1393965820624059049
1.139992397817473746
1.1402711536834146955
1.1401200788206384829
1.1395517655948415037
1.1387174112923736935
1.1378991400329692141
1.1373683766263544825
1.1372459750684722479
1.1374736746770730544
1.1378846547378285159
1.1383238459019471289
1.1387217040773978116
1.1390795573734802115
1.1393908685712339501
1.1396073275868678909
1.1396645599752068811
1.1395615877408518113
1.1393500619519389971
1.139085319119895745
1.1387822640602944801
1.138482440880307367
1.138304833944514316
1.1384012791619440019
1.1388545373510756686
1.1395978355177274199
1.140480559454071896
1.141374866398090715
1.1422366611096639311
1.1430745740051242443
1.1438742217126924849
1.1445740069940473216
1.145094943002993082
1.1453966840971039343
1.145518079556263169
1.1455645676498547036
1.1456469076811743868
1.1458081361628538186
1.1459927897341888325
1.146104817600619441
1.1460979313761201492
1.1460173847668300162
1.1459542649452001406
1.1459652697433062585
1.1460326604436059661
1.1460970087681663365
1.1461223234929458492
1.1461199550714664674
1.1461237158282044923
1.1461638163660745615
1.1462506527666029843
1.1463723301389814324
1.1464967589095691469
1.1465804001369692688
1.1465879575359108067
1.1465137755098957495
1.1463930352665365753
1.1462766992431048241
1.1462015189582437369
1.1461837489021098335
1.1462236103845218071
1.1463083749983806747
1.1464207226566471842
1.1465530223146020994
1.1467104822790250562
1.1468945921523390208
1.1470778297194041961
1.1471978326868701448
1.1471923372090877535
1.1470500091443118773
1.1468351391059992128
1.1466600913513502746
1.1466169379535484651
1.1467335778146825476
1.1469632164541563313
1.1472237152680153649
1.1474575009722938201
1.1476626383833348211
1.1478701636107062622
1.148095251498672198
1.1483096636294147785
1.1484603151840153679
1.1485159175402173126
1.1484962814143562237
1.1484614568095568021
1.1484737215231179963
1.148561851564926295
1.1487116136647426146
1.1488792580125766207
1.1490097550723863407
1.1490521300660097026
1.1489729862082289635
1.1487796683329314362
1.1485268576195211132
1.148301283917933846
1.1481805281932619955
1.1481940135568564632
1.1483070459861965951
1.1484395112958041274
1.14851910404400126
1.1471034558512520629
1.1470341984575491701
1.1469629281247168961
1.1469089181772254005
1.1468832240700888025
1.1468846345507295315
1.1469078276825068752
1.1469539744859176267
1.1470272273508019811
1.1471209841369585103
1.1472069363531431918
1.1472412020232634067
1.1471893128031092068
1.1470520693428951642
1.1468720760377573153
1.1467133317944218085
1.1466264852393321938
1.1466224018205575241
1.1466711379807241755
1.1467261341631418414
1.1467553922237985198
1.1467612550471544264
1.1467772270718570304
1.1468434515488803438
1.1469778655457238958
1.1471616008073954873
1.1473473370647020442
1.147484785182884659
1.1475451951882047474
1.147534092671468775
1.1474851820128695312
1.1474420759717753882
1.14743913303129208
1.147487455517570476
1.1475754304824714591
1.1476778221668719748
1.1477685447801571073
1.1478330258435627265
1.1478720789185510309
1.1478993256333336337
1.1479323947339765688
1.1479899817371614912
1.1480831644994569096
1.1482173747129962305
1.1483912805921963063
1.1485963112632153749
1.1488212997019930928
1.1490534033461650143
1.1492756849766756488
1.1494655566699047977
1.1495974091590908106
1.1496498749176460308
1.1496160051291821613
1.1495095075918952965
1.1493629269067666687
1.1492165303196071324
1.149103794676020085
1.1490394198767379663
1.1490157688157431881
1.1490100781547669673
1.1489979240117580428
1.1489656747997452069
1.1489156072406816467
1.1488620896561434481
1.1488232396171371708
1.1488120780992421288
1.1488314704375528486
1.1488729644546229469
1.1489198673407261531
1.1489536786785945477
1.1489624924058952082
1.148946190851664273
1.1489178160573150222
1.148899456423731591
1.1489133632726951095
1.1489718477313914935
1.1490702507355727846
1.1491868833338378941
1.1492904811931361486
1.149353932623097263
1.1493645834474977008
1.1493267101057362822
1.1492549439283665791
1.1491644049903693148
1.1490619178824459379
1.148945380030116814
1.1488100445031312891
1.148657760196228228
1.148501827373752171
1.1483639188822736266
1.1482636169797495462
1.1482080072555589378
1.1481869310736323442
1.1481782843862724519
1.1481604305381896136
1.1481246719407869339
1.1480787686651943158
1.1480408099767511754
1.1480262265113070352
1.148036416582780328
1.1480538711825107878
1.1480478059413392611
1.1479866669979912341
1.1478512515319512222
1.1476429368204790205
1.1473842878523556887
1.1471115534932705415
1.1468628171741166444
1.1466667143687951924
1.1465348864626527803
1.1464606535760102357
1.1464236327971082385
1.146398141092570766
1.1463624461691210854
1.1463046286285476505
1.1462243932080828923
1.1461302935551085369
1.1460341304365584403
1.145945872109966901
1.1458708196214628661
1.1458100090961120809
1.1457622496674246815
1.1457274293350860894
1.1457080232988168245
1.1457080269043897758
1.1457306491106360458
1.1457748162433532002
1.1458333026915366037
1.1458935929875870841
1.1459402623688907941
1.1459599784092759922
1.1459451826166311417
1.1458957667965561367
1.1458184533320316945
1.1457243675464738875
1.1456258977922113562
1.1455343295646154278
1.145458069683970237
1.1454002491532992991
1.1453601039879670598
1.1453338151398486655
1.1453158418388431627
1.145299556045318079
1.1452793171802166938
1.1452503053273246358
1.1452096871545487389
1.145158682685465612
1.1451034901693546431
1.1450535706129640889
1.1450191820947392962
1.1450091993074766883
1.1450277108219355515
1.1450732772978848839
1.1451399271570992244
1.1452189926347109417
1.1453008106702611268
1.1453764219599480434
1.1454383500001314999
1.1454816334145898615
1.1455030161307335757
1.1455004598638007796
1.1454740086833437029
1.145426341165912687
1.1453652687557096534
1.1453029386502260323
1.1452540233953460991
1.145231786573947419
1.1452442372161488748
1.1452904488624224832
1.1453613280862287027
1.1454441216053203867
1.1455245553485486898
1.1455896728419963093
1.1456318491989672115
1.1456513869844575648
1.1456552942229203396
1.145653167207776324
1.1456537234430728134
1.1456621863773426284
1.1456799444051404269
1.1457059927714494663
1.1457395072759464227
1.1457817772047464988
1.1458366114720306417
1.1459084976669162703
1.1459995264129860804
1.1461067412629568629
1.1462225062894086935
1.1463346659070934308
1.1464298388220273139
1.146497307551956446
1.1465331520653541109
1.1465418762615968706
1.1465355748803576219
1.1465316408047352414
1.1465487902408271204
1.1466020137861003825
1.1466982719701541704
1.1468341925707341566
1.1469963122596589233
1.147163513207369423
1.1473131875004045632
1.1474273163084836025
1.1474963299124161242
1.1475207706831900278
1.1475099144025111553
1.1474775032264743491
1.1474371441431019392
1.1473988194780158079
1.147367649373738363
1.1473442298663933947
1.1473270162141204764
1.1473149159507631811
1.1473089654830370687
1.147312996433261123
1.1473326972508857136
1.1473736941006744683
1.1474388576753740132
1.1475267628180025881
1.1476322532935618881
1.147747339323138327
1.1478634777097838082
1.1479740124590647188
1.148075366187584212
1.1481673422244675908
1.1482521060051011919
1.1483321337762111281
1.1484080974301205114
1.1484776459852055197
1.1485359705947773001
1.1485780709971968871
1.1486015885380140844
1.1486079793745855859
1.1486025052269299707
1.1485932464678778597
1.1485886735437174089
1.14859512881777448
1.1486150112170918636
1.1486456006531544638
1.1486791586866327286
1.1487057553139048416
1.1487156385078909349
1.1487014044756205244
1.1486602632627778142
1.1485948735076614291
1.1485127269892310142
1.1484241631313261145
1.1483399709537795985
1.1482695432421214932
1.1482198217934496132
1.1481950233119619931
1.1481974394458525079
1.1482271480407195696
1.1482822185811851767
1.1483584998373204122
1.140008830621959568
1.1412469828938807126
1.1403408516982407317
1.1396366899761669611
1.1409232601026273457
1.1434766389899182482
1.1442728885732567079
1.1427061000181546468
1.1413639099483254835
1.140962055569563427
1.1403237603378615361
1.1401953681601979529
1.1411372393855674368
1.1419204206866466755
1.1417290768060843753
1.1409938586770942415
1.1401646676666390423
1.1392861802737506149
1.1387842123103000258
1.1390876223637682596
1.1400574450245868352
1.1410810352704705561
1.1416172370942136993
1.1413839662460132374
1.140623037426949038
1.1399132346069371646
1.1395622103834401884
1.1394381773133375191
1.1394438999888318875
1.1397261589893514788
1.1403406263681865607
1.1408869946995257028
1.140841089450175927
1.1401591497963272648
1.1393234044064655119
1.1388694743825946709
1.1391396257993233743
1.139937209419481956
1.1406631115308250024
1.1407998926130265005
1.1403677733932120475
1.1397666027141797329
1.1393529337779488841
1.1392207641424270115
1.1394297853323553937
1.1400561978421308584
1.1408558435716644741
1.1412317241808536128
1.1408138052912146776
1.1398883739867118337
1.1390771382171143156
1.1387612990664455204
1.13894900850200953
1.1394678930440103048
1.1400143373444875383
1.1402020616533439235
1.1398905576543376661
1.1393156745109498384
1.1388030475158343879
1.1385159449033697143
1.1384308317375055886
1.1384614542219206879
1.1385111699455772172
1.138506769674903607
1.1384816471306542507
1.1385482832406357279
1.1387385675098440352
1.1389343515242931204
1.1390673382896909782
1.1392109816650883847
1.1394463779439423234
1.1397480182425558937
1.1398973871293838211
1.139754099411182553
1.1393587725043592407
1.1389218807645706821
1.138728083309337169
1.1388541587311926673
1.139076490823534904
1.1390313055846112977
1.1385692424965105918
1.1379205835005292702
1.137458940313200495
1.1373728941101477474
1.1375605757984246225
1.1378234949903986983
1.1380835262778432604
1.1384148609290278831
1.1388760743291097555
1.1393969651259803211
1.1398415517684605813
1.1400382055995164077
1.1398504215530653738
1.1393038141454825407
1.1385875946682020299
1.1379626853968147771
1.1376108655332763941
1.1375767399821590242
1.13779806728469568
1.1381552625161270864
1.1385262366292929759
1.1388420988631902109
1.1390884149954554339
1.1392966720153696603
1.1394418008247775287
1.1394754840123775264
1.1393556650154594845
1.1391461809229270763
1.1389100009713766237
1.1386912129865578436
1.1384852084447951714
1.1383729622495426526
1.1384916538925582419
1.1389350761956265057
1.139678444672938662
1.1405953690392369726
1.1415449339410392859
1.1424504095540910509
1.143287786444333376
1.1440354025110746061
1.1446474306961196277
1.145072654351060315
1.1452946947215323359
1.1453590906457349341
1.1453658245356796996
1.145419231841968033
1.145563110272643792
1.1457539963760232649
1.1458996272431458685
1.1459321888688154267
1.1458557598067842243
1.1457379373351492813
1.1456500709194716858
1.1456156122502281214
1.1456235698198506956
1.1456642944319026522
1.1457458803467068797
1.1458767998685404077
1.1460448756327317188
1.1462241554306829006
1.1463824361483485603
1.1464825850918947125
1.1464872794099150166
1.1463858776729352051
1.1462152855148777242
1.1460429476881643929
1.1459287974069642946
1.145894023912473747
1.1459258571114110392
1.1460056440396211297
1.1461247119584658805
1.1462823969351265685
1.1464763873433394537
1.146693067456048043
1.1468994212279151057
1.1470379559502892342
1.1470413630056197629
1.1468745603109413711
1.1465752895345142637
1.1462539987705140376
1.1460494321139753637
1.1460631414635467085
1.1463003127454653995
1.1466654414341752588
1.14703009838188974
1.1473106162916715256
1.1475042765605167894
1.1476596489281627456
1.1478117711777429122
1.147946292064807583
1.1480203705337059805
1.1480179262572209886
1.1479783548316628838
1.1479740361828643103
1.1480596376706542205
1.1482407593729271333
1.1484757214911114342
1.1486997126499827182
1.1488513527322956609
1.1488895226579136644
1.1487999866893570111
1.1486036106981674099
1.1483604796602022713
1.1481539132719005281
1.1480550493358450126
1.1480870549025283811
1.1482110029419552166
1.1483496780632380663
1.1484329912682302854
1.1471297786952685538
1.1470635267504589727
1.1470044743370504392
1.1469665736146281709
1.1469532982946510913
1.1469593071921351246
1.1469797348362149592
1.1470177508540242428
1.1470791713687167324
1.1471589493115337266
1.147232658002555139
1.147263565432557586
1.1472239179938097386
1.1471151590837458389
1.1469726011058258841
1.1468487435905956318
1.1467845301572618943
1.1467873384984137441
1.1468295511506434448
1.1468694434740027699
1.1468809114252949133
1.146870020435430737
1.1468705082879495638
1.1469216957210068841
1.147042086409471251
1.1472141413968903745
1.1473909511522057958
1.1475204511159591281
1.147571370205560326
1.1475495632661656398
1.1474951675098610249
1.1474625730470515705
1.147493887215269126
1.1476012133231050516
1.1477640152066701518
1.1479408645661193233
1.1480900525185688821
1.1481871080585792644
1.1482312634345512858
1.1482406473591320051
1.1482423578844942469
1.1482561580875283447
1.1483012409270212384
1.1483807911884336139
1.1484945567027082802
1.1486450909137921883
1.1488303336747294203
1.1490395846413523628
1.1492515833919036972
1.1494364879596603579
1.149563469334016208
1.149611390189654081
1.1495772529747585455
1.1494793423594908965
1.1493511968538612233
1.1492286533848612429
1.1491365368572092898
1.1490809352837287882
1.1490496708035458084
1.1490216937288126875
1.148980063884362135
1.1489202117877039822
1.1488510685789228294
1.1487897267898916631
1.1487537732033930027
1.1487538166553139529
1.1487885799175960866
1.1488453208505264858
1.1489042955435404547
1.1489455065933689148
1.1489564387081183661
1.1489372719042547644
1.1489013066868252189
1.1488703335567356234
1.1488655310777937668
1.1488986386855506439
1.1489660490774338264
1.149049835863984903
1.1491246266842056745
1.149168543356908101
1.1491711444776484541
1.149134936147453212
1.1490688101438357727
1.1489801276694224796
1.1488698242478549982
1.1487343970694194883
1.1485730028012088866
1.1483951721234930687
1.148222081623201607
1.1480796932978476477
1.1479864359756275505
1.1479434360152338535
1.1479334511979388811
1.1479293978745730431
1.1479087091799005105
1.1478654738544187275
1.1478122245903985554
1.1477702548758996759
1.1477551511828745223
1.1477652843822445661
1.1477789285212152137
1.1477624696143204908
1.1476853162759550475
1.1475337111203924856
1.1473166115845729873
1.1470628425187796573
1.146811323651138359
1.1465984944331359952
1.1464478189003974862
1.1463636881336329854
1.1463318719357500353
1.1463262088707917297
1.1463185097070129892
1.1462886463210295585
1.1462299962476665272
1.1461482642167639678
1.1460563354609023534
1.1459668956673434437
1.145887462965004655
1.1458188634932060523
1.1457574736613895805
1.1456996194343114226
1.1456457494608132119
1.1456021073960247492
1.1455783083379222909
1.1455830804607805007
1.1456196788057049218
1.1456830598114893238
1.1457599983866932902
1.1458321363564987205
1.1458813243781971192
1.1458956268892854791
1.1458722045220675056
1.1458161536868527453
1.1457384966301265017
1.1456511799186432921
1.1455644812383893871
1.1454858442393611728
1.145418728959355148
1.1453633380149201848
1.1453180296098310897
1.1452799510670108596
1.1452451410904769258
1.1452097635644788998
1.1451712177926445246
1.1451277998047004747
1.1450810646298186235
1.145036196274097362
1.1450017578938882501
1.1449863175503758317
1.1449964912633365799
1.145034228078985139
1.1450954028601476598
1.1451709084744796652
1.1452499355859873109
1.1453229923336754048
1.1453830834722864562
1.1454261202708069245
1.1454505417594675887
1.1454566139690485205
1.1454450646367311251
1.1454172891119729361
1.1453761582090784543
1.1453275882105422578
1.1452811134939753224
1.1452487383229073004
1.1452420463632324577
1.1452685248150276109
1.1453278880105570714
1.1454109489828281365
1.145503454057438919
1.14559058426626037
1.1456597979071709847
1.1457026691233354043
1.1457173214125864202
1.1457089742204682459
1.145687394482455046
1.1456629648916327735
1.1456438171209180066
1.1456344886618008427
1.1456367974441650226
1.1456513775498833319
1.1456795693978996109
1.1457241694616095984
1.1457889150005506895
1.1458767644643810257
1.1459864918836515368
1.1461117973824643812
1.1462423168968731702
1.1463651690399814242
1.1464682566952835163
1.1465438298551926533
1.1465911881864054855
1.1466178411764458289
1.1466372426215338809
1.1466652779085924063
1.1467162772816359428
1.146799093569600192
1.1469136476678616354
1.1470507906431508527
1.1471942166599862212
1.1473246262937975004
1.1474255639697645837
1.1474883343870831975
1.1475134001542877105
1.147509473402610336
1.1474897128770700228
1.1474671920899399691
1.147451447072677766
1.1474468364171777068
1.1474529494098852922
1.1474661705107644938
1.1474829698334607642
1.1475024604236419012
1.1475267111179809909
1.1475594210526460781
1.1476043373859610153
1.147663655308464925
1.1477369685793468168
1.1478218743315711237
1.1479153497333700606
1.1480148182417972968
1.14811919630464776
1.1482284726828051458
1.1483429522374315468
1.1484617881942449369
1.148581787138609922
1.1486966084980962943
1.1487978939049356963
1.1488773424947840152
1.1489293226623522592
1.1489531836518118713
1.1489540087713483452
1.1489408071870119699
1.1489242731384661234
1.1489134306025583498
1.1489133035342822264
1.1489236278849777051
1.1489392507517190989
1.1489516374927186693
1.1489521569522984645
1.1489345571413023261
1.1488970169937962051
1.1488420216399215512
1.148775119611417761
1.1487029635120864501
1.1486324518912913728
1.1485694064988016816
1.1485184424992713748
1.1484821445468158529
1.1484618039468466044
1.148459280750655509
1.1484767570406226866
1.148514456612033996
1.148570723750935052
1.1486422026737748148
1.1397710171925770073
1.1415852848546859111
1.1414103666861847852
1.141028789195097648
1.141258047313054913
1.142541406051350128
1.1435476540513402899
1.1428544490537035916
1.1419375741576560657