/*--------------------------------*- C++ -*----------------------------------*\
  =========                 |
  \\      /  F ield         | OpenFOAM: The Open Source CFD Toolbox
   \\    /   O peration     | Website:  https://openfoam.org
    \\  /    A nd           | Version:  12
     \\/     M anipulation  |
\*---------------------------------------------------------------------------*/
FoamFile
{
    format      ascii;
    class       volScalarField;
    location    "0.017";
    object      alphat;
}
// * * * * * * * * * * * * * * * * * * * * * * * * * * * * * * * * * * * * * //

dimensions      [1 -1 -1 0 0 0 0];

internalField   nonuniform List<scalar> 
106891
(
1.1413633149440610603e-05
1.1331988770948747854e-05
1.126339016573464123e-05
1.1209501846282383971e-05
1.1170189350107336776e-05
1.1144498061650528334e-05
1.1129093838308601821e-05
1.112011233321384385e-05
1.1113345047288145789e-05
1.1108924238215077439e-05
1.1105206760790942378e-05
1.1646432156122602265e-05
1.1648467656216920831e-05
1.1651652948142285197e-05
1.1648813217583160319e-05
1.1641799397766600715e-05
1.1632785753379370938e-05
1.1622291624162489496e-05
1.1612240535324763174e-05
1.1605027093814254235e-05
1.1600584028465228215e-05
1.1604353837674283499e-05
1.1634752172455539943e-05
1.1737470060903339552e-05
1.1865836243187632447e-05
1.1978681035987936984e-05
1.2077257266035872017e-05
1.2162572063029010254e-05
1.2235715964832487174e-05
1.2295919885520495299e-05
1.234298796325054799e-05
1.2375790931644461187e-05
1.2395127585468851086e-05
1.2402189219216496952e-05
1.2400262637939113457e-05
1.2393005678651516807e-05
1.2383287085865576338e-05
1.236778023474603069e-05
1.2333674410833724675e-05
1.2263889637025450808e-05
1.219883364966955538e-05
1.2148583735028946511e-05
1.2115634480502042591e-05
1.2097827581733121014e-05
1.2090081917363472877e-05
1.2087150152702059544e-05
1.2099968363803497034e-05
1.2165280114424861441e-05
1.2327550702684697849e-05
1.2526568903198433575e-05
1.2519176231742337339e-05
1.250966594635617543e-05
1.2494698426729075136e-05
1.2464854252812238887e-05
1.2390980250124987934e-05
1.2277453024259486463e-05
1.2166565967227334759e-05
1.2062710702002735707e-05
1.1969561956537576436e-05
1.1889700910330068388e-05
1.18252596873615544e-05
1.1776709051013121548e-05
1.1743432751041765487e-05
1.1723019526545566435e-05
1.1711240679625213297e-05
1.1704010619023665852e-05
1.1698044317388443583e-05
1.1696702642205930033e-05
1.1705640533296349476e-05
1.2263435960031669904e-05
1.2239974552647166767e-05
1.2219398422377535977e-05
1.2202137892689197938e-05
1.2187791335997540565e-05
1.2177207042401791759e-05
1.2169398944235475466e-05
1.2169126916016517886e-05
1.2194299895174024205e-05
1.2291989303827931569e-05
1.2433137759462008069e-05
1.2558062158889347578e-05
1.2664975160496829261e-05
1.2754170238057264971e-05
1.2827461121174783874e-05
1.2887368390407352074e-05
1.2935294720415794036e-05
1.2972596211127240462e-05
1.299894474061853845e-05
1.3015180499538973852e-05
1.3021645924316859055e-05
1.3020626000008275283e-05
1.3014337387599675874e-05
1.300518497674363409e-05
1.2992187975813144845e-05
1.2971072383366443051e-05
1.2926140424252884965e-05
1.2863684780310753972e-05
1.2811071961499894575e-05
1.277309744584444324e-05
1.275001440284231693e-05
1.2739336925533975662e-05
1.2734248332548084922e-05
1.2739244569546803956e-05
1.2782549914457116174e-05
1.2937461760258188768e-05
1.3173833581183473824e-05
1.316626574621442606e-05
1.3156732226021839444e-05
1.3141820697621154794e-05
1.3112014582876196028e-05
1.3037149058315407915e-05
1.2913636589625275455e-05
1.2792939324034462251e-05
1.2681209533035497016e-05
1.2582552153539681113e-05
1.2499653655946401837e-05
1.2434465745462130014e-05
1.2386833419691548963e-05
1.2355477542403122218e-05
1.2336856654735651594e-05
1.2326484971660278556e-05
1.2319449504072574794e-05
1.2314446348800616587e-05
1.2316571801971035649e-05
1.2338848767774679294e-05
1.2986582455111913257e-05
1.2972712426866236327e-05
1.2951488373926257281e-05
1.29225173137237786e-05
1.2897943679144901447e-05
1.2879610392539276131e-05
1.2868010848775395818e-05
1.2860652689169300042e-05
1.2860894305015198273e-05
1.2884603504149919179e-05
1.2973381671778831824e-05
1.3098537652697603452e-05
1.321266647878977806e-05
1.3316469457530188372e-05
1.3409817236647120651e-05
1.3492343252219339352e-05
1.3562239223976221584e-05
1.3617879128444553574e-05
1.3657624567892655173e-05
1.3681754066547044423e-05
1.3691371535973641165e-05
1.3690413264993221598e-05
1.3683025129342145514e-05
1.3671211837227597886e-05
1.3650467551185037449e-05
1.3606438020867621917e-05
1.3542720210458525398e-05
1.3488712268219643428e-05
1.34489504577391909e-05
1.3424174678288779779e-05
1.3412401350709768434e-05
1.3407348456412715066e-05
1.3408990787069144572e-05
1.3438594470961437474e-05
1.3558613546149657901e-05
1.3734857702694799607e-05
1.385077038554724009e-05
1.3839740771767141235e-05
1.3822123177802168878e-05
1.3785458805007048949e-05
1.369283585569788881e-05
1.3559293526033255732e-05
1.3433213067373823223e-05
1.3320188082185896344e-05
1.3224024372211706397e-05
1.314723087401568712e-05
1.3090144932719449645e-05
1.3051481914521410332e-05
1.302802113253488821e-05
1.3014937010403859275e-05
1.3007030969393359711e-05
1.300122079249140295e-05
1.3002449194834552506e-05
1.3026245125321335506e-05
1.3111102125358703745e-05
1.3744687881813590674e-05
1.3729652681147767231e-05
1.3701943804581632246e-05
1.3659141442223411288e-05
1.3625207383234539825e-05
1.3603631292654521081e-05
1.3592293425964735424e-05
1.3585745227637525335e-05
1.358648848016504775e-05
1.3610761419072596763e-05
1.3706412582583161723e-05
1.3852641166920341722e-05
1.3982210050174141049e-05
1.4094826631256456026e-05
1.4192042871020898849e-05
1.4274135358131364635e-05
1.4340454803672995432e-05
1.4389817618120967339e-05
1.4422051574040719671e-05
1.4437777442958015631e-05
1.4440260323544407354e-05
1.4433660960977002765e-05
1.4422714316257347078e-05
1.4405852702385306136e-05
1.437526820066144134e-05
1.4308007999143664371e-05
1.4227349646315270767e-05
1.4162592815199440285e-05
1.4117050396242694383e-05
1.4090174877212261828e-05
1.4077241908639671298e-05
1.4070484051159339668e-05
1.4068795988126528234e-05
1.4090697388386816112e-05
1.4531767086857599441e-05
1.452295945405899182e-05
1.4512777260318630374e-05
1.4499258040640918991e-05
1.4477127284419339894e-05
1.4429688159766535196e-05
1.4318145010781917057e-05
1.418603307615658285e-05
1.4064914573719648546e-05
1.3959904804167187379e-05
1.3874458533539408504e-05
1.3810037722844899439e-05
1.3765465733526027642e-05
1.3737757066189529447e-05
1.3721941972444017284e-05
1.3712699928077053496e-05
1.3705651054143527643e-05
1.3704490803497749196e-05
1.372092476971897825e-05
1.3793553294577621135e-05
1.4375409579195170534e-05
1.4360664406354076129e-05
1.4335410474391595704e-05
1.4309809313419108505e-05
1.4293406464392656487e-05
1.4284231049234378933e-05
1.4282538145291337654e-05
1.4308738663583816684e-05
1.4420708935553791586e-05
1.4588990726499777414e-05
1.4729647999158413499e-05
1.4843728733020974028e-05
1.4935555874675735368e-05
1.5010375871996759286e-05
1.5072962606003637609e-05
1.5125391715758918409e-05
1.5169078278603547754e-05
1.5202480078716815686e-05
1.5224651490924357848e-05
1.5235322542611438659e-05
1.5235680557247676002e-05
1.5228591385039292762e-05
1.5217495597648953877e-05
1.5202646882558655875e-05
1.5180314589305740391e-05
1.5136013244197519384e-05
1.5054349326922503166e-05
1.4981013840861055183e-05
1.4926495207794203738e-05
1.4892393585324044996e-05
1.4874974917219914585e-05
1.486645495798895741e-05
1.4863021866762500067e-05
1.5251965710158099716e-05
1.5240445847351428668e-05
1.5223956701429553921e-05
1.5194107304215069453e-05
1.5123996506597312586e-05
1.5004609958891152566e-05
1.4885216500044075723e-05
1.4773783670472220191e-05
1.4675828775049125412e-05
1.4594861759975874809e-05
1.4532939072099433704e-05
1.4489229011755861294e-05
1.446129123601462308e-05
1.4444801165475035617e-05
1.443460382418978381e-05
1.442676983580901942e-05
1.4424671776138878082e-05
1.4439000214878697882e-05
1.4507206552915596706e-05
1.5025502526701804514e-05
1.5016045345751640467e-05
1.5010111484654280669e-05
1.5014190080546629938e-05
1.5042402588777979258e-05
1.5095365187899033524e-05
1.5162959697644016243e-05
1.5240880426359892431e-05
1.5324563139988434937e-05
1.5408753539038474659e-05
1.549203471034565804e-05
1.5573962787694595915e-05
1.5655208276655496356e-05
1.5735545183326012444e-05
1.5811804029317908475e-05
1.5881296416217853925e-05
1.5938563162075145534e-05
1.5980307255475412355e-05
1.6004281729183972511e-05
1.6011832467507430215e-05
1.6006866665621764215e-05
1.5995612960254824151e-05
1.598034701844351768e-05
1.5952915120938780143e-05
1.5889586835145527119e-05
1.5807922309974422698e-05
1.5743440583571719551e-05
1.5698767526907503144e-05
1.5673081826169721532e-05
1.5660462407488055228e-05
1.5653623265772963668e-05
1.5662804890462724721e-05
1.6037222210197710459e-05
1.6022533975080962388e-05
1.5997118121799687717e-05
1.5938167133255842306e-05
1.5819165457768050132e-05
1.5695538852564932668e-05
1.5579095034606785643e-05
1.5474872063355282721e-05
1.5386286267044643527e-05
1.5315694235048817165e-05
1.5263283538859138998e-05
1.522713305249179613e-05
1.5204361060234216735e-05
1.5190215697232355044e-05
1.5179955368548633636e-05
1.5172481487831651964e-05
1.5174972502417104399e-05
1.5200045102335855841e-05
1.5280650827104786982e-05
1.5727075510859660565e-05
1.571197191136794089e-05
1.5702147883798088979e-05
1.5699303145852878803e-05
1.572077664594720157e-05
1.5811469503000938678e-05
1.5945486473106583431e-05
1.6071216964752197114e-05
1.618862270001280806e-05
1.6297880565452074156e-05
1.6399884285302460167e-05
1.64944074692600661e-05
1.6580677020443630531e-05
1.6655529429086487098e-05
1.6714517329070962182e-05
1.6754537457858538284e-05
1.6775554090327224137e-05
1.6780868571758114974e-05
1.6775052437226955555e-05
1.6763622990114667577e-05
1.6750623457646190469e-05
1.6732744069914984037e-05
1.6696064560644971003e-05
1.6620673656420689187e-05
1.654856363154384697e-05
1.6493248528464453335e-05
1.6456741514029296278e-05
1.6436558480628896177e-05
1.6425373400209626644e-05
1.6423529931840005763e-05
1.6845605443088193564e-05
1.6828419938057599729e-05
1.6792346018713113647e-05
1.6698181257034343526e-05
1.6550457152170254234e-05
1.6411099328589908033e-05
1.6288334768572726717e-05
1.6185753183915726686e-05
1.6105416534406910437e-05
1.6046647260638141641e-05
1.6006580193245774894e-05
1.5981637916440914862e-05
1.5966113200306813899e-05
1.5954803512691675396e-05
1.5946893554409530969e-05
1.595181835309677804e-05
1.5979107168875899609e-05
1.6061301934605048649e-05
1.6619740246285887145e-05
1.6600878047743505448e-05
1.6590336476392550613e-05
1.6589316154558834726e-05
1.6625722819733711579e-05
1.6761306246797002878e-05
1.6922766121379164371e-05
1.705583196159636417e-05
1.7167217250318622706e-05
1.7261523371787670337e-05
1.7342604511484216272e-05
1.7413604948848773784e-05
1.7476697812642684557e-05
1.7534254985827667721e-05
1.7583188420673839678e-05
1.7619838875000231178e-05
1.7640472673600940439e-05
1.7645382234356875523e-05
1.7637986037834909794e-05
1.7625731319565430356e-05
1.7611111795983638552e-05
1.7582572610280096403e-05
1.7515508879230069365e-05
1.7442531540991716265e-05
1.73865843071419598e-05
1.734906066454940598e-05
1.7327345636854137912e-05
1.7314677284841505821e-05
1.7565038659836740769e-05
1.7562918132073544628e-05
1.7553840757651751096e-05
1.7539382431690952362e-05
1.7507132637813737112e-05
1.7417465862168068848e-05
1.727196637769638928e-05
1.7143797312133791043e-05
1.703937743270960201e-05
1.6960325016435694439e-05
1.6904528078193270995e-05
1.6868443368199662519e-05
1.6847093635842233571e-05
1.6833408318585258633e-05
1.6823193337091742986e-05
1.6819808872637973657e-05
1.6832773234526894417e-05
1.6901355403597322324e-05
1.7391660439348504113e-05
1.7397751043149722465e-05
1.7468247418032404678e-05
1.7665278602041526818e-05
1.7848298038536219019e-05
1.7984339385439601579e-05
1.8072882830588549809e-05
1.8118463966244362424e-05
1.813245815871265083e-05
1.8130685999144294219e-05
1.8126964708120773059e-05
1.8127449581825988878e-05
1.814097826388854864e-05
1.818179614497713437e-05
1.8230613547803942376e-05
1.8281108433546474073e-05
1.8326819182444859945e-05
1.8360197482306935901e-05
1.8377701506368294575e-05
1.8378903229948929401e-05
1.8370225863306741343e-05
1.8355430878359219938e-05
1.8318719477049721548e-05
1.8264590002577267726e-05
1.8228555024637844355e-05
1.8208710116828599496e-05
1.8198310275347242008e-05
1.8148915103785255701e-05
1.8168884261474921413e-05
1.8171335740340916821e-05
1.8162571322559187769e-05
1.8147419185128680101e-05
1.811705929586947676e-05
1.8040904689569267866e-05
1.7946573396363932676e-05
1.7874431280256694484e-05
1.7824041580611160951e-05
1.779298233585493801e-05
1.7774717939513577468e-05
1.7762354298906914358e-05
1.775592450073608947e-05
1.7768892699482210053e-05
1.7813041828393203777e-05
1.7863941929593654185e-05
1.8382666294950553192e-05
1.8515574424492745102e-05
1.8647808694376952513e-05
1.8767300588190048667e-05
1.8858233250972259403e-05
1.8909909969805837552e-05
1.8923330204329054117e-05
1.8913717826883373136e-05
1.8893033107414837057e-05
1.8839571991774488541e-05
1.8698851076914268523e-05
1.8548423491049769883e-05
1.844181200256182033e-05
1.8376357672389141039e-05
1.8343301886130999206e-05
1.8327528694232242434e-05
1.8327501297552055643e-05
1.8389504561656425753e-05
1.8592206050392325522e-05
1.8790535842060468962e-05
1.8931870243184997614e-05
1.9027193166539705364e-05
1.9092280301767154932e-05
1.9141304119613781489e-05
1.9189298903120779446e-05
1.9245776038736858666e-05
1.931447436266495418e-05
1.8419572961184134234e-05
1.8562991311110621138e-05
1.8659109686859345824e-05
1.8714061740880678599e-05
1.8737722917117021192e-05
1.8740774703034968513e-05
1.8732524324575669365e-05
1.8719227824182697797e-05
1.8704504536563402865e-05
1.8690289681942559374e-05
1.8677806088500013907e-05
1.8670255436499957294e-05
1.8664645138530707683e-05
1.8655940856451392695e-05
1.8644279070531457313e-05
1.8637952242069645039e-05
1.4951724449082980849e-05
1.5048519939383149014e-05
1.5093957820702793101e-05
1.5103356202752760129e-05
1.5095675771049877153e-05
1.5078596293560554478e-05
1.5026313747795261048e-05
1.4879443237206968514e-05
1.4709967828551892319e-05
1.4574398816987955198e-05
1.4470890894599615489e-05
1.4396759313461449215e-05
1.4348209259932191026e-05
1.4319545595634034849e-05
1.4304075887873009189e-05
1.429472851250229117e-05
1.429581531372437194e-05
1.4331816757644782079e-05
1.4475742697791722902e-05
1.4764592868451266989e-05
1.5040008976599631934e-05
1.5284429742913588812e-05
1.5491464347580187271e-05
1.5655046077179545785e-05
1.577305316780751448e-05
1.5847629164539019602e-05
1.5885318245722443068e-05
1.5895675721300534525e-05
1.4472945686245392095e-05
1.4656898066546611312e-05
1.4820268140034383877e-05
1.4958700288142139556e-05
1.506772630799362512e-05
1.5146775057124071712e-05
1.5197799578851917308e-05
1.5225280420425216747e-05
1.5234731145480254782e-05
1.5232393559954574878e-05
1.5223545490863352381e-05
1.5212795500641878647e-05
1.5197511965047614968e-05
1.5153664419433293841e-05
1.5094440241452967413e-05
1.402055508418167605e-05
1.4032962678690966783e-05
1.4032737509515479614e-05
1.4027737575167206847e-05
1.4020758171680906565e-05
1.4007684650505270143e-05
1.3976807445779603579e-05
1.393449136675474995e-05
1.3895496586729434588e-05
1.3861148426562203991e-05
1.3833314303717873209e-05
1.3812289433170483994e-05
1.3797611541880601795e-05
1.3787950058130714817e-05
1.3782623572703780549e-05
1.3790088982359753061e-05
1.3834694974298383929e-05
1.3946803939682922031e-05
1.4070242824400128095e-05
1.4195480926099813859e-05
1.4317374764211673389e-05
1.442952717417361992e-05
1.4526336704277243515e-05
1.460418064976219442e-05
1.4661787201148370114e-05
1.4699348825001126977e-05
1.4719548454038802645e-05
1.390223207774542188e-05
1.3993006622621774056e-05
1.4070336551244891536e-05
1.4132901158629903674e-05
1.418003101493519958e-05
1.4212530572328004426e-05
1.4231699076269398063e-05
1.423957745669604717e-05
1.4238924281731046652e-05
1.4232738940876321149e-05
1.4223953708240889284e-05
1.4213932824023221447e-05
1.4194983399469466383e-05
1.4169375199267901012e-05
1.3399069222709395722e-05
1.3446866139097391049e-05
1.3480474760657597274e-05
1.3499199581736614082e-05
1.3504098401616483746e-05
1.349884558216204482e-05
1.3488058242367099434e-05
1.3472678649217730386e-05
1.3449100166663318786e-05
1.3405547802391211686e-05
1.3357226465842214559e-05
1.3319083569805048164e-05
1.3292597550467412487e-05
1.3276775442339407106e-05
1.3267992246750017071e-05
1.3261916720383708161e-05
1.3259904500798815283e-05
1.3275865515454107676e-05
1.3348046138950239899e-05
1.3458592347219133846e-05
1.3565456458249204073e-05
1.3670880371609944084e-05
1.3773367222447705218e-05
1.3870120474669124614e-05
1.3956385142540909738e-05
1.4028184404428240768e-05
1.3447863261730386405e-05
1.3488391085546371886e-05
1.3518324835702880018e-05
1.3539201767932707851e-05
1.3552754487941748001e-05
1.3560122542303019915e-05
1.3562282590777391059e-05
1.3560087805723745297e-05
1.3554668990372272211e-05
1.3547214828724922638e-05
1.3538866465590242087e-05
1.3528702475544871243e-05
1.3517976235611017677e-05
1.2926710787269043605e-05
1.2962280173757455339e-05
1.2981555374073518698e-05
1.2986480381008538908e-05
1.2980589811775111655e-05
1.2969188949707678978e-05
1.2950685393550489467e-05
1.2915965324539502052e-05
1.2865735103882472255e-05
1.2824024467916236684e-05
1.2794258739296755436e-05
1.2776049841046287819e-05
1.2766401158639158818e-05
1.2760810449347450343e-05
1.2757888970684647283e-05
1.27659699943869861e-05
1.2813458749568896531e-05
1.2915702553402516102e-05
1.3015040892968993418e-05
1.3109609303923798902e-05
1.3198406471281762961e-05
1.3279306830825861002e-05
1.3349110330189583557e-05
1.3405065844619063313e-05
1.3445306583747110689e-05
1.2978769985948067044e-05
1.2994863071599234582e-05
1.300307807561445575e-05
1.300589154156422218e-05
1.3005122725907907049e-05
1.3001631009801518793e-05
1.2996252609202983735e-05
1.2989343376647527142e-05
1.298163527149826298e-05
1.2973432875885243545e-05
1.2962543319661509118e-05
1.2948236100210021025e-05
1.2517373908034716077e-05
1.2545722375965725521e-05
1.2553767438808282697e-05
1.2548307333902085871e-05
1.2536872074597624422e-05
1.2516773787172345847e-05
1.2475232486166851838e-05
1.2419327132725277462e-05
1.2373477238847658063e-05
1.2340206173483330844e-05
1.2319312920447253099e-05
1.2307750004042828144e-05
1.2301499429984045846e-05
1.2296895535807504839e-05
1.2301450612296142067e-05
1.2340671580001391774e-05
1.2442745870010169535e-05
1.2543495312447386911e-05
1.263366333442851739e-05
1.2713535528880398037e-05
1.2781821298640314694e-05
1.2838558328568292849e-05
1.288250488104784564e-05
1.2915237639733158982e-05
1.1991873955561958059e-05
1.1991093289591483068e-05
1.198350881884301137e-05
1.1971767251387754939e-05
1.1952816760465503006e-05
1.1920373086743950975e-05
1.1888182413660958867e-05
1.1862814001338435e-05
1.184521367518070289e-05
1.1834291413123562212e-05
1.1828038361753670234e-05
1.1823462874037018905e-05
1.1825640907115233922e-05
1.1853292574830566665e-05
1.193780080677435671e-05
1.2029348745975819511e-05
1.2113457618750267413e-05
1.2190461519599264233e-05
1.2261648423747523146e-05
1.2326548044212312045e-05
1.2385995960803278015e-05
1.2438676192488505975e-05
1.2483679441605281986e-05
1.1532146134670701805e-05
1.1522468777755768464e-05
1.1510581600760258362e-05
1.1494903646024270605e-05
1.1471945074306874151e-05
1.1449648028765958108e-05
1.1431557592754037478e-05
1.1418301555108018977e-05
1.1408999958458152082e-05
1.1401932182365533792e-05
1.139623494499408037e-05
1.139911373351752146e-05
1.1434073539112278638e-05
1.154380165415962567e-05
1.1663278207839761203e-05
1.1766349708251333953e-05
1.1851873096994275017e-05
1.1920316270688020272e-05
1.1972464470273499535e-05
1.2009827067645360984e-05
1.2033905341200838173e-05
1.1086274065651195858e-05
1.1061267135760768763e-05
1.104191531020616015e-05
1.1028038358171290956e-05
1.1018837945591476507e-05
1.101183675501847611e-05
1.1007688876042994084e-05
1.1016882463503728743e-05
1.1069998877583953778e-05
1.1164347829324716596e-05
1.1251813930906131201e-05
1.1329342017234814843e-05
1.1395544974110523694e-05
1.1448338853627622989e-05
1.1487506246535655717e-05
1.1512763604988542318e-05
1.1526835022711855486e-05
1.0571277840404137195e-05
1.0568264718904887223e-05
1.0580524042282927992e-05
1.0641701067669812332e-05
1.0743924968977795035e-05
1.0835839017593799799e-05
1.0913967346801110159e-05
1.0976422706436053035e-05
1.1024065577451207679e-05
1.1059778606094061395e-05
1.1086351794433150312e-05
1.1107036830055612482e-05
1.1123989752023996251e-05
1.0123385077730235893e-05
1.0116684082668842327e-05
1.0114629013024441776e-05
1.0130235900747786316e-05
1.0198285181845487718e-05
1.0298554110526497615e-05
1.0386985911813305009e-05
1.0463961600952403566e-05
1.0530677282190547045e-05
1.058848830632707422e-05
1.0638917395164246892e-05
1.0682066174938140745e-05
5.7494271061089820423e-06
5.6408220021719165981e-06
5.5743978120538395824e-06
5.5440069125461552697e-06
5.5368844735411551481e-06
5.5390358689341053069e-06
5.5614297611077905383e-06
5.6519710628820320382e-06
5.9434156499732476771e-06
6.3295663506405157732e-06
6.6153205924586862909e-06
6.7997112198965983774e-06
6.8973035649710189027e-06
6.9313747387503465543e-06
6.9318708137705725239e-06
6.9213022654291257127e-06
6.8881414692011514112e-06
6.7802504689120931365e-06
6.6359894313231599701e-06
6.5237837682678408166e-06
9.0034231097358038943e-06
8.8461229407051114007e-06
8.7350696684890413534e-06
8.6763946504602670353e-06
8.6576714624741556538e-06
8.6559999069429374946e-06
8.6709780087147038743e-06
8.7327444775490210594e-06
8.9355055396538113019e-06
9.3204678232185241417e-06
9.647845368989045237e-06
9.8827232657416021812e-06
1.002478507888577582e-05
1.008923360026832121e-05
1.010243503036690106e-05
1.0092580314731565519e-05
1.0074468283495239935e-05
1.0026114994998729343e-05
9.9027686280489114865e-06
9.7805603691199632921e-06
9.6870815166036620036e-06
9.6194075360204134783e-06
1.6399290403622912126e-05
1.6246878937284495891e-05
1.6155402644228187501e-05
1.612154791240926079e-05
1.6111290762141931767e-05
1.6121634810201547049e-05
1.6172126414214894825e-05
1.6313123837226969784e-05
1.6664460906750911361e-05
1.7079616317447662551e-05
1.7444551294990084478e-05
1.7731280147945342182e-05
1.7928704569388548333e-05
1.8044274611426550217e-05
1.8093045040175342745e-05
1.8097900193778575044e-05
1.8080171141628049888e-05
1.8054290859832733407e-05
1.8008360587488569975e-05
1.7943039401001244373e-05
1.790119433081734126e-05
1.7879953146148131653e-05
1.7870799463078054428e-05
1.7866376808366994276e-05
1.7873821871110972441e-05
1.7890037523802326211e-05
3.6261772165209685942e-05
3.6291113490851213198e-05
3.635217665181221053e-05
3.6483830003702821441e-05
3.6717422455878182582e-05
3.7068572146792533848e-05
3.752912982392887564e-05
3.8063763121644575188e-05
3.8615071468165074089e-05
3.913009795802130581e-05
3.9561144956880479493e-05
3.9882525754811060928e-05
4.0088933078095474087e-05
4.0195293014358623388e-05
4.0226370558054968293e-05
4.0211328088884712483e-05
4.0176692382224331518e-05
4.0141926494998085952e-05
4.01244225253762768e-05
4.0149254720021108434e-05
4.0267118874928685131e-05
4.0433070941291446635e-05
4.0612097849230281634e-05
4.0797203111827821834e-05
4.09870025526661125e-05
4.118706533685506405e-05
4.1411271977666056442e-05
4.1666420298431058747e-05
7.3773090719560701972e-05
7.3840922484834448981e-05
7.395122201208276019e-05
7.4123384933525479201e-05
7.4360644502302546501e-05
7.4650729609586002965e-05
7.4971038247259699956e-05
7.5292439275941112475e-05
7.5588145608341012903e-05
7.5832519008736678731e-05
7.6010712740406921996e-05
7.6119198201102835884e-05
7.6164922641391873993e-05
7.616290232745959773e-05
7.6127485022914055364e-05
7.6070430704481704822e-05
7.6002247910938192381e-05
7.5931826113904052323e-05
7.5875801618485865809e-05
7.5850770851485535377e-05
7.5855481799403593878e-05
7.5894282330896958248e-05
7.5963906521479712696e-05
7.6059742149256286646e-05
7.6172002118399207912e-05
7.6293484252173458609e-05
7.642202397570448634e-05
7.6554875075707316378e-05
7.6687473583137948769e-05
7.6807845415931757594e-05
0.00010715083804390217984
0.00010701319768927104053
0.00010685917093863649726
0.0001067002563382863907
0.00010654237240774184874
0.00010637975218842009003
0.00010620046794549500857
0.00010599640107093501456
0.00010576983159751271761
0.00010553103045754531604
0.00010528977960663762968
0.00010505262767792048655
0.00010482404606108600067
0.00010460818559322229411
0.00010440562946049718131
0.00010421121886212594127
0.00010401570868063365286
0.00010381133029047706965
0.00010359699266659490812
0.00010337989965242212666
0.0001031706088376298919
0.00010297819406871506641
0.00010280616791327883987
0.00010264923956764047779
0.00010249568305431720956
0.00010233272313397928719
0.0001021532217475218027
0.00010195835100070326309
0.00010175388073881804429
0.00010154276689997382096
0.00010132193451794074812
0.00010108710053568828436
0.0001235178272519249108
0.00012315493597360411627
0.00012276526311052999392
0.00012236582387459353201
0.00012196956366294342522
0.00012157733396268677426
0.00012118164705465923317
0.00012078035110220367216
0.00012038213982966325659
0.00011999918930427253515
0.00011963811350908054815
0.00011929578348764375651
0.00011896452955121222849
0.00011863855785677784632
0.00011831351096057681816
0.00011798349393602443141
0.00011764168592894460555
0.00011728458908749063124
0.00011691600388042235406
0.00011654776588010990911
0.00011619371023592019643
0.00011586283576438045526
0.00011555562921950428669
0.00011526283351006346833
0.00011496974929075452721
0.0001146648793355938673
0.0001143465908155659645
0.00011402348507989345117
0.00011370669893837707649
0.00011339942908432369846
0.00011309422905648314336
0.00011277983031104554421
0.0001124503884727112024
0.00016377441463197794317
0.00016282600784221852217
0.00016186405880847570186
0.00016094647634388867729
0.00016010320950371446122
0.00015930614912836537321
0.00012962666041210706256
0.00012920071206173758607
0.00012874355845589037462
0.00012827606275672096556
0.00012781418615380614858
0.00012735889089067212935
0.00012690208882215489811
0.00012644158918488334069
0.00012598777358542440877
0.00012555429048753867049
0.00012514780609439117424
0.00012476368492681254351
0.00012439172055636013884
0.00012402414622251356621
0.00012365575958216820846
0.00012328010018302487921
0.00012288986031078330129
0.00012248136595711275301
0.00012205911209423508977
0.00012163632830340013016
0.00012122952195499807685
0.0001208491443077656691
0.00012049612717032748407
0.00012016055145984638969
0.00011982663158573217388
0.00011948236514353390437
0.00011912679320677041907
0.00011877018215352710094
0.00011842353719547899199
0.00011808797949658454522
0.00011775292673931895887
0.00011740424566940982614
0.00011703684714256908832
0.00011665898760571108547
0.00015577736549721206828
0.0001548470351280150563
0.00015387743496163728218
0.00015291169134667561354
0.00015200906391975305002
0.00015117802414488858446
0.00015037403117703149061
0.0001218216175969981987
0.00012130323206822404023
0.00012076279997585502959
0.00012022913571005685695
0.0001197161207936189533
0.00011922060212184482932
0.00011873362293550125386
0.00011825605895086872344
0.00011779967099557194594
0.00011737458540787471428
0.0001169785562128526895
0.00011659841316147432288
0.00011621971881470770057
0.00011583413021285151733
0.00011543827013744584783
0.00011502995769637577481
0.00011460844402560112936
0.00011417831872767041286
0.00011375189377922068057
0.00011334595120016115091
0.00011297321480057953547
0.00011263557471850121851
0.0001123219792807852172
0.00011201363033894457379
0.00011169223266522564151
0.00011134986209923528196
0.00011099309811530198801
0.00011063714642488493064
0.0001102920996745711214
0.00010995573083802650388
0.00010961623247604850506
0.00010926449114424356408
0.00010890410501773853695
0.00010855116941267670193
0.0001082250398353202923
1.1353511548130648244e-06
1.1108734132540228912e-06
1.0942842172790955295e-06
1.0845065849993778689e-06
1.0799503537382377482e-06
1.0784573058567358699e-06
1.078189214547520988e-06
1.0806065597089367698e-06
1.0922396547474711667e-06
1.127047470316079031e-06
1.1685732071114276352e-06
7.7356371726439348292e-07
7.8276337978927967779e-07
7.8837861797759670536e-07
7.9009344302488169721e-07
7.8947375627020309402e-07
7.8618796755031059382e-07
7.7968145121956076041e-07
7.7687945836837806808e-07
7.76708880164870025e-07
7.8213103422570719695e-07
8.0747701788412066241e-07
8.4329600284419055967e-07
8.645432767955977283e-07
8.7357500201508538504e-07
8.753224850557445555e-07
8.7463832561785025104e-07
8.7208022215088231876e-07
8.7039628558113599965e-07
8.7023739802979340476e-07
8.732907885851046377e-07
8.8872071569822972568e-07
9.1832519799981110126e-07
9.3948292113023708656e-07
9.5119148814628251781e-07
9.554410016306193802e-07
9.5549696993499786436e-07
9.528584975114448706e-07
9.398161589076975995e-07
9.1051499900636862286e-07
8.8932734494466713671e-07
8.7883106735003540723e-07
8.7619938205082330608e-07
8.7778279700146562914e-07
8.9278249564272063538e-07
9.4904355010854562453e-07
1.0149070005749064574e-06
1.1893989588612383532e-06
1.2481289021320666053e-06
1.297971972978432826e-06
1.3301006308097816439e-06
1.3476305986797994769e-06
1.3544868774007906339e-06
1.3551138069851510444e-06
1.3533952700706711651e-06
1.347457198185126221e-06
1.3264483529783190043e-06
1.2792682305408651904e-06
1.2364595045513403061e-06
1.2032339508581607271e-06
1.1803100001677032184e-06
1.1667655266378548602e-06
1.1604655093615832004e-06
1.1585976198836026986e-06
1.1583695088380113361e-06
1.1609899253053900674e-06
1.1735772947040064399e-06
1.2054031014095502303e-06
7.5805564989196544368e-07
7.5987767507762605217e-07
7.6083987565016967774e-07