/*--------------------------------*- C++ -*----------------------------------*\
  =========                 |
  \\      /  F ield         | OpenFOAM: The Open Source CFD Toolbox
   \\    /   O peration     | Website:  https://openfoam.org
    \\  /    A nd           | Version:  12
     \\/     M anipulation  |
\*---------------------------------------------------------------------------*/
FoamFile
{
    format      ascii;
    class       volScalarField;
    location    "0.017";
    object      p;
}
// * * * * * * * * * * * * * * * * * * * * * * * * * * * * * * * * * * * * * //

dimensions      [1 -1 -2 0 0 0 0];

internalField   nonuniform List<scalar> 
106891
(
99132.503231242168113
99141.916449174590525
99156.499253867106745
99174.955226190664689
99195.448698938664165
99215.863166428229306
99234.088289872845053
99248.315568174846703
99257.290450422442518
99260.429697254628991
99257.71550222071528
99016.541547456625267
98984.949737692004419
98961.5109172664379
98945.184917142149061
98933.394527790442226
98924.691244042565813
98920.149430058474536
98922.497154948723619
98932.857443689805223
98948.823635396474856
98964.145780947772437
98971.6170161425689
98967.643376644526143
98953.376523513128632
98934.668118962275912
98918.654111648342223
98910.95084579171089
98913.837011500043445
98926.166708162869327
98945.411304882713011
98968.417898417814285
98990.879365377681097
99007.946502615362988
99016.035243721373263
99015.355222801779746
99010.067796979055856
99006.168001320387702
99007.984022797798389
99015.812918025738327
99027.178440831587068
99039.704291029178421
99052.705355264057289
99067.167922077569528
99084.142900087594171
99101.480318201764021
99114.758036605053348
99120.227536519771093
99115.758968991023721
99154.289231926406501
99158.389774634662899
99159.78754577403015
99158.043087237907457
99153.476077904095291
99147.023806019642507
99140.166012594519998
99134.750351263035554
99132.63313884906529
99135.194438592516235
99143.080520986215561
99156.116582667542389
99173.318873576281476
99193.038462299489765
99213.259032305941219
99231.857774262462044
99246.864174252943485
99256.854334611081867
99261.179235813367995
99259.839190427621361
98980.475793780715321
98956.214485254211468
98939.865724861403578
98928.145172616365016
98918.189784131682245
98910.371066681662342
98908.705358112769318
98916.452331083273748
98933.215569295629393
98953.161299190775026
98968.185871377732838
98971.585539947482175
98961.90616738825338
98943.420646816739463
98923.262934457219671
98909.106116015769658
98905.764631314188591
98914.590389338831301
98933.814876185904723
98959.172140147158643
98984.099669479066506
99001.870845527082565
99007.73649999560439
99001.653655798916589
98988.191902507838677
98975.416087665929808
98970.155539197978214
98975.301329534326214
98989.952674100582954
99011.606517547916155
99036.007881835088483
99059.644422747966019
99079.98269372395589
99094.219215013028588
99100.442848016697099
99098.64292854690575
99147.920618840464158
99153.756728878230206
99157.099950715317391
99157.314942434764816
99154.480324615447898
99149.401624971316778
99143.464906804409111
99138.439388031241833
99136.058819201818551
99137.663987473715679
99143.924312770235701
99154.848637555638561
99169.714499324705685
99187.143789606037899
99205.373269255578634
99222.54942877368012
99236.926788058553939
99247.032582692641881
99252.006545360636665
99251.813047381467186
98978.981454609078355
98955.619440920869238
98939.236607563463622
98926.969421895293635
98916.474242921496625
98907.594905691526947
98904.52168109457125
98911.014892904378939
98926.534359002456767
98946.466363535539131
98963.550152322306531
98970.404615607054438
98964.338123298352002
98947.681509817019105
98927.112363040185301
98909.956118357455125
98902.673765859901323
98908.440039655703004
98926.153489548407379
98951.591554121623631
98977.277915519109229
98995.008568896533689
98999.202142400026787
98989.42644786600431
98970.286426372083952
98950.406850125349592
98938.318022942636162
98939.875076649841503
98956.000581352913287
98983.37185563557432
99015.607850016327575
99045.027376105965232
99065.41243704003864
99074.207245785059058
99072.741852306251531
99064.977951423396007
99146.914212593212142
99151.503813423361862
99153.558859202210442
99152.89199983884464
99150.020068568948773
99145.974021597925457
99142.114016055711545
99139.913063924352173
99140.697599551698659
99145.177902451818227
99153.356952841466409
99164.747186503678677
99178.347773906847578
99192.872568662758567
99206.830281786023988
99218.811568878125399
99227.629899513121927
99232.382151924437494
99232.98887614425621
98959.896084875203087
98943.806827350548701
98930.426904749270761
98919.795234732766403
98912.89238381049654
98911.725796049882774
98918.537446503032697
98931.813025362658664
98947.372905898504541
98959.702909202547744
98963.929521540092537
98957.898936487239553
98942.818417254267843
98924.555479895163444
98909.012053424565238
98902.199345452099806
98907.183261367274099
98923.315715398624889
98946.664621063158847
98970.186212509739562
98986.091863176232437
98988.889119876170298
98977.664441945773433
98956.433693411032436
98933.288070681592217
98917.511330971727148
98915.805257559928577
98930.597724046383519
98958.51290367533511
98991.503195531651727
99019.448178200182156
99035.508088504822808
99037.816498067957582
99030.199435899281525
99131.551936693664175
99138.066669227147941
99143.641783358267276
99147.697776289263857
99149.83794729935471
99150.102164515439654
99149.031042175745824
99147.423063668436953
99146.178286511902115
99146.200655467066099
99148.276169314965955
99152.711993109405739
99159.288639602804324
99167.43031262504519
99176.404937093699118
99185.365454182290705
99193.390357558469987
99199.647573691298021
99203.483049741189461
99204.798933742611553
98968.378678570428747
98952.827524453183287
98938.38774392727646
98928.361940796676208
98924.81075339486415
98927.915958467681776
98936.218356606623274
98946.240299583718297
98953.965174922996084
98956.252586230693851
98951.718658119105385
98941.344064262404572
98927.213548204963445
98913.719302795623662
98904.821270869419095
98903.677615218868596
98911.308538873287034
98926.55241892945196
98945.365697924687993
98962.503439869076828
98972.82883752854832
98972.824464637931669
98961.959321013870067
98943.569469224035856
98923.633670113747939
98909.688181637626258
98907.029579617708805
98917.896722429781221
98939.071026222591172
98962.829752666104469
98980.919331732351566
98988.407672991845175
98984.987445452454267
99127.93305701452482
99135.000455024215626
99141.803413591216668
99147.730040870243101
99152.232431016775081
99155.044781965843868
99156.202539903431898
99156.081601907979348
99155.216018142557004
99154.255143777307239
99153.831730438410887
99154.300115226069465
99155.753214023337932
99158.036079862009501
99160.916909120613127
99164.116443267659633
99167.270250006738934
99170.049026626467821
99172.358034223900177
98964.043023494406953
98950.185790107352659
98940.701495504501509
98939.257625986996572
98945.027604305330897
98953.569454136799322
98959.148360246865195
98957.718106706248363
98948.338554075060529
98933.299398402887164
98916.951234332518652
98904.589821847097483
98898.592745544476202
98900.395198464597343
98909.07201439171331
98921.878985923307482
98935.693519598513376
98946.978008398829843
98952.975574842625065
98952.676617487726617
98947.125295547913993
98937.914904173987452
98927.402190363049158
98918.016808534448501
98911.860949077105033
98911.047098162045586
98915.788989661989035
98923.482681702254922
98930.137659087005886
98933.005423828319181
98930.410198907455197
98924.271098856115714
99118.922144352065516
99128.583793743964634
99139.261376924390788
99149.825289079730283
99159.079736617641174
99165.943529782030964
99169.708266152330907
99170.224243834498338
99167.745703241002047
99162.936151678659371
99156.7892636659235
99150.40880298987031
99144.735672013513977
99140.323822716090945
99137.489332275508787
99136.384027001171489
99137.074024544315762
99139.511317085518385
99143.538633560339804
98963.836029345169663
98956.00732864823658
98953.560547942019184
98956.034683242905885
98959.136763106987928
98958.26532750055776
98949.801776814827463
98932.837810473996797
98912.023171459353762
98894.289191709220177
98885.830671859293943
98889.660757811929216
98903.661590861243894
98922.224005419499008
98938.980293536893441
98947.954065663274378
98947.103647978728986
98937.801177998204366
98924.112189562612912
98911.299353952155798
98904.020058071546373
98903.464888474802137
98908.129532126855338
98913.882557167802588
98917.35976450770977
98915.756856815889478
98908.654183682156145
98898.103016272274544
98886.255874658701941
98876.170789334151777
99127.368678965736763
99142.301824034177116
99157.433189053466776
99170.873929805005901
99180.871892983675934
99186.211036653083283
99186.266612203864497
99181.251562779056258
99172.113980425710906
99160.337946724714129
99147.718043781831511
99135.88512648807955
99126.188727885906701
99119.404836338580935
99115.899465127062285
99115.815860527291079
99119.003484020911856
99125.305127831743448
98970.595074590644799
98963.986453520847135
98957.079070420339121
98949.786254459962947
98940.113209662144072
98926.280433848398388
98908.441805110967834
98890.049922962643905
98877.647807946050307
98878.173672485310817
98893.009879394754535
98917.071727211718098
98941.468505405078758
98956.096707420350867
98955.042043956753332
98939.173607759134029
98914.934394333293312
98890.325489828712307
98872.861761134059634
98867.456322708603693
98874.179701768167433
98888.748868564885925
98903.191131151412264
98910.689096860049176
98906.865718556626234
98892.396725463593611
98872.385347059796914
98853.707380674473825
99130.195242119123577
99148.211139717328479
99166.345741822122363
99182.177321204784676
99193.520043187774718
99198.880385515745729
99197.688505313257338
99190.362594321268261
99178.159242122710566
99162.890648895379854
99146.6354920490121
99131.49443118488125
99119.256246591059607
99111.105758494668407
99107.544858658497105
99108.502274084472447
99113.551865348912543
99122.132259418503963
98966.16667958907783
98948.430690448163659
98929.622909309182432
98913.077433599333744
98898.39433034294052
98885.245457887096563
98874.938564804891939
98872.560951263323659
98882.00355581913027
98903.324523379415041
98930.452283451653784
98951.467057734844275
98957.442610931480885
98945.860397458789521
98920.594775391029543
98889.902049949858338
98862.628450659947703
98845.477015972719528
98840.932121693564113
98847.344608427796629
98860.604193880310049
98874.191025660460582
98882.698363915405935
98881.797149879537756
98872.108307148097083
98857.94123606197536
98844.505374904401833
99153.275093113945331
99171.173398773113149
99186.50165631803975
99197.168189033385715
99201.647800982158515
99199.429719828593079
99191.114736419011024
99178.158288178936346
99162.520980863584555
99146.328359872510191
99131.57922928185144
99119.915781057963613
99112.524314777649124
99109.989692916919012
99112.257037179326289
99118.719678330409806
99128.531127551948885
98967.599601616151631
98950.740189455027576
98927.252246715957881
98905.405739406225621
98890.556658444475033
98881.520947967874235
98875.353681593580404
98872.130296781906509
98873.551027819063165
98883.371198502703919
98900.534101673896657
98919.286609361370211
98930.902078976825578
98929.325309954248951
98914.580863839844824
98892.245202737685759
98869.9461489761743
98853.573238277429482
98843.587171714607393
98837.658461088387412
98834.290767291749944
98832.940805304795504
98835.460482837384916
98840.468827897217125
98847.128316126574646
98852.001070807207725
98852.585892440372845
99168.506310555705568
99181.722579879060504
99190.947858875762904
99195.026046433937154
99193.532888625792111
99186.867977256406448
99176.195046405919129
99163.176552448334405
99149.661591079770005
99137.382704514326178
99127.722514768902329
99121.6220418951998
99119.532619674064335
99121.483163296157727
99127.073486463385052
99135.697521894559031
98933.772513360745506
98913.022739677428035
98891.755333717621397
98878.766369885430322
98876.43745854482404
98880.620811512722867
98884.485227559096529
98884.206684056858649
98880.767806496442063
98878.097433505012305
98878.651232735821395
98881.277373944831197
98882.455640200190828
98879.515715181521955
98872.995850864084787
98866.177603431642638
98862.377641251136083
98861.597868498880416
98859.667876625695499
98852.041106504824711
98838.413118947166367
98822.927884782809997
98812.268130316006136
98811.214771167840809
98818.856508575641783
98830.023027682487736
98839.044473651796579
98843.649077966969344
99173.803625434098649
99183.21123472895124
99188.415290636665304
99188.982168854548945
99185.049524651287356
99177.4052817588381
99167.36095076536003
99156.480361491368967
99146.310953683030675
99138.100758390195551
99132.665327755981707
99130.407626636180794
99131.404846702716895
99135.341509926161962
99141.743690536008216
98871.282639523604303
98854.713824540871428
98852.213385807961458
98863.515735206630779
98881.434508689068025
98895.282194954779698
98897.593180365729495
98888.856986321799923
98872.972636649370543
98856.696832935485872
98844.579355824069353
98837.562624858881463
98835.505493582575582
98838.913270036413451
98847.556237022508867
98859.929707257644623
98871.111768379705609
98874.218641910367296
98865.02870647078089
98845.177001367526827
98822.039055168599589
98804.627536102096201
98798.785014051798498
98804.120842473013909
98814.925791725458112
98824.227901040983852
98828.491780002819723
99178.064206678900518
99184.922212413046509
99187.312833227508236
99185.324969976674765
99179.655520843909471
99171.514292843014118
99162.319330353318946
99153.520136249921052
99146.306531671449193
99141.537830523098819
99139.594434642014676
99140.373045093976543
99143.407529751362745
99148.104399343035766
98818.199319105333416
98825.984632707302808
98849.417055973448441
98878.021509574959055
98899.194216395015246
98903.902920192718739
98890.835815362690482
98865.896145971491933
98838.233796765824081
98815.651421742339153
98803.696259775315411
98804.194451358256629
98816.414945049298694
98837.399294427246787
98860.750649292458547
98877.961153556883801
98882.120361638953909
98870.930579138468602
98848.438587100274162
98823.410073568869848
98804.581970517232548
98796.650028568212292
98798.2907203934883
98804.12069576230715
98808.26707812580571
98808.221276843833039
99183.359049609411159
99187.021115140349139
99186.043870023757336
99181.310106961798738
99174.114741837620386
99165.964201629860327
99158.347727163913078
99152.446075771425967
99149.044692791590933
99148.276665266326745
99149.731737287424039
99152.724331292774878
99156.513350625828025
98805.09132885200961
98835.673737773977336
98869.748556405393174
98893.805738438924891
98898.720407050524955
98883.552747083507711
98854.867052645757212
98823.138243646288174
98797.703928024799097
98785.727610414047376
98789.828777879913105
98808.270985059236409
98835.857257664145436
98863.146621978099574
98880.208656809743843
98881.838568177103298
98868.676400445896434
98846.690824707126012
98824.057951459937613
98807.607255834183889
98799.676517175685149
98797.746960558986757
98797.061830018588807
98794.239541230796021
98788.948449309595162
99185.587526556962985
99184.809627613867633
99180.269511992839398
99173.448726748378249
99166.142461056006141
99159.934557776141446
99155.966594412151608
99154.729281178195379
99156.043264129257295
99159.107428468487342
99162.940833605200169
99166.639189760302543
98826.369810793883516
98858.984122674242826
98880.271405997802503
98883.265177706402028
98867.963543576130178
98840.960586800036253
98812.056735597536317
98790.268660941743292
98782.045596983545693
98789.958482308618841
98811.783362416128512
98840.286312207972514
98865.133268677411252
98877.811255108841578
98875.401727895849035
98860.979296270263148
98841.313761568279006
98823.301634104078403
98810.965614740271121
98803.663830581703223
98798.507570443005534
98792.342569025044213
98784.112957874312997
98775.431641662449692
98848.528484978087363
98862.922192153302603
98861.821771611721488
98847.087838023013319
98824.90071882357006
98803.14417900981789
98788.784368810200249
98786.669208417719346
98798.327996453066589
98820.561518152811914
98845.707661701992038
98864.791160902852425
98871.735450530919479
98865.814434870830155
98851.619909683184233
98835.572221962982439
98822.651524683824391
98813.849788593288395
98806.868218726391206
98799.019099525481579
98789.377964576808154
98779.065594367391896
98770.148142686070059
98840.255951208033366
98826.378062009374844
98809.802495394440484
98796.021356417186325
98789.683889563719276
98793.265294479089789
98806.972073562748847
98827.528056919385563
98847.758877793487045
98860.756280514629907
98863.1128710940975
98855.80945308682567
98843.665966697139083
98831.993249305654899
98823.4257752198464
98816.631887600204209
98809.216661323298467
98799.394794357693172
98788.415682366670808
98778.841276283244952
98772.47067878836242
98790.777145614600158
98797.501912273044582
98810.947300703279325
98828.334876903187251
98843.844537792581832
98852.426971289576613
98852.70237740848097
98846.646912322306889
98838.43868312369159
98831.534490140795242
98826.207715377822751
98820.176621692997287
98811.668046585284173
98800.790854301129002
98790.145218118879711
98782.753576868199161
98780.127072312650853
98833.79812844285334
98840.243118913247599
98841.157332509494154
98838.628769201503019
98835.538467699283501
98833.350984820703161
98830.705845737131312
98825.101663929715869
98815.508110501337796
98804.053705059050117
98794.330469303764403
98789.522765708956285
98790.654806567938067
98825.926248210656922
98829.136143113501021
98830.997895132633857
98833.094212783806142
98835.402665088098729
98835.508216319853091
98830.557761111471336
98820.452911268977914
98808.608551450059167
98799.636713394662365
98797.092499557387782
98801.244591220922302
98786.273805708580767
98769.132086666242685
98756.827416548650945
98752.269545403265511
98755.604481157351984
98766.121861216059187
98783.53501142199093
98805.982580173236784
98826.928054025716847
98835.77973784324422
98824.603463723222376
98794.675650122750085
98755.311772489294526
98718.396539584486163
98692.901536935591139
98682.458238837207318
98686.325747487819172
98701.430168656006572
98722.541088270154432
98742.924913676513825
98814.683819371566642
98794.012975612698938
98773.677185771986842
98757.638316756245331
98750.430881786931423
98753.165408704953734
98764.306307555365493
98782.216104409671971
98804.185393800958991
98824.057645200853585
98832.702340810195892
98822.367970743420301
98793.419734623617842
98754.233825537696248
98716.389819472256931
98689.540327838782105
98678.555809172947193
98683.085952748006093
98699.181956886721309
98720.263287825582665
98738.895348230260424
98749.830729335924843
98867.820331761686248
98845.837156800072989
98824.287997784034815
98801.389946154871723
98777.844469281175407
98758.245232905697776
98748.509223379878676
98750.639148737493088
98762.414794240074116
98780.754288608586648
98802.235491398721933
98821.041094579544733
98829.352894165567704
98819.842399667657446
98791.839324340791791
98752.886526457383297
98714.377643406798597
98686.577407745207893
98675.425218763499288
98680.891230567198363
98698.084359499276616
98719.151444792514667
98736.061783990866388
98744.670950009938679
98745.778027166132233
98743.200409321987536
98903.225384471836151
98879.293106469573104
98855.701845084069646
98833.021682782724383
98808.185242425563047
98781.508739732598769
98758.644337523117429
98746.615786016744096
98748.194104462323594
98760.621438421745552
98779.410979693086119
98800.436832246588892
98818.382552540570032
98826.281294324086048
98817.454288413820905
98790.286362987186294
98751.475574452633737
98712.370343252725434
98683.866645033180248
98672.778634636182687
98679.381648421578575
98697.781409203991643
98718.880716752217268
98734.192060490444419
98740.497201593767386
98740.556695737264818
98739.559266629483318
98739.465120129927527
98930.592391674916144
98914.590565492064343
98889.212308897185721
98864.232027147096233
98840.55818678997457
98814.190131322320667
98784.812992773891892
98758.887312771650613
98744.782792069920106
98745.859886801379616
98758.90646904220921
98778.100674468674697
98798.708784314076183
98815.970256874541519
98823.550917659275001
98815.308927884019795
98788.944006721198093
98750.165924708926468
98710.441985949582886
98681.37644125452789
98670.487579403896234
98678.311693698837189
98698.025182625191519
98719.237225721968571
98733.095277426953544
98737.174108687613625
98736.116364088709815
98736.391152811745997
98739.252497089168173
98739.281415484758327
98931.935091372666648
98940.73610634925717
98924.119525413610972
98897.220527039869921
98871.193276681384305
98846.702969922218472
98819.068427427628194
98787.371838900187868
98758.659997281196411
98742.838967280666111
98743.659535093349405
98757.39786059637845
98777.068521668130415
98797.449991139554186
98814.216291786928196
98821.656264251010725
98813.784066166859702
98788.039967164775589
98749.133260351081844
98708.6462144490215
98679.055354027877911
98668.419749878812581
98677.451145386366989
98698.536201868206263
98719.987746350845555
98732.555801356313168
98734.638445294011035
98732.457451674286858
98733.694803921112907
98739.222993893432431
98741.849623409449123
98731.861935528504546
98939.148679090867518
98948.893921851748019
98931.538652829505736
98903.316495519073214
98876.280783476177021
98851.548859945803997
98822.981408976076636
98789.268820438461262
98758.55995623281342
98741.254444551072083
98741.856962267804192
98756.150308237614809
98776.268462433334207
98796.51130478833511
98812.92818713010638
98820.315772383357398
98812.779862401555874
98787.443602655330324
98748.38444194776821
98707.141573342800257
98677.051517829910154
98666.706043639132986
98676.798107287526364
98699.153219430270838
98720.920749824450468
98732.424069998916821
98732.78295408411941
98729.622981551612611
98731.601224625890609
98739.325128462660359
98744.186235451008542
98735.010605799179757
98707.556149435433326
98977.44465234746167
98959.106812464960967
98924.089697094110306
98909.24123419400712
98933.401269509879057
98978.450392439073767
98944.391917642627959
98954.666935857749195
98936.617106492180028
98907.337822405213956
98879.785775224954705
98854.69760147879424
98825.414664016265306
98790.380752633936936
98758.191801310356823
98739.866439013640047
98740.39531075238483
98755.245939307482331
98775.749657222273527
98795.956898575284868
98812.178699121723184
98819.603532783105038
98812.318377808202058
98787.152066255439422
98747.870219123273273
98705.873842748842435
98675.425097040933906
98665.351350765544339
98676.294021827357938
98699.626445230911486
98721.732633962688851
98732.48356487856654
98731.519072963536019
98727.681802512321156
98730.133834674881655
98739.460688817358459
98745.978124925561133
98737.35761493742757
98709.109990641343757
98669.521535960069741
98961.96299448182981
98978.132909576190286
98959.792288727883715
98922.84912352784886
98907.457953058677958
98931.892195591979544
98978.230300184470252
98947.387107745729736
98957.668728071337682
98939.210899269863148
98909.511864813641296
98881.571617909503402
98856.222463881960721
98826.566856674457085
98790.896602558728773
98757.857729715658934
98739.137890780257294
98739.6314297640929
98754.685459325206466
98775.477671316810302
98795.733750819868874
98811.89007671904983
98819.361988527874928
98812.17869671646622
98787.055591864060261
98747.57460388985055
98705.293584588580416
98674.36442762457591
98664.590565123420674
98676.059850593301235
98699.950548197404714
98722.256780628595152
98732.598334424765198
98730.819964656868251
98726.650366738205776
98729.422266774286982
98739.648418327793479
98747.025864624840324
98738.674483147697174
98709.946369308701833
98669.300149335918832
98634.671240580428275
99106.87318475585198
99095.802415674697841
99087.734690599900205
99083.536151663211058
99083.955308662829339
99089.572855358288507
99100.651511897536693
99116.948873253757483
99137.597671768409782
99161.187102173294988
99185.737910988435033
98986.129732322675409
98983.386960302304942
98982.080937035323586
98977.207169504283229
98964.577886921761092
98943.808207047710312
98919.438683034735732
98897.446894282053108
98882.018909802514827
98875.290533579012845
98877.529230693049612
98888.484508058405481
98907.446350729005644
98933.170425532545778
98962.968149919368443
98992.273166833867435
99015.738268856803188
99029.625429554274888
99032.756510382736451
99027.070858372317161
99017.788624706299743
99011.984130737007945
99015.433116202359088
99029.97132130258251
99052.87030838530336
99077.929626560842735
99099.773886923183454
99114.765141823358135
99122.936886800918728
99125.219078203037498
99121.985771729319822
99112.827378930844134
99099.244341945610358
99084.899263140803669
99075.202619045317988
99073.712901258535567
99145.764462970051682
99151.966151834101765
99156.904753988521406
99159.671856157336151
99159.67171716435405
99156.602588545749313
99150.475826629743096
99141.661235133171431
99130.852056119954796
99119.014235417635064
99107.307325070243678
99096.976241466283682
99089.236349798651645
99085.309559580855421
99086.344372246632702
99093.205285595133319
99106.224810997024179
99124.944687401599367
99148.039219477519509
99173.41207207115076
99198.597806933103129
98971.587623352534138
98976.01706695179746
98978.010548005040619
98973.699500244372757
98961.178386223196867
98942.641053635947173
98923.496881417187979
98908.036393375077751
98898.27060236048419
98894.543235938806902
98897.182656230739667
98906.440334991362761
98922.290548548800871
98943.568609265334089
98966.859047578822356
98988.257828782036086
99003.97735186869977
99012.670018006174359
99014.719095543521689
99011.849092008065782
99006.862040759442607
99003.207276009212364
99004.358508434946998
99012.012161207821919
99025.602199958288111
99042.584347340292879
99059.811697163211647
99074.112070582676097
99083.677769584392081
99087.532857238067663
99085.349243293778272
99077.170953660795931
99065.640419358795043
99055.772090264537837
99052.940324130307999
99059.865805555702536
99128.151744709830382
99132.954580643927329
99137.697510900747147
99141.588965385017218
99143.972713362891227
99144.275244055970688
99142.052434467783314
99137.087179643494892
99129.521600796098937
99119.943083335470874
99109.502961220830912
99099.686581135683809
99092.202167974042823
99088.673115848228917
99090.506800678762374
99098.67592821145081
99113.40760992714786
99133.99542267472134
99158.662585223821225
99184.753203642903827
99209.39383620506851
98971.102708480713773
98974.211185963140451
98969.847110571005032
98959.312576566459029
98947.63193818795844
98938.690575575077673
98933.114227279365878
98930.272886560487677
98929.169759460186469
98929.776945755656925
98933.689378763810964
98942.251959509798326
98955.053870376199484
98968.905623615253717
98980.155987289283075
98986.511904485014384
98988.162747435242636
98987.404009009274887
98986.689168612778303
98986.805611693300307
98987.866529153761803
98990.165069335140288
98993.956013036702643
98999.653471351601183
99007.58294968730479
99017.201889682095498
99026.705009826546302
99034.191687166734482
99037.463068407247192
99035.516868995182449
99029.206544473403483
99022.213546804152429
99020.017732555425027
99026.952028794941725
99115.717965005082078
99120.18784515815787
99125.242897225922206
99130.110895707315649
99133.856961178636993
99135.517549234253238
99134.321737503472832
99129.902620098393527
99122.578050523865386
99113.431095228981576
99104.191536617174279
99096.936144685547333
99093.734404330854886
99096.258217333510402
99105.458103579003364
99121.343850277669844
99142.844530407994171
99167.831462141068187
99193.297690643390524
99216.162293889967259
98967.946462047475507
98970.359881160897203
98965.820581891253823
98960.512147547779023
98959.575293002853869
98963.329428656885284
98969.007084713535733
98972.603218812597333
98971.808205900801113
98966.868487684143474
98961.682682357233716
98959.761189134806045
98961.810130697514978
98965.54367422775249
98966.780214945727494
98963.846899369396851
98957.821287837301497
98952.837012191739632
98952.795247566435137
98957.840090765850618
98965.688569187695975
98973.053878685808741
98977.552011700783623
98978.921262131130788
98978.894828733202303
98978.996584387874464
98980.131422019199817
98981.35051142492739
98981.069576308786054
98978.103138027043315
98974.238920030897134
98973.450468814640772
98980.613320193893742
98998.114629085743218
99103.029641355096828
99106.669373530807206
99112.042908362607704
99118.373110132015427
99124.571460784325609
99129.346816461591516
99131.433773926983122
99130.007800014442182
99125.071898660462466
99117.589270140597364
99109.46176575741265
99103.015711018277216
99100.552959394321078
99103.813342161112814
99113.688936966456822
99129.946196374788997
99151.208511847900809
99175.130158810061403
99198.608657759599737
99218.641373285761802
98966.604246198417968
98964.326022931752959
98966.425607019336894
98975.974196999944979
98991.031803055404453
99005.366602330686874
99011.832948216513614
99007.351133947639028
98994.42967314714042
98979.160862569362507
98967.563296610664111
98960.578524467593525
98955.885830850267666
98949.277987116933218
98938.680577654842637
98925.872943455557106
98915.989779643336078
98914.430068934627343
98922.955884909984889
98938.168584707847913
98953.411160774034215
98963.005915883724811
98964.517236428626347
98959.278161807524157
98950.67299542503315
98941.921989706112072
98934.289552987072966
98927.935627961574937
98923.034740417118883
98921.739002093061572
98927.203880230561481
98942.594289395492524
99099.527728853063309
99103.823980413551908
99109.818363502854481
99116.423911487843725
99122.293909691099543
99126.106002540152986
99126.872463271341985
99124.338728711518343
99119.238352798711276
99113.29015207356133
99108.776536266086623
99107.921567768702516