/*--------------------------------*- C++ -*----------------------------------*\
  =========                 |
  \\      /  F ield         | OpenFOAM: The Open Source CFD Toolbox
   \\    /   O peration     | Website:  https://openfoam.org
    \\  /    A nd           | Version:  12
     \\/     M anipulation  |
\*---------------------------------------------------------------------------*/
FoamFile
{
    format      ascii;
    class       volScalarField;
    location    "0.017";
    object      pMean;
}
// * * * * * * * * * * * * * * * * * * * * * * * * * * * * * * * * * * * * * //

dimensions      [1 -1 -2 0 0 0 0];

internalField   nonuniform List<scalar> 
106891
(
99569.688731395857758
99569.926081027282635
99570.187313365313457
99570.47299444663804
99570.784081536970916
99571.121414423090755
99571.48645186352951
99571.880046106554801
99572.303545987975667
99572.755520087957848
99573.231551986988052
99605.571048175581382
99605.412020267234766
99605.256743285688572
99605.103889339938178
99604.952511846553534
99604.802005255362019
99604.652065131420386
99604.502209275349742
99604.351506703489576
99604.199109724693699
99604.044766763588996
99603.889397473190911
99603.734648626297712
99603.582316186802927
99603.433883927384159
99603.289342425152427
99603.147807780987932
99603.008015949235414
99602.868612113656127
99602.728466181215481
99602.586962080924422
99602.443943435166148
99602.299886813605553
99602.155967272236012
99602.013762379108812
99601.87442476626893
99601.738134161612834
99601.60406038929068
99601.470934391240007
99601.33769344999746
99601.20371425349731
99601.068905818843632
99600.93317237739393
99600.796231389103923
99600.657780293026008
99600.517955944917048
99600.377599872823339
99600.23787995474413
99571.129076245561009
99571.237140199868008
99571.36156450593262
99571.503458320512436
99571.663984353333944
99571.844277414420503
99572.045309713503229
99572.267918504061527
99572.512712511728751
99572.780160072230501
99573.070651532965712
99573.384676209301688
99573.72273264330579
99574.085627877997467
99574.474175494804513
99574.889556005597115
99575.332573388397577
99575.80396997340722
99576.302160659543006
99576.821359833382303
99605.423799045296619
99605.267500817368273
99605.113745205060695
99604.961331451238948
99604.809885967843002
99604.659465483491658
99604.509901342491503
99604.360229822181282
99604.209117213249556
99604.055655059535638
99603.900366240282892
99603.744732131031924
99603.590735759091331
99603.439867313776631
99603.292968391207978
99603.149699649613467
99603.008999889774714
99602.869323905179044
99602.72909072964103
99602.587089855252998
99602.442933417187305
99602.297279486127081
99602.151750403136248
99602.008395646233112
99601.868784403428435
99601.733298558174283
99601.601290194623289
99601.47114282718394
99601.340988907759311
99601.209411529474892
99601.075617810129188
99600.939405372206238
99600.801035025520832
99600.661187497113133
99600.520873017871054
99600.381220624753041
99573.780642390149296
99573.939025921121356
99574.11385462967155
99574.306166419046349
99574.517057975928765
99574.747562631702749
99574.998589303853805
99575.270930284488713
99575.565197553863982
99575.881909208823345
99576.221455625200178
99576.584216473740526
99576.970532355553587
99577.381013077087118
99577.816319089673925
99578.277509587045643
99578.765356752148364
99579.280797079758486
99579.822818527027266
99580.387135582845076
99605.449609255098039
99605.291851524234517
99605.13602181202441
99604.981602188345278
99604.828410292990156
99604.676554104167735
99604.525812818203121
99604.37525633261248
99604.22356032046082
99604.069647078198614
99603.913530598423677
99603.756360008017509
99603.600234541328973
99603.447150906067691
99603.298396287180367
99603.153851780516561
99603.012491773915826
99602.872609742407803
99602.73242102417862
99602.59050488176581
99602.446488417888759
99602.301061308855424
99602.15579359907133
99602.012655893282499
99601.873440533978282
99601.738774540965096
99601.608073901967146
99601.479624718165724
99601.351205691869836
99601.220915282814531
99601.087563340595807
99600.95086963295762
99600.811602562680491
99600.671237943111919
99600.531300495553296
99600.39299519683118
99576.66828096655081
99576.890866197063588
99577.130760402869782
99577.388947622865089
99577.66636809144984
99577.963879179267678
99578.282167864759685
99578.621788404198014
99578.983251180558
99579.367017488519195
99579.773530654245405
99580.203236093235319
99580.656616948370356
99581.134230201234459
99581.636647154315142
99582.164414497019607
99582.717587408682448
99583.29514935122279
99583.891609996644547
99605.308047879021615
99605.150503859418677
99604.994527508228202
99604.839923286781413
99604.686488873470807
99604.533865314500872
99604.381294086488197
99604.227805601942237
99604.072932898357976
99603.916809421163634
99603.760431035974761
99603.605180734535679
99603.452572478519869
99603.303692829969805
99603.158538463045261
99603.016177250552573
99602.875020716237486
99602.7334053801751
99602.590177019650582
99602.4450160174747
99602.298565055243671
99602.152394604534493
99602.008723365754122
99601.869363586738473
99601.734981353976764
99601.605041995673673
99601.477774090089952
99601.350776011531707
99601.221704406838398
99601.089158152855816
99600.953240357368486
99600.815138448451762
99600.676757286535576
99600.539774770339136
99579.153472533304011
99579.405035243849852
99579.672933669527993
99579.957849762431579
99580.260539083508775
99580.581776876904769
99580.92231822485337
99581.282881617196836
99581.664068102734745
99582.066442048599129
99582.490485780246672
99582.936661408326472
99583.405441631621215
99583.897291587956715
99584.412829534776392
99584.952532891693409
99585.517052994342521
99586.106168202619301
99586.719343923425185
99587.351123664804618
99605.328356726735365
99605.168431409503683
99605.010423288622405
99604.854022728017299
99604.698681057256181
99604.543628277708194
99604.388179821427912
99604.231881378058461
99604.074829160526861
99603.917574963590596
99603.761213653589948
99603.606796618099906
99603.455075409437995
99603.306409429002088
99603.160552336776163
99603.016660541223246
99602.873632563656429
99602.730271391774295
99602.585948150212062
99602.440635293343803
99602.29487797159527
99602.149992268081405
99602.007537217257777
99601.868921749570291
99601.734738207553164
99601.604551436787006
99601.476728131267009
99601.349319946501055
99601.220368029607926
99601.088813444031985
99600.954771170538152
99600.819382957750349
99600.684392726616352
99582.148692522139754
99582.458776361178025
99582.785333561259904
99583.128948589364882
99583.490318232725258
99583.870127846923424
99584.269075190459262
99584.687799555729725
99585.126887350750621
99585.586854860783205
99586.06821748452785
99586.571518703756738
99587.097294965817127
99587.6460987287428
99588.218358801183058
99588.814457905449672
99589.434242113871733
99590.076703357510269
99590.73712220932066
99605.18514783779392
99605.024872054695152
99604.866384753593593
99604.708883993807831
99604.551152800981072
99604.392551368233399
99604.233322793676052
99604.074403592661838
99603.917045816866448
99603.7622998321458
99603.6106752147316
99603.462000823143171
99603.315541117190151
99603.170401273324387
99603.025521925403154
99602.880167308947421
99602.734019704294042
99602.587408108665841
99602.441162485105451
99602.296492710069288
99602.154333188533201
99602.015056916177855
99601.878625528741395
99601.744789318283438
99601.613083611679031
99601.482811834765016
99601.353024995769374
99601.222799293478602
99601.09188581664057
99600.960600646212697
99600.829716232037754
99600.700146480579861
99584.880997233442031
99585.230313067921088
99585.595374566139071
99585.976487974490738
99586.374178192403633
99586.789133098674938
99587.222126508611836
99587.673991418851074
99588.145493993564742
99588.637346837756922
99589.150162655903841
99589.684475923990249
99590.24068408209132
99590.819164913817076
99591.420061734592309
99592.043599880955298
99592.689291768780095
99593.356087436448433
99594.03911332062853
99605.044123311585281
99604.883447756699752
99604.723824706466985
99604.564592127266224
99604.40527590145939
99604.245985787449172
99604.08746464959404
99603.931126451934688
99603.77807428232336
99603.628543058293872
99603.481698224102729
99603.335820904510911
99603.189319009237806
99603.041492226184346
99602.892348180190311
99602.742745341398404
99602.594228994697914
99602.448229333866038
99602.305697072006296
99602.166799193655606
99602.031206651852699
99601.897789521768573
99601.765320566453738
99601.632997321605217
99601.500694949907484
99601.368770390821737
99601.237974836549256
99601.108771176746814
99600.981393101305002
99600.855976837832713
99587.977703829717939
99588.377417182506179
99588.79242388124112
99589.223073685861891
99589.669884718561661
99590.133540990194888
99590.614891571734915
99591.114856298285304
99591.634337099458207
99592.174134479369968
99592.734955951847951
99593.317200644349214
99593.921179855780792
99594.546810485771857
99595.194098391948501
99595.862179336356348
99596.550243465055246
99597.253847086700262
99604.893455847224686
99604.730462391598849
99604.568470423400868
99604.407820856926264
99604.248742131923791
99604.091880523905274
99603.938051230274141
99603.787635205837432
99603.640435693567269
99603.495104520057794
99603.34955959871877
99603.202134071660112
99603.052281028372818
99602.90089361196442
99602.749877704700339
99602.601365394657478
99602.456974636719679
99602.317389170872048
99602.18225131687359
99602.050179384532385
99601.919300614434178
99601.787966012241668
99601.655268307615188
99601.521536429747357
99601.387930431461427
99601.256118755714851
99601.127353293079068
99601.001909665050334
99590.678969356566085
99591.10952075876412
99591.55423840986623
99592.013532471581129
99592.48810737131862
99592.978851216830662
99593.486684584509931
99594.01253162039211
99594.557243156261393
99595.121493190614274
99595.705837784771575
99596.310522176281665
99596.935721690111677
99597.581184706883505
99598.246866918489104
99598.931719958447502
99599.634885748091619
99600.351804133577389
99604.74987994536059
99604.588275543152122
99604.429502224258613
99604.273609906711499
99604.120227576582693
99603.969181431326433
99603.820489730671397
99603.673579022477497
99603.527247618359979
99603.37972824035387
99603.229647388274316
99603.076969909117906
99602.923242715754895
99602.770893042063108
99602.622314252876095
99602.479112573579187
99602.341500732509303
99602.208455832645996
99602.078198189221439
99601.948736766935326
99601.818646116982563
99601.687417227905826
99601.555566235518199
99601.424135516048409
99601.29444671649253
99601.167313342477428
99601.042973694682587
99593.785769212205196
99594.257191016760771
99594.742350575412274
99595.241822633499396
99595.756446232131566
99596.287228777408018
99596.835118583912845
99597.400988787252572
99597.985579599830089
99598.589450204774039
99599.212825101581984
99599.855743211650406
99600.517897017052746
99601.199047875867109
99601.898297957581235
99602.614821385563118
99603.344984971685335
99604.915920279323473
99604.752559886357631
99604.592652432489558
99604.436467552382965
99604.283243500656681
99604.131957318008062
99603.981959557931987
99603.833085452904925
99603.685335227957694
99603.537937517845421
99603.389877663517836
99603.240292043759837
99603.089366736749071
99602.938517499365844
99602.789822433784138
99602.644790180580458
99602.503876046874211
99602.366462803198374
99602.231656416101032
99602.098948205690249
99601.968191441657837
99601.838897093461128
99601.710258053877624
99601.581631568129524
99601.452896826172946
99601.324068925416213
99601.195924699859461
99596.872341237278306
99597.3809387327492
99597.903119619382778
99598.439575839671306
99598.991115961340256
99599.558552619360853
99600.142625625740038
99600.743899191002129
99601.362766679871129
99601.999350592232076
99602.653769751312211
99603.325705360432039
99604.01495743515261
99604.720526898352546
99605.441799899010221
99606.175334241546807
99604.93060576285643
99604.77173723836313
99604.616375531550148
99604.463867737737019
99604.312633771885885
99604.161547204304952
99604.010204765523667
99603.85908922998351
99603.709030916099437
99603.56034059409285
99603.412576294649625
99603.265087706691702
99603.117740078057977
99602.971153667123872
99602.826148930369527
99602.682997054202133
99602.541292656504083
99602.400527805802994
99602.260756172821857
99602.122669960022904
99601.987350014678668
99601.855396811952232
99601.726650621290901
99601.599905603055959
99601.473827097739559
99601.347623404726619
99601.221418344211997
99601.095816090441076
99599.558020795229822
99600.097011922596721
99600.649550755944801
99601.216310733361752
99601.79798521855264
99602.395245255233021
99603.008614061560365
99603.638445530057652
99604.284939455115818
99604.94812593809911
99605.627855853745132
99606.323935279680882
99607.035902648058254
99607.763111225722241
99608.503321594456793
99604.773927235262818
99604.62320728324994
99604.474219491370604
99604.324831208359683
99604.173365267692134
99604.019833318845485
99603.865616193070309
99603.712588426045841
99603.562388969381573
99603.415521331276977
99603.271373560666689
99603.129079572696355
99602.987941247061826
99602.847281876573106
99602.70626302601886
99602.56411419561482
99602.42083900765283
99602.277331877878169
99602.135281371345627
99601.996615314696101
99601.862535503430991
99601.732775862910785
99601.605883247684687
99601.479959518226678
99601.353935876686592
99601.227589541056659
99601.101499655749649
99601.827525333297672
99602.391999289146042
99602.969851801099139
99603.561773045599693
99604.16838766055298
99604.790161337819882
99605.427395844104467
99606.080208756131469
99606.748556181730237
99607.432256476327893
99608.131044947600458
99608.844400821981253
99609.571642206225079
99610.310533323397976
99604.649017880758038
99604.503497054014588
99604.355879293056205
99604.204728057578905
99604.050341188019956
99603.894532704478479
99603.739759750751546
99603.588434214820154
99603.441604550098418
99603.298909004442976
99603.158938802007469
99603.020007970291772
99602.880568974811467
99602.73925967219111
99602.595381055420148
99602.449351968272822
99602.302817817137111
99602.157966922430205
99602.016781402737251
99601.880280005410896
99601.748306260051322
99601.619492990488652
99601.492132686631521
99601.365158888220321
99601.23857109589153
99601.112978275166824
99603.955149972243817
99604.541747482100618
99605.141629784804536
99605.755444405338494
99606.383661792293424
99607.026596747062285
99607.684310363023542
99608.356775080101215
99609.043698916706489
99609.744945073776762
99610.459847490506945
99611.188216538648703
99611.928004774701549
99604.513632088928716
99604.367254948650952
99604.216137552008149
99604.060963426032686
99603.904197835800005
99603.748764636708074
99603.59718132429407
99603.450690587880672
99603.309089577000123
99603.170905364386272
99603.03381365504174
99602.89539545646403
99602.753781030609389
99602.608362786588259
99602.460151628314634
99602.311358394887066
99602.164491439034464
99602.021467072117957
99601.883206846076064
99601.749136879792786
99601.617904040191206
99601.488354998276918
99601.359923331692698
99601.232910779610393
99601.107811220659642
99605.947109299799195
99606.553824387447094
99607.173808875129907
99607.8074890452408
99608.455128739806241
99609.116718120334554
99609.792186300081084
99610.48120397949242
99611.183677870809333
99611.898952204966918
99612.627050465642242
99613.365906984821777
99604.392261218163185
99604.241558526147855
99604.087115022834041
99603.931410532590235
99603.777237515649176
99603.626737473503454
99603.480910336584202
99603.339423312980216
99603.200730287033366
99603.062533903794247
99602.922495508639258
99602.778940593503648
99602.631591423618374
99602.481893586882506
99602.33218550728634
99602.184706858184654
99602.040869583186577
99601.900873740334646
99601.764147277077427
99601.629932358846418
99601.497764145358815
99601.367538876336766
99601.239492744396557
99601.114095221608295
99604.252344737338717
99604.098941543343244
99603.945057670018286
99603.793104260490509
99603.644558681335184
99603.499808237495017
99603.358265617411234
99603.218401943668141
99603.078177566741942
99602.935627390892478
99602.789723143563606
99602.64074785306002
99602.490277113363845
99602.340502355684293
99602.19325029454194
99602.049367503030226
99601.908646309631877
99601.770536671436275
99601.634648940103943
99601.500808147597127
99601.369331668465747
99601.240468663905631
99601.114463547986816
99603.963913704777951
99603.814047833700897
99603.667147992571699
99603.523083156294888
99603.381139382428955
99603.240095054003177
99603.098328804582707
99602.954215587393264
99602.807155241986038
99602.657801056062453
99602.507669219892705
99602.358445396763273
99602.21144476957852
99602.067062328089378
99601.924968630526564
99601.784949103719555
99601.647098696514149
99601.511717655550456
99601.379069543952937
99601.249278227405739
99601.121983215110959
99603.396006791721447
99603.253266783096478
99603.109394246697775
99602.963523265803815
99602.815458172277431
99602.666084385651629
99602.516714990546461
99602.368589127334417
99602.222324539558031
99602.077979352572584
99601.935337109185639
99601.794464945793152
99601.655690000523464
99601.519318832331919
99601.385762955615064
99601.255103426592541
99601.1267152382934
99602.835111420616158
99602.686979622056242
99602.538757220419939
99602.391261341748759
99602.24503823244595
99602.100196100524045
99601.956647794533637
99601.814617741314578
99601.674749802463339
99601.537697030667914
99601.403500332220574
99601.271808165023685
99601.142053295305232
99602.692646819879883
99602.545757137573673
99602.399328716288437
99602.253637780610006
99602.108586965725408
99601.964435366026009
99601.821765187458368
99601.681419089698466
99601.544205394529854
99601.410131968455971
99601.278507518189144
99601.148407352317008
99616.367333633141243
99616.171784632810159
99615.979527171730297
99615.789209324284457
99615.5996232417383
99615.409733614418656
99615.218385003012372
99615.024346797319595
99614.826859184438945
99614.626541874487884
99614.425697451719316
99614.227528920673649
99614.034604504573508
99613.847651547708665
99613.66571177924925
99613.486837564778398
99613.308607041690266
99613.128650640865089
99612.945528599520912
99612.759129338664934
99616.552283311728388
99616.351465133891907
99616.155394822431845
99615.963178702106234
99615.773335551217315
99615.584273589847726
99615.394676907584653
99615.20354462567775
99615.009774257559911
99614.812649821033119
99614.612667856388725
99614.412022920354502
99614.213913614861667
99614.020913069325616
99613.834042681308347
99613.652575268977671
99613.474481328405091
99613.297081188196898
99613.117804601744865
99612.935107082186732
99612.748974333575461
99612.560711661164532
99616.954713601837284
99616.741769492567983
99616.534630460912012
99616.3330120951141
99616.13673365455179
99615.945088256179588
99615.756438587821322
99615.568733939406229
99615.380190220908844
99615.189468583776033
99614.995653348407359
99614.798465310042957
99614.598640039432212
99614.398213033171487
99614.200072467428981
99614.006869969627587
99613.819832135384786
99613.638323504434084
99613.46021489915438
99613.282786345502245
99613.103503718739375
99612.920981075585587
99612.735496894034441
99612.548380952546722
99612.361113736726111
99612.174777251915657
99617.162567691280856
99616.94232927793928
99616.7282287725684
99616.519925769156544
99616.317297419183888
99616.120370249263942
99615.928457890317077
99615.739881398141733
99615.552569054532796
99615.364512644417118
99615.174304063417367
99614.981052786723012
99614.784386142069707
99614.584919600893045
99614.384602989812265
99614.186564564995933
99613.99363219778752
99613.806975460116519
99613.625948823406361
99613.448443513756501
99613.271544952178374
99613.092548591681407
99612.910063882605755
99612.724526649035397
99612.537548693449935
99612.350771945304587
99612.165032890348812
99611.98034190038743
99617.377107020947733
99617.150019359949511
99616.929114793558256
99616.714630147034768
99616.505894995192648
99616.302685766175273
99616.105278755610925
99615.913358347635949
99615.725404559547314
99615.53898905236565
99615.351715614786372
99615.161921254431945
99614.968759296170902
99614.77208404681005
99614.572610934133991
99614.372390511722188
99614.174392675442505
99613.98144215127104
99613.794866247902974
99613.614129757334013
99613.437018437383813
99613.260360428699641
99613.081341308599804
99612.898803014002624
99612.713515202936833
99612.527222268108744
99612.341377183227451
99612.156463388586417
99611.971981230628444
99611.787794528427185
99617.602703233467764
99617.370971652897424
99617.142927975030034
99616.921135299184243
99616.705820154078538
99616.496217342617456
99616.292135379568208
99616.094157359169913
99615.902281913367915
99615.714841283901478
99615.52915880123328
99615.342581031014561
99615.153347056664643
99614.960700001596706
99614.764473828894552
99614.565285651318845
99614.365078730988898
99614.167003516166005
99613.974145540516474
99613.787901452960796
99613.607637666427763
99613.431028165199677
99613.254713733767858
99613.075700074230554
99612.892971185516217
99612.70757968982798
99612.52148517074238
99612.336208385167993
99612.151925893806037
99611.967823822327773
99611.783470695620053
99611.600280069527798
99617.606392569985474
99617.373571145144524
99617.144597226229962
99616.922176561973174
99616.706488813579199
99616.496516916449764
99616.29207227563893
99616.09395227060304
99615.902216428643442
99615.715201802042429
99615.530026793145225
99615.343810500402469
99615.154668040093384
99614.961910553320195
99614.765553336881567
99614.56628801691113
99614.366025163093582
99614.167821064576856
99613.97478104828042
99613.788455428002635
99613.608356042372179
99613.432036654048716
99613.255947985220701
99613.076978741053608
99612.894144440884702
99612.708735352454823
99612.522860192984808
99612.337996680318611
99612.154112862728653
99611.970075996228843
99611.78534074514755
99611.601488152635284
99611.421542952826712
99629.904242932097986
99629.656059493965586
99629.413798637062428
99629.176911594666308
99628.939092426400748
99628.694325680393376
99617.60912731634744
99617.375522953050677
99617.14584803985781
99616.922863253057585
99616.706729282363085
99616.496306694476516
99616.291419448738452
99616.093003557267366
99615.901265015403624
99615.714465914221364
99615.529603704242618
99615.34359739573847
99615.15452521808038
99614.961804077785928
99614.765487864933675
99614.566182877591928
99614.365768289731932
99614.167433363414602
99613.97435122031311
99613.788135881855851
99613.6082896735752
99613.432253903505625
99613.256362721556798
99613.077369375328999
99612.894385565901757
99612.708851084404159
99612.523017254323349
99612.338373664970277
99612.154765838437015
99611.970840477195452
99611.785904698030208
99611.601674550387543
99611.42135910896468
99611.24781038495712
99630.15095427504275
99629.902255888067884
99629.653963044809643
99629.411847249342827
99629.175441726954887
99628.938216986585758
99628.693909465713659
99617.615267001034226
99617.381269091769354
99617.151257612000336
99616.928008065748145
99616.711701988911955
99616.501103257236537
99616.296066571361735
99616.097622685527313
99615.90595744062739
99615.71931592002511
99615.534629312256584
99615.348734559825971
99615.159670272638323
99614.966914401637041
99614.77054489479633
99614.571140205545817
99614.370633012615144
99614.172234364203177
99613.979079348529922
99613.79282476453227
99613.613067534868605
99613.43717338622082
99613.261352385670762
99613.082330004719552
99612.899272536931676
99612.713686556104221
99612.527870269332197
99612.343343258238747
99612.159866778427386
99611.975952539447462
99611.790848272532457
99611.606382696772926
99611.425839596791775
99611.25218134043098
99611.08621221674548
99551.211070633813506
99551.450014113856014
99551.715064841526328
99552.006963757943595
99552.326494776672916
99552.674200890221982
99553.05071997079358
99553.456155835578102
99553.890372979905806
99554.351146150496788
99554.831410094993771
99585.888534767873352
99585.734851297136629
99585.581027679232648
99585.427223836144549
99585.274352666048799
99585.123984925099649
99584.977416574620293
99584.835085731596337
99584.696456018224126
99584.560563905761228
99584.426274406825542
99584.292214662549668
99584.157131130472408
99584.019929893824155
99583.879744047677377
99583.736469939220115
99583.59091799237649
99583.444502202662989
99583.299004344968125
99583.156207374020596
99583.017021254898282
99582.881330778327538
99582.748103242789512
99582.615718899585772
99582.482709202653496
99582.348091849285993
99582.211985342190019
99582.075172240103711
99581.938474765556748
99581.80244076665258
99581.667584948576405
99581.534447041194653
99581.403499940686743
99581.274837406162987
99581.147838858320029
99581.021236675020191
99552.557977757431217
99552.652174715869478
99552.761399844312109
99552.886487465613754
99553.028401484174537
99553.188219392250176
99553.367136729182675
99553.566417199777788
99553.787333267420763
99554.031038698041812
99554.29860368266236
99554.591005368158221
99554.909114876034437
99555.253587270664866
99555.624983247893397
99556.023691681039054
99556.450059288195916
99556.904171062458772
99557.385667610855307
99557.892950314650079
99558.419759448093828
99585.895214276344632
99585.741562425318989
99585.587258775864029
99585.432937072240748
99585.279709309485042
99585.128830085202935
99584.981160647337674
99584.836760707898065
99584.695223848684691
99584.555939825833775
99584.418140621230123
99584.28072977582633
99584.142604058215511
99584.002875147503801
99583.861033282795688
99583.717140420092619
99583.571905573218828
99583.426417817623587
99583.281945018286933
99583.139656636456493
99583.000176037530764
99582.863415064755827
99582.728871216007974
99582.5956944993668
99582.462841736836708
99582.329494306104607
99582.195359518824262
99582.060678397334414
99581.925888527854113
99581.791508393522236
99581.658182229672093
99581.526478869229322
99581.396764499964775
99581.268981943183462
99581.142226276206202
99581.014946747411159
99555.139867720266921
99555.285851730310242
99555.447255080682226
99555.624766977634863
99555.819181953527732
99556.031410267547471
99556.262423752661562
99556.513320531987119
99556.78529695988982
99557.079455952873104
99557.396871538614505
99557.738549649366178
99558.105324034229852
99558.497814676724374
99558.916402511880733
99559.361361937626498
99559.832736503492924
99560.330545115095447
99560.854070511544705
99561.401747797790449
99561.966931709393975
99585.766806386236567
99585.611534661715268
99585.456318574404577
99585.302485889187665
99585.150915317397448
99585.001725187539705
99584.854480782785686
99584.708767659292789
99584.564388775019324
99584.421151230766554
99584.278577950259205
99584.135961906504235
99583.992753311860724
99583.848616852948908
99583.703772425549687
99583.558878617652226
99583.414908936509164
99583.27261882435414
99583.132311535315239
99582.993904993054457
99582.857075239095138
99582.721618480427423
99582.587269563169684
99582.453645892586792
99582.320475083964993
99582.187478500200086
99582.054694160833606
99581.922214073565556
99581.790579282853287
99581.660365274437936
99581.531909498298774
99581.405257671751315
99581.279815742440405
99581.154202137258835
99557.949765461075003
99558.160662600785145
99558.387779221331584
99558.631715941432049
99558.893212389564724
99559.173108039263752
99559.472328516814741
99559.791919747323846
99560.132951930427225
99560.496468432058464
99560.883418060722761
99561.294602424066397
99561.730566259182524
99562.191575331133208
99562.677773297109525
99563.189099388167961
99563.725599885059637
99564.286610777562601
99564.871054625240504
99565.47338252053305
99585.781150786686339
99585.625986109487712
99585.471354057692224
99585.318012662406545
99585.165864439477446
99585.014180181562551
99584.862471112515777
99584.710921462014085
99584.56017097386939
99584.410895923647331
99584.263243334164144
99584.116936731952592
99583.971495045916527
99583.82653418162954
99583.682091772003332
99583.538614080069237
99583.396843134469236
99583.257089524471667
99583.119054665148724
99582.982123422800214
99582.845613925208454
99582.709298214060254
99582.573567197105149
99582.438835036446108
99582.305416088041966
99582.173397678896436
99582.042724944913061
99581.913281972127152
99581.785116176950396
99581.658502641672385
99581.533504482809803
99581.409734080807539
99581.286111713256105
99581.161047130837687
99560.629683553925133
99560.88681180421554
99561.160206701460993
99561.450230677903164
99561.757420040928992
99562.082488813248347
99562.426274175450089
99562.789719034524751
99563.173859551243368
99563.579663386626635
99564.007974816093338
99564.459431112438324
99564.934507486395887
99565.43334527949628
99565.956032016314566
99566.502185328863561
99567.071823600097559
99567.663938533878536
99568.277768516578362
99568.907437861911603
99585.657613297444186
99585.503039485120098
99585.349132723233197
99585.195041360668256
99585.039701301167952
99584.882800192324794
99584.725276311350171
99584.568646310726763
99584.414361020390061
99584.263051412068307
99584.114338908184436
99583.967570848093601
99583.82206298247911
99583.677819667689619
99583.535481152692228
99583.395850353233982
99583.25912521367718
99583.124576150919893
99582.990747640418704
99582.856091479290626
99582.719825391817722
99582.58243361437053
99582.445156431509531
99582.309298038104316
99582.175865799479652
99582.045190432603704
99581.917265058393241
99581.791755697573535
99581.668433629602077
99581.546793036381132
99581.425923425820656
99581.304367145537981
99563.614926346694119
99563.930827033269452
99564.263373107940424
99564.612885494148941
99564.979873086864245
99565.364986541462713
99565.76897529863345
99566.192705316760112
99566.637075617225491
99567.102851225950872
99567.590665895841084
99568.100940594653366
99568.63380166029674