/*--------------------------------*- C++ -*----------------------------------*\
  =========                 |
  \\      /  F ield         | OpenFOAM: The Open Source CFD Toolbox
   \\    /   O peration     | Website:  https://openfoam.org
    \\  /    A nd           | Version:  12
     \\/     M anipulation  |
\*---------------------------------------------------------------------------*/
FoamFile
{
    format      ascii;
    class       volScalarField;
    location    "0.017";
    object      rho;
}
// * * * * * * * * * * * * * * * * * * * * * * * * * * * * * * * * * * * * * //

dimensions      [1 -3 0 0 0 0 0];

internalField   nonuniform List<scalar> 
106891
(
1.1492887916691274519
1.1492342624509708227
1.1492234925229440901
1.1492538582816833603
1.1493184361744503974
1.1494014611776253165
1.1494881085538299903
1.1495586742603189911
1.1495974594110240918
1.1495954510839807572
1.1495395359552362802
1.1522617956091838476
1.1521177586072661736
1.1520166623912331261
1.1519501993461958023
1.1519001757761664351
1.151858487050049451
1.1518372724679653007
1.1518612078675005694
1.151940790936980763
1.1520571584255041575
1.1521603982685810763
1.1521942507396509825
1.1521344124572590051
1.1519977679746471466
1.1518412715138695024
1.1517320255317509137
1.1517224858667645115
1.1518335899970428837
1.1520531733511141237
1.1523530201551488439
1.1526964278733073943
1.1530359676792036883
1.1533210223295784491
1.1535145919490896738
1.1536151800844733906
1.1536579129424378021
1.1536957033044505927
1.1537685924186003028
1.1538825317139496107
1.1540188790012178011
1.1541581142412056238
1.1542936695814438597
1.1544329546459013436
1.1545852170046877472
1.1547351629338986623
1.1548508323974353562
1.1549075810534510378
1.1548948670643019998
1.1495281993080057603
1.1496673253836378059
1.1497580578472841317
1.1497899940244036276
1.1497620120488754036
1.1496811108558904202
1.149562090047042906
1.1494261447674616328
1.1492961487256956321
1.1491937972766856912
1.1491334316139045768
1.1491235380541273692
1.1491621738812840547
1.1492414486944975138
1.149344210327587712
1.1494532679564455346
1.1495462990007576654
1.1496045902645224412
1.1496192930691944145
1.1495774309119095591
1.1520245517868588081
1.1519151316736855328
1.1518497969533207925
1.1518049708655218044
1.1517611926016686485
1.1517247788440816425
1.1517305147736798254
1.1518054530283485803
1.1519457945109907726
1.1521032366022694315
1.1522123500176446598
1.1522216406038316983
1.1521254326176182392
1.1519670993798369896
1.1518141785408579914
1.1517372388616786694
1.1517802520977296066
1.1519543355479178182
1.1522401601365241941
1.1525937964146568682
1.1529498970183236217
1.153241471607730384
1.1534197981657918763
1.1534786814962063595
1.1534543762598472583
1.1534158292075740171
1.1534241547040329223
1.1535083964229415621
1.153665372128991784
1.1538768908871206431
1.1541085534434312176
1.1543311141256471508
1.1545233392874267864
1.1546626667168724545
1.1547354361386510391
1.1547453284057143108
1.1494271654364305313
1.1495720773808413284
1.1496713583464168718
1.1497128708080279758
1.1496931948557316261
1.1496180587526758643
1.1495014600792365922
1.1493642997059909661
1.1492292138651662992
1.1491183063750840532
1.1490472456621059205
1.1490263241137446126
1.1490562187518682524
1.1491304939465296631
1.1492332502820625795
1.1493481633913977813
1.1494530249518239984
1.1495274156316837022
1.1495596583073564023
1.1495364185664769252
1.1520102504379132746
1.151896419766087698
1.1518280413248451755
1.1517842551758996628
1.1517477333599579481
1.1517177757334802202
1.1517281737797189223
1.1518082993890095267
1.1519519615062983053
1.1521202669693519915
1.1522544536575987095
1.1522975285133858492
1.1522341634170518709
1.1520925276273115134
1.151937009456668104
1.1518352164553764538
1.1518436417093789181
1.151986647409603437
1.1522486750433900138
1.1525853092416553647
1.1529243616332489619
1.1531889787875149178
1.1533269939657926351
1.1533325958691589275
1.1532452986684869067
1.1531404561237541539
1.1530938163733239765
1.1531585132414046146
1.1533452671631523323
1.1536274442015510555
1.1539510879830356949
1.1542503720102630371
1.1544716220401165518
1.1545924853301621216
1.1546244739315230099
1.1546027993875929152
1.1494895550553416719
1.1495580928236857066
1.1495741048977283771
1.1495368678360993187
1.1494540912720614401
1.1493397321298213232
1.1492127432015917243
1.1490928719702626637
1.1490002266312850931
1.1489471561966757562
1.1489399974642926505
1.1489769683534021283
1.149050810191937888
1.1491471733031177749
1.1492500472362650044
1.1493419113014593513
1.149403185980281572
1.1494280663491025507
1.1494019955292953394
1.1518755650483749609
1.1518141478548240553
1.1517675150452593158
1.1517404537226845207
1.1517427570148530691
1.1517893695598389048
1.1518942756999228649
1.1520388678745021593
1.1521832386411450244
1.1522793967572397822
1.1522895686514842417
1.152203987399504026
1.1520451425962776604
1.1518759749998646047
1.1517580652412071629
1.1517489789760115837
1.1518748306328352449
1.1521237686712992865
1.1524512656859335902
1.1527847430717697019
1.1530467889517701519
1.1531832927029064262
1.1531838551372204371
1.1530843023125507685
1.1529577498761338639
1.1528882610264483688
1.1529370666473179874
1.1531271984528064234
1.1534303011459456911
1.1537765722679729219
1.1540774973890377542
1.154271770813781961
1.1543409312520522825
1.154316435262040752
1.1492558106493571124
1.1493646128399881423
1.1494300060627657967
1.1494450670882716548
1.1494090880493323947
1.1493290014770163321
1.1492178399163446301
1.1490928619464377824
1.1489703588376565246
1.1488673203436532422
1.14879582415695225
1.1487634843904346305
1.1487701487012615953
1.1488109949565381562
1.1488781004474351022
1.1489594913931604481
1.1490457979966277602
1.149115851177529013
1.1491703918536337881
1.1491858322886576715
1.1519201606189071185
1.1518594462643918508
1.1517976762228339105
1.1517707510025061435
1.1518011714528846312
1.1518909642982231301
1.152023730731239981
1.1521632169474111951
1.1522682782074402663
1.1523075466910850384
1.1522691198120513789
1.1521664509633620099
1.1520270391739615423
1.1519002410035010797
1.1518312768586322914
1.1518553102576383207
1.1519840818355568945
1.1522046232827203305
1.1524741921752181817
1.1527364681304621552
1.152935700355885551
1.1530326613237533717
1.1530185222869884232
1.1529229412837278534
1.1528027069878259425
1.1527302222966342438
1.152758742766500033
1.1529131468341726752
1.1531683626808515442
1.1534574357809415091
1.1537055820150481367
1.1538641191167344768
1.1539234444342287844
1.1492918505455260725
1.1493821469977303362
1.1494301279527785464
1.1494294041473096524
1.1493792417960511099
1.1492852486795721578
1.1491592742375067449
1.1490166714673843984
1.1488750552403230731
1.1487507584067233601
1.1486578940232505808
1.1486047981462641498
1.1485940787735211543
1.1486217953771697964
1.1486805713122161254
1.1487604562100395267
1.1488427412798014604
1.1489230817340323476
1.148976017599968813
1.1518204949092381018
1.1517799883539128203
1.1517845977085201525
1.151864776653876099
1.1520083199118302808
1.1521690329876097536
1.1522888516349176768
1.1523259060430475209
1.1522690627855556311
1.1521401972033487038
1.1519841397304901864
1.151857504036167823
1.1517937713010897305
1.151816705727373602
1.1519258938988261587
1.1520997604760090383
1.1523072910252931678
1.1525091208216151628
1.1526698599432851911
1.1527691196027036735
1.1528070247796089465
1.1527937442088058706
1.1527518655146151705
1.1527096824454403645
1.1526953658928982271
1.1527369502027049464
1.1528434321085256897
1.1529953296738133517
1.1531562759910030103
1.1532958943517110928
1.1533906419172927915
1.153447303708207361
1.1491840576779674965
1.1492821788854676868
1.1493543405288328962
1.1493895347454714528
1.1493807217730789283
1.149325805788576238
1.1492298048097178143
1.1491039760705632489
1.1489639510434641601
1.1488267623519290428
1.1487093189077155486
1.1486246551693688467
1.1485803929633704445
1.148574463195243478
1.1486014456964224184
1.1486511901726847995
1.1487089552098130874
1.1487715273613809952
1.1488168498517739025
1.1518994788985141842
1.1519221321215245002
1.1520006151436545938
1.1521252194008060332
1.1522505315990017039
1.1523273363522836821
1.1523162075693240691
1.1522044657757275488
1.1520313596006277468
1.1518612393277716244
1.1517575687910590609
1.1517600369891309864
1.1518651893863525171
1.1520365805888250765
1.1522249626649760934
1.1523771078297182502
1.152466396245929392
1.1524912968579350547
1.1524730271560288397
1.1524464730490235898
1.1524474353676119609
1.152489252544785403
1.1525681115826362788
1.1526608271125502458
1.1527499203040800779
1.152818914841755582
1.1528658558140292278
1.1529035507850700082
1.1529412230668296679
1.1529933525306605979
1.1491093690763984903
1.149200953556787308
1.1492679718951841483
1.1492996752199358124
1.1492888542102399629
1.1492352671742516179
1.1491432846929678924
1.1490243713263039727
1.1488930877809848674
1.1487662449277560306
1.148659055804576834
1.1485827510490451697
1.1485427004426400632
1.148537175183759862
1.1485634384021516929
1.1486077495503650425
1.1486718843120879985
1.1487335712026580659
1.1520449130672039129
1.1521012948836113488
1.1521616696672432045
1.1522138428045853864
1.1522285585831368859
1.1521804701208084865
1.1520651849857739268
1.1519124128037421251
1.1517843504095115481
1.1517519239973155187
1.1518423146635370369
1.152027992471263973
1.152245146728706926
1.1524129538670082606
1.1524778992547035639
1.1524367531682107035
1.152329716852229069
1.1522110240750382815
1.1521353735051012013
1.1521423340603740293
1.1522377541599979622
1.1523960614937960312
1.1525626381634364037
1.1526908710470300523
1.1527501421630903522
1.1527463274432960816
1.1527167136552638471
1.1527093063975493159
1.1490447951619100486
1.1491739818402095796
1.1492787596540736672
1.1493425265923109535
1.1493532968180251164
1.1493077403960372251
1.1492101625643460494
1.14907365177555576
1.148915830550424344
1.1487573918998934541
1.1486176824188782941
1.14851362611940222
1.1484568036889757359
1.1484490576501900083
1.1484907133678046165
1.1485640738943638794
1.1486677651743761874
1.148772912803969426
1.1520469298723945428
1.1520417622543730474
1.152024841175990133
1.1520096793721201767
1.1519806769556686366
1.1519275871940761746
1.1518601946314563911
1.1518265808504115633
1.1518705473000023787
1.1520073155437096091
1.1522009520240048541
1.1523638675768490547
1.1524277659047919009
1.1523711347926743898
1.1522199701303839081
1.1520331719935035242
1.1518740134136185027
1.1517903178328383618
1.1517994322923297279
1.1518898728572284362
1.1520348028290914311
1.1521906479992691796
1.152323800648506813
1.1524072106177936092
1.1524502344068614512
1.1524867152659687974
1.152551969494614692
1.1491581706195070911
1.1492825365371381885
1.1493633925401283147
1.1493865788418984319
1.1493463008751010346
1.1492467680082325554
1.1491028307712569667
1.1489356411399131996
1.1487690554090230766
1.1486253520872411471
1.1485221898425659326
1.1484714994922948783
1.1484749079160965213
1.1485333068492364905
1.1486287246573425591
1.1487555528031916374
1.1488839441507570083
1.1519308634260978508
1.1519459220489391971
1.1519178281180477708
1.1518975687927166529
1.1519111285170027248
1.1519339408476643172
1.1519339780161170772
1.1519131187080604573
1.151895199444546547
1.1519269781022234422
1.1520176529665073772
1.1521355877261407752
1.1522191356716455779
1.1522214952442801916
1.1521388602973559045
1.1520080608038953951
1.1518808515764555889
1.1517961490660382218
1.1517524977998940816
1.1517315232300502359
1.1517279593343281441
1.1517487412313935913
1.1518221688338772246
1.1519477833125502109
1.152124953416244546
1.1523248236424872282
1.1525194291429703419
1.1491744530265952662
1.1492421286189056229
1.1492631841401614867
1.1492343887004299319
1.1491595296079055721
1.1490502402302158469
1.148923097456566067
1.1487974459525853721
1.1486912672297735494
1.1486185533385662172
1.1485892123179861635
1.1486026128928841228
1.148661166285374291
1.1487493123886678426
1.1488648598965889303
1.1489839663430780892
1.1516618469963775251
1.1516553034995464788
1.1516500501859152639
1.1517061579727378984
1.1518305516414535372
1.151977924460017455
1.1520840760119592794
1.1521145045012508579
1.1520801836549947605
1.152021898690618551
1.1519723719623642388
1.1519362926837743988
1.151897613366216655
1.1518434968002306817
1.1517821307583466783
1.1517385825259567333
1.1517337586515690173
1.1517592747628864203
1.1517734736352391867
1.1517356032348518013
1.1516456444744695986
1.1515457847325969443
1.1515029518212918092
1.151569046017293152
1.1517463144150998922
1.1519963497306155986
1.1522695623263459197
1.1525371746069792422
1.1491476753349987305
1.1491940462856109484
1.1491899329076422642
1.1491369674702700543
1.1490442047566002959
1.1489264180581550967
1.1488030897792427254
1.1486939211725670784
1.1486161643190790915
1.1485832525683097316
1.1485967251283377699
1.1486607033882547668
1.1487593804013760401
1.148889461432736514
1.1490239090912606201
1.1511993199806975774
1.1512536979227425693
1.151422645788607424
1.1516880907887661056
1.1519757001186454737
1.1521859430507670474
1.1522520706369800969
1.1521806224454655965
1.1520134559554404685
1.1518211358902712416
1.1516577259571123548
1.1515456460222655011
1.1514935959275656163
1.151509314885834856
1.1515881947614183822
1.1517104741701091886
1.1518262083323920208
1.1518705400717661469
1.1518050371268231391
1.1516459996357080175
1.1514637282664397233
1.1513468556534627307
1.1513591898994242069
1.1515103490138027809
1.1517595319869653459
1.1520465920352702671
1.1523303746049453622
1.1490629887261623043
1.1490804224773616404
1.1490533931108892762
1.1489904473320842193
1.1489064327862139603
1.1488200160161257113
1.148749545486485335
1.1487100772580998154
1.1487119705758139787
1.1487543578775381015
1.1488371139720099379
1.1489411878226667429
1.1490603448746818938
1.1491662963054432023
1.1508995194015643193
1.1511720236566536091
1.1515562125508607139
1.1519477003177940322
1.1522296335066815054
1.1523223908744826272
1.1522186087016632605
1.1519780342745762347
1.1516917317316328617
1.1514406786106485825
1.1512848570448488417
1.1512486820750489347
1.1513295263988196915
1.1515006959814761966
1.1517029504134237428
1.1518578734648796669
1.1519014281881383432
1.1518116592530114328
1.1516249570201517738
1.1514231739017712908
1.1512930664531559888
1.1512899600359176588
1.1514170189422467949
1.1516371633478377223
1.1518993628878462232
1.1521695525304562757
1.1489284222700739679
1.1489294687210871437
1.1489008481572535736
1.1488564065521831292
1.1488116088731843423
1.1487822213038230146
1.1487792523146236334
1.1488112861651043062
1.1488745560158757364
1.1489680818469001355
1.1490721594192920829
1.1491809778196333536
1.1492713642686140929
1.1509980880879668863
1.1514505862611328357
1.1518920831490941925
1.1521998856393602662
1.1522956914875250867
1.1521768968967820435
1.1519093612246416036
1.1515946703380610661
1.1513251202805754314
1.1511721771278362603
1.1511648708819828268
1.1512907856438270304
1.1515042196769342819
1.1517215994100513665
1.1518551367455522882
1.1518586299040651788
1.1517387623215171732
1.1515518495538732413
1.1513774630159294698
1.1512868330752281665
1.1513134122757635591
1.1514459697099341806
1.1516469520051400011
1.1518806113443205152
1.1521272419599568604
1.1489061225638117492
1.1489009631268778389
1.1488786000233806028
1.1488532321021545091
1.1488405950920037579
1.1488512263137171665
1.1488938039674911895
1.1489638150713954445
1.1490607521883233755
1.1491653082327144553
1.1492719032288802872
1.1493598987703435022
1.1513511134601728259
1.1517997244880839869
1.1521032118614367157
1.1521985521687339027
1.152089006919725378
1.151839851236176937
1.151547568869719429
1.1513032811220897944
1.1511745710917267171
1.1511921364216841646
1.151340990075090831
1.1515590083414399825
1.1517546578481159258
1.1518505892869461693
1.1518178937176095644
1.151681984089838906
1.1515048135745147295
1.1513548622017062417
1.1512802206938941296
1.1512904513422457242
1.1513729931236971193
1.1515063041146822442
1.1516775421801710433
1.1518870879387812511
1.1518643671717632149
1.1520807379801922821
1.1521126048662788666
1.1519819042569570122
1.1517518859666580067
1.1515028270783920217
1.1513075451865049104
1.15121887381976995
1.1512578685300003389
1.1514012503273285404
1.1515839537938770132
1.1517266409187920662
1.1517729294136471729
1.1517123970734968186
1.1515826432792655165
1.1514417453259950808
1.1513411256330623456
1.1513027248823108906
1.1513218741545101498
1.1513878193834830022
1.1514981829161492488
1.1516589571155460003
1.1518747099618482643
1.1519196877947406321
1.1518290291748134457
1.1516739377175886361
1.1515114688386158814
1.1513924694799873016
1.1513486355919744231
1.1513903254843156354
1.1514957463536659166
1.1516075536643075594
1.1516681240491357663
1.1516477329444234634
1.1515537768325216916
1.1514280257257296647
1.1513200368463079037
1.151261019166368138
1.1512519177377324997
1.1512850038287976151
1.1513546267435457171
1.1514743148506669801
1.1516605754796305217
1.1519151439612675958
1.1514189227983457897
1.1514127522244541613
1.1514630846905162809
1.1515510555465848785
1.1516294950821133192
1.1516555340288323617
1.1516161126573638551
1.151527155251323542
1.151425665970675416
1.1513464198026344132
1.1513013574834416453
1.1512834774578124541
1.1512899181965989825
1.1513305401783731075
1.1514307222352024862
1.1516126788643559209
1.1518790120485995487
1.1515442433249227783
1.1515408922122774005
1.1515002779713516823
1.1514384621562383515
1.1513793938891194735
1.1513380615224764192
1.1513094702545227932
1.151282274874530609
1.1512590506149451564
1.1512683126035752057
1.1513480259632153935
1.1515278869723253319
1.1518127936890865115
1.1514042735509140147
1.1513668000440961947
1.1513252397251636516
1.1512933929325539495
1.1512743295700569313
1.1512549462607795103
1.151222354186921315
1.1511893008416245188
1.1511982493122228099
1.1512987362312105954
1.1515248753944691273
1.1518733981692583779
1.1486861671641932503
1.1486008817420974015
1.1486355155976442077
1.1488256674492096643
1.1491762861141163743
1.1496657316683325245
1.15024944136508811
1.1508465298134482602
1.1513285861833586488
1.1515470761417010426
1.1514105739268858386
1.1509502213320661479
1.1503045233033606376
1.1496534409051950565
1.1491459054498440739
1.1488574604172558935
1.1487886431598695047
1.1488868311455073812
1.1490634994259694146
1.1492193011543097025
1.1490250994837027942
1.148799344802251543
1.1486396477952116602
1.1485814437720762715
1.1486735946913917417
1.1489391117811902365
1.149369114069181963
1.1499308514581778606
1.1505533534564795772
1.1511137826142985308
1.1514598969066218714
1.1514712296025013671
1.1511358751880576001
1.1505565003579445449
1.149899734208576163
1.1493297248010405642
1.1489576035335784532
1.1488182544200160606
1.1488775269683229041
1.1490477847020381663
1.1492194865151887928
1.1493055838685746206
1.1498913120687259681
1.1494776087505678142
1.1491292692494226024
1.1488388290585296314
1.148611281390999217
1.1484842003707123048
1.1485123381961097611
1.148723239216158154
1.1491059988803729031
1.1496265409792232326
1.1502223306784902235
1.1507855152607506799
1.1511786841569449091
1.1512771691469565472
1.151042225574093969
1.1505463996941618365
1.1499345531649705077
1.1493657922662234849
1.1489634769962362437
1.1487803453309350932
1.1487954526420944834
1.1489294487157732938
1.1490778829186030219
1.1491614740938191908
1.1491520517260771506
1.1490688650503801949
1.1500004641624941293
1.1496031665284738299
1.1492540545009062303
1.1489709962613761096
1.1487340954830169704
1.1485471516531087222
1.1484571427049794501
1.1485220436743952543
1.148761223368645279
1.1491392533245086138
1.1495927508958825314
1.150047856537657065
1.1504145215819163717
1.1505952610564365024
1.1505143437437681531
1.1501652312941086365
1.149636235947695706
1.1490700886378102386
1.1486067802705821617
1.1483394533540409732
1.148285679898929379
1.1483900221569844913
1.1485552104082221714
1.1486845289529046266
1.1487312610915592082
1.1487118064897767766
1.1486779906810373753
1.1486662847884143712
1.1494360479946754694
1.1492898461815130862
1.1491090309829674609
1.1489780448366180288
1.148904334728992449
1.1488467170390661565
1.1487836796138928275
1.148740648886684923
1.1487565164015689501
1.148835833347414459
1.1489437444383887588
1.1490414002239626168
1.1491126381643759213
1.1491461670820684038
1.1491131705056736312
1.1489752018929915156
1.148712947341444357
1.1483645405228084524
1.1480138708745393217
1.1477509186849257361
1.1476404603248013814
1.147697286255805027
1.1478784191766151501
1.14810802379440835
1.1483141345792300392
1.1484668595815592518
1.1485856924549895375
1.1487017470869400615
1.1488064436317961814
1.1488450458398924425
1.1496111823214663072
1.1496854540284291435
1.1495506800571477779
1.1493288136856343318
1.1491131659420215083
1.1489153193474954673
1.1487045271438727223
1.1484782244551785535
1.1482933962480972312
1.1482243407281560454
1.1482913424012686221
1.1484543589150453258
1.1486513242398606049
1.1488404294586644916
1.1489908586093189324
1.1490606009213910621
1.1490030526425456525
1.1487971935405028034
1.1484810378610508241
1.1481507308053382488
1.147912519121075281
1.1478381742412544497
1.1479384099361913396
1.1481522082999591206
1.1483806458210248369
1.1485414659862385189
1.1486145812673698163
1.148646326406581375
1.1486984627425362859
1.1487796149361888531
1.1488331384819947534
1.1487808709428497522
1.1500267802324364297
1.1501395967675906995
1.1500248197324716148
1.1498181736413606302
1.1496214810649039162
1.149446031894685305
1.1492423964880351672
1.1490001334258919119
1.1487860838056305202
1.1486849711270423757
1.1487322861725701717
1.1488911922497420104
1.1490948641021265786
1.149295009530722167
1.1494587534131448514
1.1495439757748537879
1.1495038309038703161
1.1493170013620144232
1.1490196239103904752
1.1487088038928261469
1.1484952287761520662
1.1484488311611105171
1.1485729268124780234
1.1487968949287941101
1.1490118232212567229
1.1491362538989928765
1.1491630055492638718
1.1491564990288776205
1.1491902615254636633
1.1492711127681647376
1.149329046987937808
1.149272095618385503
1.1490650465542351366
1.1486782529503383188
1.1485653749783582001
1.1483112133645287933
1.1482233780884250063
1.1484591409307252086
1.1488681411213805816
1.1500163020893081622
1.150124225783193177
1.1499970452922581021
1.1497761958225094503
1.1495688498129574828
1.1493810974831026872
1.1491578573561618271
1.1488862694565735723
1.1486374704717670081
1.1485025875601306833
1.1485227825602688512
1.1486603166415239041
1.1488432577713145744
1.1490223150295197918
1.1491671165490395801
1.1492381646954352714
1.1491868459214500398
1.148987036968522002
1.1486697694482572718
1.1483291492325022887
1.1480830259513805647
1.148004379760066751
1.1480984799116065176
1.1482938569648069027
1.1484777762914970545
1.1485664460537676757
1.1485570251120822416
1.1485228928328714559
1.1485400410897215195
1.1486133791749146837
1.1486627158496838241
1.1485859271826366346
1.148345735306436799
1.1480106551744433396
1.1476057605589700117
1.1477549501062911386
1.1476189875950415509
1.1473295839144288522
1.1472182574534930399
1.1474355429633273928
1.1478330901019342392
1.1481649244519518405
1.1482540089244517301
1.148105162485335784
1.147863190302573777
1.1476356127337306035
1.1474293393325218915
1.1471873619884904727
1.1468955354773142652
1.1466252742020484057
1.1464731240876282481
1.1464794635715636062
1.1466057373729856561
1.1467789138194723897
1.1469470572377247208
1.1470806983222663344
1.1471419910144691201
1.1470816918204493895
1.1468727744012292558
1.1465449475044291461
1.1461938346720594861
1.1459364901385633573
1.1458539540204812912
1.1459468336464648797
1.1461420045171388793
1.1463235374998070881
1.1464056049923896374
1.146387040700349802
1.1463484176681069115
1.1463669699984877504
1.1464469435206572356
1.1465031251167985271
1.1464290182673941842
1.146186236563214722
1.1458447845797885556
1.1455530931349307
1.1489484817641073544
1.1487258304125724795
1.1485358481060392588
1.1483912551659543055
1.1483035332187401245
1.1482778995142925993
1.1483153930655516373
1.1484103376478620451
1.148548428961266632
1.1487160321067668711
1.1488857647349242086
1.1520019498591473894
1.1520902940834669703
1.1521635174814244262
1.1521796363172840394
1.1521057225424498061
1.1519420167179079684
1.1517307148839541764
1.151526814185388492
1.1513709232775617419
1.1512867479204260679
1.1512822534337976421
1.1513606527663355905
1.1515207575239023718
1.1517561998928023126
1.1520475442002298117
1.1523581855051403533
1.152642923590546431
1.1528675882381045348
1.15301721496148879
1.1531014260107026459
1.1531568528302902354
1.1532363540389538592
1.1533835910633341015
1.153611334109567288
1.1538960900895156581
1.1541866538186884572
1.1544392285854077063
1.1546245586277594786
1.1547435872815461355
1.1548044745667560562
1.1548106969673774813
1.1547594594273751234
1.1546644995908208475
1.1545586555872078272
1.1544907760444227396
1.1544958405271010804
1.1493093245641501365
1.1494957378568513295
1.1496454070319876983
1.149741032317806777
1.1497716852334072257
1.1497332698354461034
1.1496285647619042258
1.1494665926377558574
1.1492623853972256942
1.1490338263493120596
1.1488018987700070461
1.1485861418488467756
1.1484056053875186798
1.148275372678620565
1.1482084378184258533
1.1482120159079394206
1.1482858382522440621
1.1484234041334662191
1.1486035894630639564
1.1488104689148925797
1.1490069196096071025
1.1518496262231872063
1.1519873839762904133
1.1520813353243588573
1.1521006606854884424
1.1520328256289529278
1.1519000485531225575
1.15175105000408462
1.1516246916250252319
1.1515401951593919883
1.1515024347710929309
1.1515161766128085841
1.1515862519198798442
1.1517163713147673398
1.1519019592692210097
1.1521201177655664427
1.1523429942524283653
1.1525415741799773794
1.1527040074130037173
1.1528296176184005262
1.1529263214858296305
1.1530097707132767049
1.1531013614430196679
1.1532244601580667887
1.1533902973906218214
1.1535940261677326557
1.1538163872285929212
1.1540339825572427657
1.1542228679554387138
1.1543690661090009186
1.1544638653552876661
1.1545026565445313249
1.1544835109947209073
1.1544268299267526068
1.1543745703487953147
1.1543742400838137296
1.154453776420498512
1.149177759618543071
1.1493486307007816372
1.1494923682792355102
1.1495912941721244671
1.1496330269206578301
1.1496109656888833239
1.1495246910997618528
1.1493795720983259745
1.1491878106891038058
1.1489658774405797637
1.1487362893966273081
1.1485216178501416184
1.1483455406387974573
1.1482263927893214817
1.1481789390990460031
1.1482100306736511275
1.1483177884108564104
1.1484916980324284541
1.1487049900339316721
1.148936904718391272
1.1491426755891824829
1.1519269708051060874
1.1520247844174997809
1.152043165402281355
1.1519971309422183392
1.1519316927478964185
1.1518808079730527005
1.1518499920537417225
1.1518337907296500866
1.1518242414206543156
1.1518230000221156839
1.1518471998737793704
1.1519137382586226437
1.1520259211704608759
1.1521635985475102704
1.1523009563980961545
1.1524205044353981187
1.1525219710647076621
1.1526195331207091943
1.1527267496399671298
1.152842896333484024
1.1529626344865744336
1.153084229006075212
1.1532082696250689491
1.1533391252055644749
1.1534820641559495602
1.1536355805314313372
1.1537869508397600171
1.1539210890659523656
1.1540186653469894917
1.1540689615202079921
1.1540763280098287336
1.1540695252188299946
1.1540940231927210302
1.1541880494855338846
1.1491444605246246002
1.149288439807172546
1.1494030278614495444
1.1494729065228741494
1.1494864203097372446
1.1494372240022157072
1.1493250878661100955
1.1491579786693071341
1.1489508562943335779
1.1487271825582414664
1.1485133772047386724
1.1483379150143455671
1.1482242699667493113
1.1481900670554257005
1.1482416660784606766
1.1483748959270514423
1.1485743118003921559
1.1488085321127343708
1.1490526921984074438
1.1492570599766673833
1.1518155471988280603
1.1519190486220511893
1.151951655952250686
1.151966850805137943
1.1520087802541583155
1.1520805403355569574
1.1521586889162498402
1.1522093213521622523
1.1522132399523019597
1.1521738316856811046
1.152126744745141762
1.1521065597857844676
1.1521261359903545163
1.1521739302632818536
1.1522214723494303978
1.152258151840934941
1.1522922404537625507
1.1523533054953338794
1.1524660512962801029
1.1526229336158819727
1.1527972096890675147
1.1529564746197324965
1.1530793620924968401
1.1531654638311710226
1.1532331909412438797
1.1532999187867405411
1.1533769426394355762
1.1534583189421956373
1.153530479750437987
1.1535812380488208451
1.1536220401151286996
1.1536826446647863165
1.1538014769374389523
1.1539982048068784248
1.1489837169215109114
1.149114313650118735
1.1492300210683972228
1.1493151986287086785
1.1493560934457986988
1.149342681197848437
1.1492695078914647588
1.1491400089657346495
1.1489659411350356955
1.148769634025114339
1.1485789782749249444
1.1484241967829869058
1.148330823209547491
1.1483158885356685719
1.1483851165475451594
1.1485306861338402395
1.1487347457042826893
1.1489627666755548585
1.1491901171870362308
1.1493673525449361605
1.1518371117790546787
1.1518882825147702675
1.1519688726090500097
1.15210657133752159
1.1522855302803558519
1.1524525149946762692
1.1525457242597791918
1.1525371911493949018
1.1524464977414736744
1.1523253398661179592
1.1522277112226555484
1.1521680955858439876
1.1521352925557497571
1.1521020828616859166
1.1520565170907799413
1.1520147416166119925
1.152016503432859551
1.1521003147457038462
1.1522727082255619369
1.1524977195557029042
1.1527144342332116267
1.1528733273173663587
1.1529552916150731523
1.1529753200724635054
1.1529669521209129357
1.1529621972711481259
1.152975260809341318
1.1530085574561212969
1.1530617403584779712
1.1531484512866034819
1.1532893200273937051
1.153505194583400062
1.1489737737026184394
1.1490811202622193132
1.1491698012118645167
1.1492256282190109751
1.1492370964832729907
1.1491966148872712061
1.1491043098975080028
1.1489678054133063423
1.1488056991745489999
1.1486433781066789361
1.148509971609241731
1.1484313273748507633
1.1484243393647053377