/*--------------------------------*- C++ -*----------------------------------*\
  =========                 |
  \\      /  F ield         | OpenFOAM: The Open Source CFD Toolbox
   \\    /   O peration     | Website:  https://openfoam.org
    \\  /    A nd           | Version:  12
     \\/     M anipulation  |
\*---------------------------------------------------------------------------*/
FoamFile
{
    format      ascii;
    class       volScalarField;
    location    "0.017";
    object      rho_0;
}
// * * * * * * * * * * * * * * * * * * * * * * * * * * * * * * * * * * * * * //

dimensions      [1 -3 0 0 0 0 0];

internalField   nonuniform List<scalar> 
106891
(
1.1492930286950517882
1.149241000414181979
1.1492324071727466617
1.149264293490841693
1.1493294577214450136
1.1494120275756933847
1.1494972298197811966
1.1495655340946455691
1.1496015538014652257
1.1495966019449308515
1.1495379084153927174
1.1522510649488859613
1.1521092244833446294
1.1520107915334922843
1.1519461978990461759
1.1518971361900784967
1.1518562041040669719
1.1518364291382292564
1.1518625959946966475
1.1519443053808182675
1.15206132476702372
1.1521630266276665644
1.1521935268512701889
1.1521299071560762162
1.1519905754975321432
1.1518337602809987086
1.1517263605240979363
1.1517200197023773622
1.1518344715450063998
1.1520567542009463313
1.1523582228271864736
1.1527019532692635018
1.1530402463927424961
1.153322622651516971
1.1535130152207948573
1.153611372281167835
1.1536538117303050122
1.1536930811443251166
1.1537681981381533447
1.153883877098571098
1.1540209037283168936
1.1541602228103273742
1.15429593341569392
1.1544357275357723935
1.1545883974888320189
1.1547377674020902205
1.1548512789372500364
1.1549049075215453986
1.1548893891747276097
1.1495326315710883147
1.1496707852561485197
1.1497600702140438056
1.1497904097211510965
1.149761083482694568
1.149679441086977949
1.1495605083391968737
1.1494255481081887549
1.1492973417768079791
1.1491973163576829631
1.1491394436439503757
1.1491318000183059489
1.1491720728405345753
1.1492520949379780859
1.1493545645782958786
1.1494623586394245862
1.1495533363897745271
1.1496090425640761445
1.1496209404267569987
1.1495763486618491012
1.1520159349401610793
1.1519094419970110632
1.1518460340672846964
1.15180193733209979
1.151758340442977202
1.1517228972136164256
1.1517310073311164409
1.1518089177511161569
1.1519514122788578891
1.1521086421813477862
1.1522148721102363211
1.1522199224104567872
1.1521199492637477224
1.1519594444155798474
1.1518070055469213919
1.1517326742958808872
1.1517793091985977227
1.151957040003242172
1.1522455024274915747
1.1525999356756893022
1.1529545747067457828
1.1532427201719868126
1.1534168976285945618
1.1534725424191134557
1.1534473950883714632
1.1534104194995704606
1.1534221623647278321
1.153509953422971579
1.1536698172461496981
1.1538829390017701915
1.1541147998102447847
1.1543365721836167381
1.1545269932852391115
1.1546636500832552219
1.1547335671804230817
1.1547409438745861454
1.1494320975956517916
1.1495761039477865317
1.1496740156097977614
1.149713935208063198
1.1496928143539022482
1.149616737372831432
1.1494999641739498397
1.1493634577289935095
1.1492298087361263459
1.1491209308423380175
1.1490521576640564394
1.1490333688119382938
1.1490648747700882293
1.149140000250472804
1.1492426753023106123
1.1493565857406427
1.1494596966660457493
1.1495318543285166779
1.1495616288122956217
1.1495359099286215354
1.1520028020816488468
1.1518913317219834358
1.1518245831755016262
1.1517814495046327927
1.1517450308718457652
1.151715930856139769
1.1517286110806217447
1.1518116909824520633
1.151957746515232861
1.1521264696696624785
1.1522584799024404578
1.1522975851142887027
1.1522301008279571821
1.152085648701953069
1.1519295941556924046
1.1518295825350592931
1.1518414885506307321
1.151988427722351549
1.1522535728271421362
1.1525913968958001465
1.1529290196207957475
1.1531898482484719271
1.1533231822865130933
1.1533248493772618737
1.153236011373422798
1.153132573345059031
1.1530899843655055825
1.1531597812030485173
1.1533511324163459033
1.1536361621094106678
1.153960142575716441
1.1542572959988388615
1.1544746979811333354
1.1545914450482350766
1.1546203711679243753
1.1545971896636999521
1.1494935037391496024
1.149560826260738633
1.1495754373053312936
1.1495368989850252017
1.1494532305436049313
1.1493386109330510081
1.1492120841079001003
1.1490932839166660973
1.1490021721356362683
1.1489508598672799611
1.1489453976831955906
1.1489836913224222847
1.1490582580718764483
1.1491546566898924731
1.1492568542609786775
1.1493473902319180091
1.1494068898769249643
1.1494298213434672729
1.149401831423956466
1.1518716807794153745
1.1518112237952227161
1.151765103264839718
1.1517387588897347594
1.1517422811386941461
1.1517907667761821955
1.1518978683044200917
1.1520438305793236911
1.1521880930801777776
1.1522822894399209481
1.1522892914705606948
1.152200223205023466
1.1520391007681105577
1.1518693159165667161
1.151752852651979353
1.1517469021572601662
1.1518763688380377896
1.1521282533928678404
1.1524568813370086318
1.1527889762225180803
1.1530474429035977302
1.1531792722906180071
1.1531756195935856102
1.1530741085726732287
1.1529486237048431896
1.1528830721396692294
1.1529373884134908046
1.1531329014648541431
1.1534393473904513971
1.1537856108631197039
1.1540834811477291844
1.1542730578776245753
1.1543378466699034668
1.1543108681200773269
1.1492601227864203128
1.1493684718231638175
1.1494330326225279393
1.149447042251157125
1.1494100238513684786
1.1493291440611916876
1.1492175798778765383
1.1490926754777983643
1.1489706704613968924
1.1488684511121629583
1.1487979544367954432
1.1487666349470724292
1.1487741729048361883
1.1488155693111559152
1.1488828311340579802
1.1489639667866238248
1.149049616102219451
1.1491187083195650853
1.1491721338446416745
1.1491864555607980147
1.1519179676107276222
1.1518569286222581916
1.1517957877149076484
1.1517703749089569509
1.1518026742394757989
1.1518940215594049015
1.1520275509207067444
1.1521666299552475454
1.1522702016838488603
1.1523072261472036004
1.1522664960507023046
1.1521621713005707477
1.1520219311893751257
1.1518956680380154634
1.1518283263371680292
1.1518548173132687751
1.1519862251204882053
1.1522085397950037056
1.1524783264619784529
1.1527390587800498967
1.1529353106208166668
1.1530285925800367597
1.1530111828727596102
1.1529139590682431216
1.1527944141441466286
1.1527249972909308084
1.1527579277386423851
1.15291683348790297
1.1531744857745866994
1.1534630992033694241
1.1537084138135802469
1.1538630862561700674
1.1539193402214600326
1.1492959255312544808
1.1493860476153472394
1.1494335555712644759
1.1494321178983184506
1.1493811453026752112
1.1492864064737418062
1.1491598413213419683
1.1490168583720159479
1.1488750989079148379
1.1487508814339597585
1.1486582776393352567
1.1486056009473992745
1.1485953689111432219
1.1486235424806650052
1.148682653070705495
1.1487626674761028944
1.1488449159969948976
1.148925085734983309
1.1489778080438304286
1.151818732729160466
1.1517786565972039092
1.1517850822460673488
1.1518675105773477085
1.1520124475266717567
1.152172640829234318
1.1522901879104698875
1.1523242206316017811
1.1522648004194318005
1.1521345398588989095
1.151978773264706879
1.1518537337043674995
1.1517922179293296203
1.1518174804702163705
1.1519282809101818454
1.1521028468895619934
1.1523100417924738714
1.1525104357355713258
1.1526690539510542344
1.1527662612787601404
1.1528026284350687547
1.1527884203037666033
1.1527462762515663375
1.1527048168537952222
1.1526918855341021786
1.1527353218198281848
1.1528435042653881748
1.1529958987684156835
1.1531562271648889695
1.1532943702198994451
1.1533875876511998637
1.1534436922251558588
1.149188916881000555
1.1492876095430293315
1.149359937492139272
1.1493947697346549308
1.1493850506884559781
1.1493288442711830921
1.1492313890948244737
1.149104153455031252
1.148962913608167602
1.1488248439197805695
1.1487069778873812975
1.1486223878070949134
1.148578625887352711
1.1485735051792382855
1.1486014505165749178
1.1486521754565617304
1.1487108609648910562
1.1487742303913637265
1.1488201960527331114
1.1518989043515683868
1.1519225390174443469
1.1520024628886547102
1.1521277270373009305
1.1522521198275228471
1.1523265096678017017
1.1523120869617771156
1.1521978672443491387
1.1520244476323362459
1.1518561852827438052
1.1517560109009485902
1.1517621934098765113
1.151869715197581856
1.1520414759184682829
1.1522280407353291398
1.1523769729810153795
1.1524630880613828676
1.1524857865389244171
1.1524668956438304246
1.1524413210957835663
1.1524445358476198553
1.1524884183874459787
1.1525682970361490476
1.1526605393798130539
1.1527482884565014576
1.1528152849875552555
1.1528609083311698313
1.152898145517693429
1.1529360849519392218
1.1529896291605468139
1.149116466566616257
1.1492086307810907009
1.1492754430958638245
1.1493060667096124394
1.1492933887061496101
1.1492374616186074032
1.1491430440770613597
1.1490219983807046233
1.1488891461668506722
1.1487614627792068767
1.1486541958541731656
1.1485785627909088635
1.1485397843318112532
1.1485359472204432763
1.1485640764220841348
1.1486102058724703134
1.1486759669368440395
1.1487389570242985126
1.1520446587884587419
1.1521003483725640315
1.1521602936014627705
1.1522119636442125223
1.1522252937201358236
1.1521754597295543743
1.1520590258539802342
1.1519070411464458203
1.1517818679712377161
1.151754001217772938
1.1518481665119917334
1.1520353211770140156
1.1522507137169213376
1.1524138463309827607
1.1524733231815647017
1.152428146809743259
1.1523196532374306855
1.1522021843058134483
1.1521299176588963853
1.1521413184978390731
1.1522403922087580685
1.1524000512999590384
1.1525653700572893179
1.1526902432563206347
1.1527454477557772528
1.1527388826670939004
1.1527089596688553375
1.1527034770156161514
1.1490532433440729942
1.1491830282448887157
1.1492874038882376908
1.1493497129197014495
1.1493580952394533146
1.1493095473530445805
1.1492088609382991038
1.14906963993717115
1.1489099253605430384
1.1487506306676638079
1.148611107843297674
1.1485081778064638591
1.1484531804647162279
1.1484476888005299422
1.1484917656959583443
1.1485674876733507066
1.1486732739708571671
1.1487800307263227317
1.1520429878844662408
1.152036361036388401
1.1520193600273473944
1.1520050081751154192
1.1519765348503765434
1.1519240185442300994
1.1518582113216428997
1.1518278413686022787
1.1518754755576743332
1.152015143735983127
1.1522083411222958649
1.1523671368105921076
1.1524251224080965805
1.1523628906390497306
1.1522083818670125765
1.152021334054332824
1.1518647453028627581
1.1517852920806950223
1.1517988785424582154
1.1518926460799532308
1.1520390917608878123
1.1521941933004427039
1.152324861549205437
1.1524050414807458509
1.1524459102158497448
1.1524820501459249744
1.1525488380159571999
1.1491673813776501767
1.1492910048021203195
1.1493701029235621203
1.1493906794307695574
1.1493472925012424568
1.1492446402829732399
1.1490980412480564787
1.1489290338450410811
1.1487617058918413449
1.1486183869677368818
1.1485165832684112175
1.1484679508218476052
1.1484738150301787574
1.1485347303961048748
1.1486324577429130045
1.1487611957726930889
1.1488910165757746373
1.1519286136592741254
1.1519401187935320863
1.1519110440251327798
1.151892053689295814
1.1519074923649550435
1.151931648951658671
1.1519325570953207194
1.1519126416605318663
1.1518969636028291159
1.1519313455365951526
1.1520233434106288417
1.1521401198393741439
1.1522198116169419801
1.1522173425325703544
1.1521309615735673137
1.1519988118144046663
1.1518727466826053085
1.1517904030317827058
1.1517489675174026331
1.1517293771802890046
1.1517270366972951479
1.1517491178149896758
1.1518238821064084032
1.1519504823715629449
1.1521279666707520128
1.1523269702970333483
1.1525204459776490218
1.1491821523056946486
1.1492482166377042674
1.1492669819990748437
1.1492355479931981588
1.1491580808360293275
1.1490465783353667195
1.1489178950858955908
1.1487915523021108299
1.1486855779065019423
1.1486138810500543528
1.1485861646697999028
1.1486015579288677557
1.1486621951127142793
1.1487522693658671624
1.1488694261224778881
1.1489896983486407311
1.1516579725858870908
1.151649625968296009
1.1516455940973027161
1.1517046364222665034
1.1518313994526945265
1.1519794437458970027
1.1520845803377990357
1.1521134144103388763
1.1520785336951342437
1.1520209603137985255
1.1519723133468742216
1.1519362805469159916
1.1518966054430033186
1.1518410950058255438
1.1517790887709962178
1.151736107872551429
1.1517324613092485563
1.1517583953510672767
1.1517715669901031905
1.1517317174348808972
1.1516404454650548406
1.1515412896394259246
1.1515012276459954954
1.1515707999295479169
1.1517506403504278456
1.1520013497238319466
1.1522736843391490069
1.1525399840069951996
1.1491542935735645781
1.1491987401057293106
1.1491923523178184663
1.1491370504871027958
1.1490421906990369028
1.1489228573496679253
1.1487987212939754222
1.1486895220435369147
1.1486124379728688272
1.1485807546832593751
1.1485957925895080578
1.1486614585783616604
1.1487617214220595674
1.148893092224242185
1.1490284243536823539
1.1511941557374854028
1.1512521102385890881
1.1514254794506919577
1.1516939302727997596
1.1519813723912490921
1.1521885110905749627
1.1522504608743353582
1.1521756150765012361
1.1520071263263753636
1.1518156273852657723
1.1516539568872687926
1.1515437573276847694
1.1514936998822651315
1.1515114973946685151
1.1515920647087825035
1.1517148204317166904
1.1518289760655255893
1.1518696220612667513
1.1517999363026392157
1.1516383587117711151
1.151456490002062738
1.1513427749898390573
1.1513593540750786115
1.1515138132435513985
1.1517640767512011823
1.1520503240830399783
1.1523327590083780603
1.1490689002361413884
1.1490841898803094701
1.1490548791809305218
1.1489898605354187389
1.1489042680108363381
1.1488169520162621051
1.1487463234836254866
1.1487073647129784071
1.1487102752864752908
1.1487539789323832906
1.1488380975143828167
1.1489433477580370813
1.1490633187250736125
1.1491696904103436694
1.1509005411861117363
1.1511788201909209928
1.1515662021744235144
1.1519567435221191865
1.1522339573611750652
1.1523206439179074501
1.1522115137025477072
1.1519684563149135137
1.1516826655102310184
1.1514345063681048487
1.1512829339788204219
1.1512512404305403901
1.1513359261736415551
1.151509168174199349
1.151710816876297061
1.1518622839124050827
1.1519005847669026021
1.1518058769135139929
1.1516164790258254236
1.1514151268474164258
1.1512879662178732154
1.1512885820411540294
1.1514182734434081912
1.151639160852641286
1.1519006861753393611
1.152170026696992311
1.1489333414483011708
1.1489320236503228756
1.1489012708053218947
1.1488552236870046563
1.1488095395851993796
1.1487800199658049216
1.1487776017194668565
1.1488106561597721811
1.1488751548955928872
1.1489698016817864179
1.149074685844569732
1.1491838816499730935
1.1492742381691076758
1.1510073343420805791
1.1514628618622828604
1.1519027997448030298
1.1522051321550335068
1.1522940787757762759
1.1521693496561764558
1.1518989650470583541
1.1515849058704987762
1.1513189032556150337
1.1511712684237216386
1.1511694580480733574
1.1512996861663202797
1.1515147381507000457
1.151730192664071728
1.1518590063923122013
1.1518569103396736342
1.1517326463000669978
1.151543805339287907
1.15137013927627474
1.1512818906447870315
1.1513109564695098719
1.1514448435253439307
1.1516458367357906845
1.1518789839077989701
1.1521255357570598932
1.1489092412984791558
1.1489018807150173096
1.1488779512901603486
1.1488518268381877618
1.1488392688161546129
1.1488507023490643899
1.1488944683106125932
1.148965747838146978
1.149063656406086098
1.1491686927176931743
1.1492752566096018363
1.1493627658681349057
1.1513633918730925565
1.1518099897947025045
1.1521082098900434776
1.1521971303435369904
1.1520824374610449947
1.1518309039554455175
1.1515394889024115344
1.1512988255922020908
1.1511753030107285678
1.1511981314172727853
1.1513506566415281362
1.1515691571046886565
1.1517617872904877263
1.1518527139483647481
1.1518150742822361732
1.1516758784441352148
1.1514978482847193497
1.151348886058794152
1.1512758359377195383
1.1512870264476182669
1.1513696847203656048
1.1515025289228641991
1.1516735529307793318
1.1518838793915635588
1.1518723706044657895
1.1520840767318871745
1.1521109573519296987
1.1519767036628623114
1.1517455344725702204
1.1514977981094114412
1.1513058514895790907
1.1512216062868956268
1.1512646972599058781
1.1514102166962238982
1.1515921632767243121
1.151731395743517572
1.1517730972183319871
1.151708710235073152
1.151577059488028576
1.1514362305119236751
1.1513366215043030483
1.1512989482032180977
1.1513179043520969103
1.1513831916523640242
1.1514931129999330661
1.1516541044281516371
1.1518711478386174374
1.1519177899863020098
1.1518253568689860167
1.1516704176898604484
1.1515096965580955413
1.1513935327653150864
1.1513529222236453808
1.151397222013508248
1.1515033677071375706
1.1516134572280281034
1.1516705929718946688
1.1516464494787133077
1.1515498731781679265
1.1514233601803669504
1.1513159583428358435
1.151257673281353755
1.1512485564600098975
1.1512807655790444628
1.151349515012492164
1.1514690670640976844
1.1516561634656174995
1.1519122277511002483
1.1514218260299839969
1.1514177956780731193
1.1514695658752924778
1.1515574129460519615
1.1516337929712712196
1.1516567990051296277
1.1516146068342898445
1.1515240640010422357
1.1514224024014330094
1.1513437032764590739
1.1512987707593695941
1.1512800472205382274
1.1512853889835354959
1.1513252913801563793
1.1514258648153641307
1.1516092151111272379
1.1518770194246166216
1.1515476194502916041
1.1515421113292314548
1.1514996475909267115
1.1514370180569386548
1.151378022800310541
1.1513367633392554978
1.1513073784688707679
1.1512787892030660331
1.1512541950816381764
1.151263141773489096
1.15134382222196896
1.1515254077976513347
1.1518118521241749175
1.1514061419756997928
1.1513676403815429339
1.1513257599011039733
1.1512939292998720653
1.1512743532523803669
1.1512534898144191065
1.1512189143327287155
1.1511843450067269501
1.151193255293159412
1.1512952003094325537
1.1515234787642421033
1.1518737357936006394
1.1486811940349643812
1.1485971397645180492
1.1486339857518823582
1.1488269020304855417
1.1491801105295773588
1.1496720800939337348
1.1502578404550860558
1.1508555955938597481
1.1513354412078486977
1.151548515480923518
1.1514053922222005077
1.1509400771899660487
1.1502927099897475305
1.1496433354334707477
1.1491396067675341275
1.1488555868665932813
1.1487907808105874974
1.1488918823994109797
1.1490696262576067799
1.1492244444434271955
1.1490188063366475468
1.1487931080500202174
1.1486342614519360339
1.148578283420241597
1.1486735793128779459
1.1489422610504826938
1.149374948595731194
1.149938829122725048
1.1505619648837412949
1.1511205082751088113
1.1514617215569415976
1.1514666880775128455
1.1511262102986252742
1.1505446985419307548
1.1498891855189625755
1.1493229111892702132
1.1489554691122088048
1.1488204175702101395
1.1488826006136385605
1.1490536333314156359
1.1492240729027498602
1.1493077968222495944
1.1498840126403153672
1.1494705675845400261
1.1491220889926092585
1.1488313412857307227
1.148604342941455414
1.1484795504708766867
1.1485112851650549626
1.1487258164276616945
1.1491114196411700288
1.149633968008683782
1.1502302807158955034
1.1507917838690719936
1.1511806191533613397
1.1512731331620236208
1.1510330547756650876
1.1505348379832769368
1.149923950366805725
1.1493588478672835951
1.1489613875713335922
1.148782665376616885
1.1488005076041396535
1.1489348767062861345
1.1490817394458456846
1.1491632319530808992
1.1491522267999707552
1.1490685108924985069
1.1499942712477169149
1.1495958112054527334
1.1492469612177111937
1.148963575648932034
1.1487259219695196144
1.1485392245865018168
1.1484515902683620769
1.148520429142108279
1.1487635505520659152
1.1491443589309324746
1.1495993674474604962
1.1500545806513315927
1.15041942745687642
1.1505962283498061272
1.1505098559597979335
1.1501558899530888169
1.149624732169939767
1.1490597497773911151
1.1486003693572646167
1.1483381972141371019
1.1482888668369584106
1.1483955103102485573
1.1485603880365780061
1.1486876202334881381
1.148732338247238749
1.1487121438816574326
1.1486786343731609783
1.1486669083776570588
1.1494354522715510836
1.1492844092003637879
1.1491022605456819861
1.1489714012465466197
1.1488972529298424607
1.1488383709620773043
1.1487750661083673265
1.1487341484486031096
1.1487538968550485841
1.1488371022318237813
1.1489474966240416087
1.1490462503182639065
1.1491174690367729205
1.1491495652243188808
1.1491134174958517189
1.1489708914497442915
1.1487042199247432528
1.1483537890253237013
1.1480042920431692277
1.1477452482150083402
1.1476400085691083053
1.147701236631741839
1.1478843525665802794
1.1481131715142400829
1.1483169292454902255
1.1484678117704645306
1.1485865435750797214
1.148703538131684132
1.1488081948736748039
1.1488443959702743236
1.1496201126802370052
1.1496853801691802044
1.149545028171820471
1.1493215452929228526
1.1491058987854101403
1.1489072714004571196
1.1486949867282851834
1.1484681187703087435
1.1482855386545687271
1.1482209827560454496
1.1482924454988927554
1.1484582545400647824
1.148656282475558843
1.148845278734113462
1.1489943323653208918
1.1490610362204547457
1.1489990587762470842
1.1487887113513473025
1.1484702987115975592
1.1481411416294571293
1.1479069952081299988
1.1478381224146601003
1.1479428732392995549
1.1481583735051239525
1.1483854355443634532
1.1485434493246051701
1.1486146277126851878
1.1486468064818449175
1.1487005611138845218
1.1487820791546929922
1.1488330626765521636
1.1487758361066353618
1.1500366816244316226
1.1501398271845715282
1.1500190750839116571
1.1498106476813869659
1.1496140917891892741
1.1494379134070666915
1.1492322177339573397
1.1489892419040068638
1.1487775083764486528
1.1486811713805964441
1.1487332500807865276
1.1488950726395676938
1.1490996987536519214
1.149299640261651767
1.1494620604935688046
1.1495444020701286458
1.1494999348493195601
1.1493086529660152539
1.1490088845715191734
1.1486991645631652315
1.1484898491905306539
1.1484491075963441098
1.1485778257709093886
1.1488032721610448306
1.1490163855613420019
1.149137645384926687
1.1491625107487877244
1.1491568382787289426
1.1491927966075383694
1.1492742935071729171
1.149329427049695207
1.1492670191660603329
1.1490549536412675291
1.1486824167661806584
1.1485625996468560306
1.1483094214461599947
1.1482308377204704097
1.1484764549936141709
1.148887061037699997
1.1500267539331754385
1.1501246251482686311
1.1499911049079645231
1.1497685310511598367
1.1495613802496154054
1.1493727185783195743
1.1491473393692295257
1.1488748301029789722
1.1486284242729445371
1.1484983900738328089
1.1485236975719115282
1.1486641764392684362
1.1488479925499570644
1.1490267608527366949
1.1491702739728040239
1.1492385488145635541
1.1491829720089505873
1.1489787068738026576
1.1486588916791620196
1.1483193953795465259
1.1480776711005544755
1.1480048123205184307
1.1481036165247708869
1.1483003551576631551
1.1484821689732476191
1.1485674030354928732
1.1485561383640998656
1.148523146346583923
1.1485428924656042593
1.1486170502134336324
1.1486634177067902574
1.1485808154767365163
1.1483352098961816523
1.1479987422585355983
1.1476162640125149306
1.1477594169941791602
1.1476158848983051275
1.1473275059011074362
1.1472257279274271635
1.1474530264424855908
1.1478524127683771283
1.148175540585926635
1.1482543575709625028
1.1480991720430564484
1.1478554068548036948
1.1476280030505670027
1.1474208338480837988
1.1471766464022377097
1.1468838829930718681
1.1466159619661717706
1.1464689169761019816
1.1464803077932446129
1.1466096609366496217
1.1467836413843441878
1.1469514291780149584
1.1470838274275529933
1.1471423761781507356
1.1470778424726031375
1.1468644689998994668
1.1465340918365243272
1.146184031519690727
1.1459311996110121967
1.1458545919986002914
1.1459521758124429081
1.1461486303992767244
1.1463279112091104839
1.1464063628757426017
1.1463859836848870888
1.1463487259722318079
1.1463700286897646752
1.1464509516621339547
1.1465040493242759645
1.1464238832482829267
1.1461755415969538952
1.145832673105585453
1.1455447488383050381
1.1489432289508187957
1.1487216559664827908
1.148533298280054904
1.1483907979186764869
1.1483055648115256808
1.148282702606518102
1.148323040291445496
1.1484206009987991681
1.1485607385917868672
1.1487294842258082284
1.1488991627692142217
1.1519991181778757028
1.1520885423122144697
1.1521612921924597739
1.1521753730856338915
1.1520985447189719952
1.1519327031639434722
1.1517210561330473162
1.151518775102943426
1.1513658375370734444
1.1512851448728909087
1.1512842036883079722
1.1513661162151971329
1.1515293521554970102
1.1517669186216707988
1.1520589669791361231
1.1523683241567843627
1.152650080313629033
1.152870777627815535
1.1530165131829315239
1.1530980865938320612
1.1531530069615487655
1.1532342661475458723
1.1533847003054769065
1.153615601730978657
1.1539021942556173528
1.1541926559640041106
1.1544434751861070154
1.1546264979291449571
1.1547433668256099626
1.1548022432765581158
1.1548064456939928224
1.1547534000066208559
1.1546575214508778551
1.154552415684732658
1.1544868978633131551
1.1544949563975785978
1.1493143594089310078
1.1495005850132251624
1.1496495405805815526
1.1497439934774651427
1.1497731582458370347
1.1497331368157628351
1.1496268942517342548
1.1494635810149684829
1.149258335665202857
1.1490291987057439371
1.1487973278852632308
1.1485823859928163682
1.1484034374466947082
1.1482754698096822032
1.1482113069228827573
1.1482179439502822049
1.1482948252146865098
1.1484350471969553276
1.1486171018886635053
1.1488247118981189665
1.1490205152506396402
1.1518504956570176923
1.1519879974881737095
1.1520803862558597341
1.1520971050219737108
1.1520266555311537982
1.1518926060999128413
1.1517440701072207965
1.1516193804964311997
1.1515371278317143577
1.1515018412351121224
1.1515181843986430632
1.1515910240588946856
1.1517234915056411282
1.1519103515385649139
1.1521284417683470558
1.1523496807056765601
1.1525456679636318924
1.1527053259951463016
1.1528285275418179712
1.1529235198384102379
1.1530063164196331371
1.1530985069964256873
1.1532232254225152079
1.1533910965813782834
1.153596538309761943
1.15381972966223878
1.1540370006151452476
1.1542247594284105183
1.1543693339950928944
1.1544622044029302366
1.1544989567127046382
1.1544782115847476156
1.154421268517294541
1.1543706045915600455
1.1543732630095715486
1.1544557374570056929
1.1491820724991756997
1.1493533271562677012
1.1494970336821552781
1.1495954911120520592
1.1496362979750958111
1.1496129488317923251
1.1495251559587646994
1.149378471779909594
1.1491852581698485114
1.1489622402642785115
1.1487322067809271342
1.1485179986345217529
1.1483434123189788512
1.1482266894444002059
1.148182320927643385
1.1482167499531132915
1.1483277039147146148
1.1485041684196750644
1.1487189501784174084
1.1489510134890776882
1.1491554709279794277
1.1519292358189969772
1.1520247024213270404
1.1520406462355918809
1.1519932333638827071
1.1519279276935796563
1.151878038408377769
1.1518482134719352228
1.1518327804193255748
1.151823929950467118
1.1518237141967608839
1.15184939581048984
1.1519174563195520022
1.1520303936975162529
1.1521674927832412649
1.1523032184400461286
1.1524207019159420362
1.1525206288226683693
1.1526174748444311113
1.1527244202687279007
1.1528404565444092533
1.152960169919296618
1.1530819492192667663
1.1532064976349085672
1.1533381278659156077
1.1534819126337971795
1.1536359958812649751
1.1537873297942515816
1.153920676947467916
1.1540168586315169286
1.1540657791576143243
1.1540724037383147671
1.1540664765626595933
1.1540935514415124885
1.1541910219978879226
1.1491487250082597082
1.1492933777843614696
1.1494081980590000747
1.1494777562395932513
1.1494903558162332669
1.1494397326216583277
1.1493258324139827842
1.1491568932528577474
1.1489482174764378275
1.1487236766606812033
1.1485100196281063933
1.1483358721796901314
1.1482246762613379509
1.1481937199775849034
1.1482488129581143177
1.1483852038156576736
1.1485869401257404743
1.1488222536952144015
1.1490659988337543762
1.1492684848162106892
1.1518187640576269537
1.1519194784419619637
1.1519507599588869606
1.1519665620777024273
1.1520098706382015941
1.1520826020642860321
1.1521605213653727251
1.1522097286975065966
1.1522119259242467049
1.15217156493089945
1.1521246505779565439
1.1521055083414135645
1.1521258060898860176
1.1521730933938847397
1.1522191840675164443
1.1522543220055705415
1.1522878730744177123
1.1523497983599435557
1.1524640931263177013
1.1526221138379675324
1.1527965061309994876
1.1529549628071380507
1.153076645385943122
1.1531618780246977174
1.1532294025757670042
1.1532967019835616007
1.1533743014279280725
1.1534558672905832477
1.1535276790935344859
1.1535782849203992662
1.1536198188320150315
1.1536826282589522918
1.153804993268940482
1.154005307049084772
1.1489870576678502534
1.1491189219054731563
1.1492355074882281141
1.149320957315507874
1.1493613421714086176
1.1493466657007089804
1.1492716771298616685
1.149140184816946908
1.1489643264648561338
1.1487668954998850879
1.148576149716123318
1.1484225074418661361
1.1483314300551430431
1.1483196319954360742
1.1483922935926149655
1.1485408913547563436
1.1487469737645685797
1.1489756374371165037
1.1492020915355987132
1.1493770214509955174
1.1518382463862932852
1.1518896146753261345
1.1519722087274901767
1.152111989086134658
1.152291528538904597
1.1524566497732282588
1.1525459124456787219
1.1525333948675811069
1.152440363572021953
1.1523189271713578652
1.1522221655354165648
1.1521634689204769408
1.1521305424219407954
1.1520960618327393821
1.152049282864380686
1.1520075727055485437
1.1520112396479607053
1.1520983474553865289
1.1522736463302323262
1.1524997394238660764
1.1527152612181861269
1.152871428433417833
1.1529506128546171961
1.1529688498555064058
1.1529600808160553882
1.1529558960795633915
1.1529698643515127188
1.1530041709983409604
1.153058781461400395
1.1531478380726254418
1.153292123559665594
1.1535119518385579251
1.1489771686120633376
1.1490857980614499478
1.1491752447901160128
1.1492310575569570918
1.1492416595130596768
1.1491996319672743709
1.1491054603653154675
1.1489672472595664487
1.148804023568819499
1.1486415215321963412
1.1485090644060640397
1.148432464373470463
1.1484283053408017583
1.1485026387917995905