# Forces                    
# CofR                      : (0.00000000000000000000e+00 0.00000000000000000000e+00 0.00000000000000000000e+00)
# Time                      forces(pressure viscous)	moments(pressure viscous)
0.00516                     	((3.95976466079162924027e-16 1.50694029582501425466e+04 -2.37661307620701967879e-14) (4.78745356134731570030e-01 -5.18438141966664958055e-03 6.68148677514636760155e-08)) ((9.61086117581189114389e-03 6.38071340591110010775e-15 1.22320235869774478488e+01) (4.25656236081314049021e-06 1.71387596732206892031e-05 -4.60228444972239636446e-02))
