/*--------------------------------*- C++ -*----------------------------------*\
  =========                 |
  \\      /  F ield         | OpenFOAM: The Open Source CFD Toolbox
   \\    /   O peration     | Website:  https://openfoam.org
    \\  /    A nd           | Version:  12
     \\/     M anipulation  |
\*---------------------------------------------------------------------------*/
FoamFile
{
    format      ascii;
    class       volScalarField;
    location    "0.0068";
    object      k;
}
// * * * * * * * * * * * * * * * * * * * * * * * * * * * * * * * * * * * * * //

dimensions      [0 2 -2 0 0 0 0];

internalField   nonuniform List<scalar> 
75962
(
3.1856331142708212644e-05
5.469381010404617509e-05
7.4262985106644398389e-05
8.4137323028559424655e-05
9.6124307683628280484e-05
0.00012518236195369482171
0.00016526612700644367814
0.00019266357453289259657
0.00020709038021509391741
0.00022740648402134490663
0.00026956592062951618234
0.00031341997727454926504
0.00034964617687956856115
0.00038576848765766320317
0.0004326723122096660999
0.00048996751198922727961
0.00054333705645101071455
0.00057851457653248410454
0.00059667613035035635405
0.00061369508456235899885
0.00064907446703771137439
0.00073953413414487047511
0.00085238208332097983432
0.00093823762751372421966
0.00098902073643137070579
0.0010133626033081463529
0.0010305968595038864088
0.0010622612594136072398
0.0011460388244641367666
0.0013007592435745165323
0.0014362887037959498789
0.0015315282567305102141
0.0016038044451823266733
0.0016862356159390010958
0.0017839820308007234458
0.001872107098524728331
0.001929966204994779588
0.0019630540098860755661
0.0019927676682825155863
0.0020316291350648855649
0.0020748077481069632233
0.0021117898897049999785
0.0021386346583620067727
0.0021604875584981891
0.0021922146162475075054
0.0022577408731504879438
0.002413093299698877963
0.0026524895331656223908
0.0029103736569689557523
0.0031314050983714948433
0.0032776626978166536162
0.003351400801657747168
0.00338282076344374261
0.003404261669336221003
0.0034362069114543605797
0.0034897752961287418355
0.0035708706364937520955
0.00367822682800777968
0.0038010535197316687103
0.0039198087992065857796
0.0040120506177454490562
0.0040660474893175566763
0.0040944419191298042637
0.0041306120128674853748
0.0042153894262607306473
0.0044648740295087771188
0.0048297570153776562402
0.0051200848819421100611
0.0053016120965550649763
0.0053874428304578900542
0.0054153506812555070662
0.0054223618918835406535
0.0054299369356247528112
0.0054481462751441176243
0.0054991032030100488529
0.0056465391402029593837
0.0058742279996931538733
0.0061008828720851109029
0.0062970757809900695587
0.0064319705776122318777
0.0064947552679618016785
0.0065108375695512510015
0.0065210017298287740323
0.0065590589125774298451
0.0067301145530041907653
0.0071398637143485123996
0.0074574315640455243054
0.007644446370416281035
0.0077414221729880583131
0.0077941765018449994662
0.0078316875179560568876
0.0078637686959982817242
0.0078936416066502368416
0.0079349543920778226047
0.0080182278458770690766
0.0082365947281271105485
0.0086258144682567223366
0.0089696799481814963595
0.0091860447661070345621
0.0092685837682404074306
0.0092803853740770665681
0.0092873352669640505536
0.0093356246774876534833
0.0095651060458638494793
0.010107179792807320651
0.010572640824288272524
0.010920222671592694913
0.011165773640328904848
0.011322037077535132901
0.011403654905557985416
0.011433034031103411418
0.011440349227634987947
0.011451825222740909596
0.011497206475232535014
0.011682540820403363238
0.011938679654330409952
0.012069707465740963856
0.012102015564982795612
0.012095888591625981665
0.012031734591217993491
0.011862234611756172775
0.011751094769902050222
0.011714967386095608351
0.011720866432108668215
0.011809377412219004833
0.012214782119335952995
0.012975890755819591282
0.013510008212035592642
0.01378941309487673357
0.013916668311199651212
0.014053958931083005909
0.014363006846674731404
0.015028065022551528526
0.015736958711014176898
0.016293324325762057608
0.016608229533833077096
0.016704028040913782016
0.016695090862064873583
0.016565319959509165054
0.016310614025715715336
0.016226376903257965639
0.016250003778614414973
0.016492285983102220048
0.017345183542674676158
0.018133314728756715767
0.018504295767982247706
0.01860790966102515015
0.018612205385606737235
0.018608293541466761761
0.018615857285439071228
0.018635672992928471042
0.018632185568633972267
0.018560878675762369078
0.01822443981632820148
0.017690502377754071389
0.017374420365199590849
0.017250749895704513281
0.017233852887947560123
0.017256999639879134351
0.01738013669364328953
0.017560461881784616978
0.017670698887839651064
0.017723760335749308426
0.017744455852719824562
0.017746975229116064565
0.01774343661161517649
0.017724033538656359249
0.01764982364407342505
0.017510691804293751495
0.017394398735248332855
0.017309706973749720837
0.017257491958249961822
0.017231873824703834719
0.017225752038269127875
0.017227945413312985984
0.01724055004274156408
0.017283908275691338419
0.017424837144362208263
0.017643280584429727603
0.017825279738198685636
0.017962551660704033363
0.018054459042701760663
0.018107012712510760916
0.018131770814823148369
0.018143211083833991198
0.018155454105397709347
0.018181918963136818601
0.01825163689907000758
0.021945896551843830508
0.022016470251698314758
0.022078021273654543227
0.022131262804176508874
0.022180304499816332064
0.022229068149750133565
0.022282503425947352421
0.022343750283746167951
0.022415917750139350423
0.022500851744381007019
0.022598044360826199939
0.022705293064814825038
0.022821305485318476441
0.02294314457623247358
0.023067170656237211829
0.023190715669665889348
0.023309170782060933957
0.02341841238428265734
0.023515075874741334788
0.02359515844768333287
0.023656526670052292066
0.02369845723668211751
0.023724328536118003546
0.023737816832668380551
0.023743339590032181557
0.023744996542512192272
0.023743844874341828166
0.023737230750932526019
0.023728929959093932045
0.023722294700427467434
0.023716416849927441507
0.023709481955048759827
0.023696032758689960368
0.02367139036116136519
0.023641531307748247376
0.023609566547000818137
0.023575142410614164518
0.023540476030191392204
0.023505102385537865461
0.0234713108844432361
0.023438877660220767268
0.023409450631589476949
0.023381778268941225823
0.023356497688777535376
0.02333195471707583124
0.023308727259709043772
0.023285510804436668902
0.023263054166885659829
0.02324051762755695999
0.023218876377174759579
0.023197579793813701693
0.023177361474489149851
0.023157421673739221613
0.023137959489106157962
0.023118048633541807974
0.023097864310818918415
0.023076896314142374828
0.023055797767898785627
0.023034500676500400257
0.023013842123850616894
0.0229933240666331494
0.022973313905875331759
0.02295266236731705739
0.022932032384864541041
0.022910344042984382568
0.022888631081995992889
0.022865688731924734695
0.022842546583167620128
0.022818286014579931137
0.022793959877926772001
0.022769121851626550335
0.022744704141684810722
0.022720372399581703626
0.022696481281579809069
0.022672384248224642517
0.022648208744683259036
0.022623857426739515941
0.022599972485078494155
0.022576484762173453652
0.022553855307767722155
0.022530998478729188234
0.022508331117185077092
0.022484493917684134773
0.022460393051713437723
0.022435137583423692131
0.022409601239481522633
0.02238370263551030942
0.022357835192459991902
0.022332627792606526279
0.022307544234521910903
0.022282765632333022265
0.022257317043510149029
0.022231268710703907393
0.02220452546598135693
0.022177898810968706828
0.022151485772558345694
0.022126519139620159926
0.022101814332566905447
0.022078667265914043993
0.02205491685600374091
0.022032035585590699356
0.022008165485147290069
0.02198488128786471249
0.021960697136258498785
0.021937246062674952557
0.02191247602953425716
0.021888231009631730489
0.021861664974768973274
0.021835415570572939969
0.021807027063487711277
0.021780127548454469161
0.021752314834189063336
0.021727204383027415302
0.021700952064727541818
0.021677072639435045198
0.02165116743981219255
0.021626899679424074069
0.021600659504512918774
0.021575624357442532014
0.021548592353543619821
0.021522929434388337472
0.021495243118575303037
0.021469778822681008512
0.02144256405112455674
0.021417694433875214544
0.021391057993383342378
0.021366499010410277409
0.021339745601335766145
0.021315332405216391026
0.021288128261745153241
0.021263446256181168376
0.021235859992641152594
0.021210891380939261852
0.021183349120798958265
0.021158832511348965588
0.021131817892680773707
0.021108005758909476057
0.021081861052193742734
0.021058658092867929557
0.021033490079493306207
0.021011255606963166742
0.020986908123081137595
0.020965502650451113553
0.020941435862988157929
0.020919931879509041234
0.020895291912222661856
0.020873151617552536397
0.020847531792708786508
0.020824574982907278348
0.020798171575708512826
0.020774939205055333036
0.020748861668455589879
0.02072657524259115952
0.020701516191095243463
0.020679895182395036796
0.020654810149545437675
0.020632812779272036163
0.020607206726907720956
0.020584567549239738554
0.02055880386093272838
0.020535959929477456271
0.020510032959792381946
0.020487061690079487464
0.020460667566005039802
0.020437294858194985508
0.020411012668920092139
0.020388083325894191394
0.020362801945557902628
0.020341077022756899606
0.020316647769735490803
0.020295489827950746048
0.020271309827726381736
0.020250199246559255628
0.020225706618133994924
0.020204388126528541325
0.020179349971663679275
0.020157701353547836931
0.02013215098182065399
0.02011050850013255259
0.020084967154727163818
0.020063559362741220649
0.020038591370474662795
0.020017818086524755833
0.019993799543385027545
0.019973465652692104499
0.01994993344926410811
0.019929482530135367996
0.019905571259232802267
0.019884922566472063021
0.019860492288511010645
0.019839714806651247148
0.019815246408787304255
0.019794457250162843243
0.019770222198689429982
0.019749593871638337211
0.019725826148703877461
0.019705672037333879509
0.01968296490651990846
0.01966383780288757932
0.019642182292728120607
0.019624027629408145879
0.019602617824007517733
0.019584587113837571837
0.01956239628610230083
0.019543685618454133268
0.019520559254548517508
0.019500845607636485557
0.019477206572194951523
0.019456809319876536973
0.019432764489716172068
0.019412224628876893762
0.019388082725322022121
0.019367904926856520376
0.019344366051334074136
0.019324927734874094293
0.019302468394959994974
0.019283745071870157101
0.019262122959439804959
0.019244132079271815405
0.019222556957742612666
0.019204978119726628938
0.019183249454210748314
0.019165415404728426002
0.019143732522782622857
0.019125527358139094575
0.019104122344157783292
0.019086155403700403449
0.01906495470337603651
0.019047661296931164138
0.019027143368713386046
0.019010360774447489229
0.018990131498365970392
0.018974000645497406808
0.018953959979447185941
0.018937981213010324222
0.018918415044485312193
0.018902607503063113825
0.018882958657889224036
0.018867236357264376839
0.01884742337495557904
0.01883202437771229823
0.018812537927789890757
0.01879779094697673833
0.018779183315092408402
0.018765001004201808943
0.018747210156607622966
0.01873360235033523849
0.018716184695455304748
0.018703070311208908061
0.018685408751275733169
0.018672381029788579637
0.018654545369588510645
0.018640885980105006969
0.018623231908216474756
3.4358215977926168485e-05
5.7134081406258353916e-05
7.3596978277235848825e-05
8.2736667992075636768e-05
0.00010003488505715162939
0.00014106217876979715515
0.00018624427714909283396
0.00021328383035738965627
0.00022553845869015181421
0.00024170930456120820235
0.00028264590765131986875
0.00033432059408331621635
0.00036530420677490871642
0.000386516030857006834
0.00042645636208744354921
0.00049084237707817826666
0.00055566495489468511765
0.00059891500568824012924
0.00062179493198811532084
0.00064626966316698463994
0.00070005699054634157232
0.00079800652591832687589
0.00089541916284573109478
0.00096582693847987685122
0.0010034717868754444974
0.0010223573389015446281
0.0010452561224587573769
0.0010967125427555071086
0.001231510620626462011
0.0014057972662333180231
0.0015637078730748046277
0.0016877196283856226843
0.0017664172896690406508
0.0018062954908987854594
0.0018378466357328773328
0.001890018320818578337
0.0019644495493386275944
0.0020381590281251071688
0.0020928153946265758145
0.0021293134170448568473
0.0021601004725689421787
0.0021880368684773455687
0.0022104162528116251367
0.0022335128366102571969
0.0022741446152944370072
0.0023600631741067914018
0.0025373541413453927669
0.0027864599826196391127
0.0030546926101321686571
0.0032753406921119713156
0.0034119776001195227175
0.0034732175456761737488
0.0034960471769127999045
0.0035187339408874265811
0.0035643604981429443529
0.0036407651139705697607
0.0037436199197352303635
0.0038628072887922134532
0.0039845215275538621233
0.0040930157007129748178
0.0041737144925318402089
0.0042204720726853823046
0.0042445441287422020632
0.0042736365471469804286
0.0043409418800555744922
0.0045485093333635226096
0.0049958419572284518823
0.0053849077998129333059
0.0056446970167635755061
0.0057785163289417098426
0.0058279528386636792608
0.0058396516231581556758
0.0058435333224310650677
0.0058515929602376602972
0.0058719982896332737626
0.0059292956854780122511
0.0060971537613905574943
0.0063310931945218633377
0.0065296011753802731328
0.0066667504962342142433
0.0067342903331244173548
0.0067533026177905419035
0.0067610738416641795803
0.0067856643930017945809
0.0068973174380046386664
0.0072607377714859642689
0.0076550415558851829523
0.0079229664424908183284
0.0080859902024633788925
0.0081795484271894262213
0.0082344991146591616643
0.0082699916540698928391
0.0082965065685480631624
0.0083287063884283970422
0.008393232478528115173
0.0085609660238743830879
0.0089805715308389176543
0.009406236407363774768
0.0096920961667008535129
0.0098211138321265302464
0.0098493759598685653306
0.009852636808932313181
0.0098729357950197802613
0.0099894888116025572222
0.010389650412836629739
0.010870291184564687126
0.011237042759429681504
0.011496951144473958883
0.011658987957051244674
0.011740966868963722408
0.01177076034375918942
0.011783990659676708487
0.011809003512990591186
0.011887215437556001435
0.01214001198111867505
0.012426403836293942878
0.012590882748434591501
0.012650338893898341319
0.012656314661029573199
0.012632944534001955619
0.012521636438174197498
0.012401613949471906179
0.012352203924245432759
0.012349385650573066822
0.012400857446701062797
0.012681186852176784541
0.013449114871473009936
0.01404077108118287516
0.014343717851554766557
0.01454342430083994768
0.014833055665722601549
0.015306661968143632155
0.015935429311434514549
0.016591672950711181672
0.0171186847944703735
0.017422162094058123855
0.017513318456714676435
0.017501982291397610164
0.017359736949311883186
0.017077471348675501983
0.016977960252027395754
0.016996107085945701826
0.017223554291455094728
0.018034154046154562967
0.018776922434156347735
0.019150494972512994291
0.019333341981878342936
0.01948624533111627255
0.019667154262818176136
0.019836724110679621741
0.01993188156888375806
0.019947190996992908429
0.019899021469040677201
0.019613289499666949206
0.01900048732973671009
0.018614164015820743037
0.018456702217635862634
0.018430945320994727987
0.018451651627160139263
0.018566330970778949228
0.018727075770795173493
0.018813807844562206728
0.018850912961336396823
0.018860302895537667256
0.01885906963514533824
0.018848256174304491711
0.01880072505359522278
0.018660420063489824988
0.018511144032647721541
0.018399625619134388904
0.018324581953186990652
0.018283305187741075853
0.018266069299969017736
0.018264615344188609575
0.018269213089798067712
0.018288140012561602404
0.018352562791034206235
0.018528926323017308464
0.018704584777979871291
0.018822970424430776615
0.018890525665992162485
0.018925168238287132239
0.018948607186253324519
0.01898221079252090937
0.019035726994360350345
0.019111385460842029299
0.019202710933938261367
0.019300120089764723902
0.019394341816644542625
0.022962523153836612161
0.023056869632627940286
0.023139331191285823081
0.023211126910558696479
0.023273426162185723021
0.023330273279725654428
0.023386394620538441397
0.023446752794575042439
0.023516643673297296657
0.023596779446979087441
0.023690561085208602932
0.023797092731332639137
0.023914036787576867932
0.024039039332323011017
0.024169658911051904171
0.024301274781553354465
0.024431134957107070865
0.024555109806961909064
0.024669409735154995689
0.024769819006771474218
0.024853911849052928024
0.024919594979570736798
0.024966233280374248993
0.024996157083015016487
0.025013141676206319258
0.025020752907729478659
0.025022853857392585164
0.025022323386680284107
0.025018223264729699123
0.025011949333248396227
0.025006314128986802114
0.025000761200135560719
0.024993041077837625796
0.02497652984152014255
0.024946356947491386824
0.024911833842744902923
0.024874818851215150378
0.024836300279789790685
0.024797374540927563658
0.024758934263113322599
0.024721971712240893571
0.024687241387284491329
0.024654908567049403645
0.024624924533596000142
0.024596749729258415157
0.024570112195822710333
0.024544450235514263248
0.024519535437114468174
0.024495045054809309881
0.024471145720618463909
0.024447651822108090736
0.024424805240228043141
0.024402192429602089646
0.024380014574364280294
0.024357720964795395724
0.02433550068554872145
0.024312732659748093056
0.024289874959789178183
0.024266687282110694507
0.02424407739562452202
0.02422192408964657373
0.024200605030615898738
0.024179456207426085201
0.024158260135903105587
0.024136531080646391606
0.024114295280057929105
0.024091403452605065355
0.024067903323683262351
0.02404356847024457719
0.024018605917441898656
0.023992747954308862868
0.023966791605516658825
0.023940563594767129418
0.023915094829348185201
0.02388963635454915968
0.023864685420848085612
0.023839166683816168796
0.023813913903259518318
0.023788456026733309501
0.023763725473391509452
0.023739325039207705148
0.023715462641361966661
0.023691503937999253832
0.023667338553509876392
0.023642261039444962406
0.023616601564403875285
0.023589677921240264497
0.023562809947483075168
0.023535115834184532763
0.023508417691212295936
0.023480931526350477118
0.023454171745990258502
0.023426195045349085949
0.023398654529144882058
0.023370189250971624972
0.023342811695964971186
0.023314973296210135534
0.023289111662306270084
0.023262732839318074618
0.023238469053400455377
0.023212919414303988946
0.023188887443521571941
0.02316318200641979963
0.023138838914443307648
0.023113051693984098395
0.023088621398213861335
0.023062167189467758927
0.023036628724086273545
0.023008046331220239483
0.022980445753988491819
0.022950143346637759401
0.022922240496253482728
0.022892863795851023379
0.022867025616178631581
0.022839506686571853927
0.022814874603928673308
0.022787457810307262807
0.022762043494433857604
0.022733745550708891331
0.02270732670051150634
0.022678204682749936866
0.022651283926610598501
0.022621893118210750773
0.022595556087482076418
0.02256715014878580422
0.022541832172217047409
0.022514064343704027343
0.022488876568766014846
0.022460585275609231543
0.022435107869202847858
0.02240612067790912279
0.022380228571169381163
0.022350833658973400658
0.022324793487155547567
0.022295610340693623047
0.022270183594353339801
0.022241548072408471454
0.022216623482841379306
0.022188459113496299818
0.022163885138545919018
0.022136618268208205912
0.022113315580148933809
0.022087271607291746739
0.02206518434259194944
0.022039688639091933875
0.022017504995656855815
0.02199145040124151837
0.021968521612242494084
0.021941347396968624572
0.021917597653493357118
0.021889597716600373012
0.021865554025978291286
0.02183784255937745028
0.02181461365302617833
0.021787813304734553188
0.021765039818688960288
0.021737947205905123332
0.021714393307887967094
0.02168628443213192758
0.021661888675956465083
0.021633565444115508691
0.021609273123529289251
0.021581305972754503963
0.021557398465038197372
0.021529371747795639919
0.021505463114995588408
0.021477780354857818612
0.021454589433486246502
0.021428019433202015465
0.02140593564050209327
0.021380036489053184934
0.021358132091877458925
0.021332079043189650092
0.021309962248072935459
0.021283441328798755748
0.021261106793799545295
0.021234150704702584728
0.021211525414536802625
0.021184219803285324335
0.021161599397809635614
0.021134315514869495001
0.021112080664288875725
0.021085432695219168131
0.021063878722861088116
0.021038160826228897993
0.021017083290285506342
0.020991675869511235153
0.02097055073917953108
0.020944963514035339069
0.020923824362455805542
0.020897900309081833548
0.020876537530758465522
0.020850349449482209058
0.020828771143808620658
0.020802699806648814601
0.020781443792937007858
0.020755959006672961703
0.02073532589220894104
0.020710802431394236683
0.020691067436830124643
0.020667437308777101418
0.020648524144164709382
0.020625106081232781607
0.020606104577180765075
0.020581867457717912401
0.020562143733293281739
0.020537035612481976954
0.020516515949349077574
0.020491012571476729942
0.020469951489736907396
0.020444051341775616032
0.020422655117701114108
0.020396552062542712414
0.020375476393536987724
0.020349819323250650099
0.020329460994405097046
0.02030488333790716679
0.020285492568229368526
0.020261885356703725897
0.020243325404084432095
0.020220078100286500294
0.02020194855937218828
0.020178516761787067962
0.020160121698295715986
0.020136684087571660173
0.020117947473757058496
0.020094635749549366599
0.020076054104456370064
0.020053048004334037002
0.020035123793075124837
0.020012831519561565669
0.019995775404865780145
0.019973982525078641526
0.019957597089950488561
0.019935996791238592973
0.019919605738434764675
0.019898338037323701211
0.019881770320318122719
0.01986039457194406152
0.019843926667490009025
0.019822345502748455609
0.019806340835427788116
0.019784913172213067917
0.019769583504258957801
0.019748851537280127932
0.019733886680219567267
0.019714131406705234784
0.019699743550856591706
0.019680572181604013421
0.019666803828431118906
0.019647350101559209884
0.019633662160267528057
0.01961395094292073954
0.019599551188734642276
0.019579955688288307875
3.4013923917374858639e-05
5.6643740050927941212e-05
7.7466225307193373379e-05
8.8068959741883226988e-05
9.9717003082578985988e-05
0.00012878011431292723079
0.00018036184642836549752
0.00021280845853114530356
0.00022684228142943357095
0.00024401045810058385067
0.0002857639507199172561
0.00034225554781248582583
0.00039153178487979627695
0.00043864086037120550172
0.00049115709214534364249
0.00054660664948074006754
0.00059325998620121428613
0.00062201298050851316131
0.00063813944166116708112
0.00065836924921925017457
0.00070361893871304830375
0.00082277078877846562387
0.00095644183771897853599
0.0010456532371248032035
0.0010902360710490579827
0.0011088723858325088504
0.0011252141307204286541
0.0011593924644533329729
0.0012563278301994692913
0.0014776918016308430298
0.0016655416605993033242
0.0017758699393540628656
0.0018379590928593739566
0.0019002778473226147622
0.0019675953676923066578
0.0020197066380463753014
0.0020544111511711835548
0.0020908463426006626204
0.0021451784456110734034
0.0022177450191133876549
0.0022947975972647670535
0.0023576273820198109105
0.0023974228871572861831
0.0024202677580661803927
0.0024433960024457090227
0.0024888589695885514168
0.0025999954592356511532
0.0028639048209842215935
0.0031646676889590633248
0.003424473880380918267
0.0036106918438070117507
0.0037183473751253130757
0.0037663894339597316259
0.0037864770988956793045
0.0038098131975816619706
0.0038614582238562338012
0.0039667595758118576535
0.0040948770886007294229
0.0042203331524095352364
0.0043219334292243045612
0.0043881421005107197966
0.0044212618071100499156
0.0044389959805219130623
0.0044663664281674540085
0.0045370478036352197837
0.0047736629617720106877
0.00523121725256297989
0.0055984906030118828518
0.0058287641326777881942
0.0059389313998077161716
0.0059770324157900232495
0.0059922736777671820052
0.0060155542646185009362
0.0060695853375501238741
0.0062073528759021409304
0.0064048837361059991757
0.0066122071376331428838
0.0068060252731697978151
0.0069570306835072667426
0.007045596353718397778
0.0070774495634924198054
0.0070801265543927191862
0.0070808490156590723
0.0071107584514707175907
0.0072859444684629497829
0.0078056358044953045791
0.0082708600826668296491
0.0085465219111228313276
0.0086801063415015474595
0.0087326067105981744487
0.008749995561967984295
0.0087570809990035747283
0.0087691709981650382139
0.0087992560697524487001
0.0088893204826587506745
0.0091929062907610513411
0.0097035985905879820757
0.010083424507524143057
0.010286321708759956287
0.010345090525123527489
0.01034159796024331987
0.010310078668342459798
0.010304422750892648988
0.010352605390323437601
0.010607728515626423799
0.011090201965780093971
0.011447873776219696929
0.011680333749065423612
0.011810203751720210405
0.011869567139887802001
0.011903371766805113594
0.011956871404929004382
0.012087768147216569267
0.012420000632604680929
0.012766660055301540244
0.013004986662172160483
0.013120479341268762377
0.013148730557583013581
0.013142880659029781282
0.013084426198421376247
0.012947209311705799514
0.012869811216145291
0.01285189514069347283
0.012871919705413015222
0.013024404052885962813
0.013645078777860374791
0.014620889174673757857
0.015291846473082204919
0.015642792586914176095
0.015780223401263945154
0.015867569865720493327
0.016045930375680982766
0.01655274275219664748
0.017351035425544440727
0.01796969118158155132
0.018306755698486467526
0.018396455443077330827
0.018372566244826523535
0.018158369870818660829
0.017810749323409372918
0.017699400666138526833
0.017727416056876221795
0.018023940002930706472
0.01906222772587210304
0.019988154772674692622
0.020398941870264229032
0.020529249442219059396
0.020636432918868068132
0.020819460623351538492
0.021025575762220201359
0.021158198808587984352
0.0211891505693316759
0.021152782622953270747
0.02090636784745647514
0.020240310297027837294
0.019744150810730169004
0.019511714847624050256
0.019444902660301421199
0.019443456417988096846
0.019468890742382088943
0.019566550071398226135
0.019686401214861964232
0.019777093379778711013
0.019841518106525714293
0.019878847815294160145
0.019891385591211979689
0.019889953517313655601
0.019867763079834305923
0.019767997556139178805
0.019601509396912145111
0.019485460025435392961
0.019419311442575006021
0.019391099573150178542
0.019384291353556057369
0.019386079896950979273
0.019391743518440120175
0.019403588982656858053
0.019435842825587575783
0.019524656286227515256
0.019632889039817438132
0.019730945610900961495
0.019823053269079963373
0.01991558871299954972
0.020017063958046012184
0.020131739215092914891
0.020257944846163330327
0.020386948600071959359
0.020506579832502199595
0.020608757569765153578
0.02437969629636535171
0.024468153529123036483
0.024538640016924375548
0.024594227097365344709
0.024640036297018916983
0.024681277332104203243
0.024724163934630748185
0.024773443998220429085
0.024833882251679689074
0.024907501688005609375
0.024995182824580304548
0.025096026967132582797
0.025206561359235744174
0.025324666055996598868
0.025446941202247112118
0.025569933127685167545
0.025690081195951779136
0.025804780631412692349
0.025911331002217530967
0.0260073113098547061
0.026090923643149278865
0.026161768954161317841
0.026220030134161055602
0.026266428785899850057
0.026302154566580474709
0.026327568754624643133
0.026344295905558406251
0.026353976559356381837
0.02635855912917068819
0.026359336305387167515
0.026358534224393340151
0.026357281228650775162
0.026356134323838448924
0.026354818578228189629
0.026350965043963510415
0.026338140381312449834
0.026300683781316277349
0.026251901418456957682
0.02620124845178305531
0.026152953618007540593
0.026105218747608665425
0.02606175960889071247
0.026019802682128650301
0.02598223296639797647
0.02594582654611642808
0.025913061437458542735
0.025880700639913264277
0.025851123315406895203
0.025821523937714117164
0.025794497356489462514
0.025767194108946529091
0.025741807954665352209
0.025715265061230514754
0.025689974853766305019
0.025663291912725382654
0.025637880026419680723
0.025611054703926057485
0.025585735869405604875
0.025559416234918360539
0.02553537320018392856
0.025510867515593782517
0.025488549684300577242
0.025465038393936947902
0.025442683653395511967
0.025418399434856457642
0.025394934245484421936
0.025369548420174321129
0.025344919962662314922
0.025318235275445730159
0.025292037766447804381
0.025263784169819485798
0.025236360203512692157
0.025207745848004302347
0.025180927855889823075
0.025153317388893786655
0.025127365575297742201
0.025099985544922803066
0.025073947478567178149
0.025046408832288726692
0.025020810268519669273
0.024993722960309851938
0.024969149738408254191
0.02494266101004130945
0.024918637906332918863
0.024891735843071135376
0.024866425514602868291
0.024837651417630057793
0.024810191175615985831
0.024780213573724362008
0.024751894817604168375
0.024721464866271226912
0.024692761050406266538
0.024661841938940776142
0.024633409375871797437
0.024602791803398440379
0.024575295445525544014
0.024545432656890714407
0.024519044050132849516
0.02449047500874690711
0.024465324637946671282
0.024437470897007405185
0.024412466980692243412
0.024384140412690921695
0.024358948453521302169
0.024330518117036490505
0.024305200196536494439
0.024276136949733934101
0.024249285934168834933
0.024218131717976515427
0.024189410528867569261
0.024156745038165901296
0.024128239091343390427
0.024096607763435268917
0.024070143642376272408
0.024040510766267439435
0.024014993590941339369
0.023985310967151951544
0.02395880214314826881
0.023927655650915608671
0.023900252324068366194
0.023868370992830546806
0.023840914233914427267
0.023809535954421923165
0.023783003560040594238
0.023753136648666482722
0.023727915455423496255
0.023698449575699116754
0.023673004191328544249
0.023642472076274116677
0.023616050433307337469
0.023584673446196677271
0.023557756651414043375
0.023526129463163521216
0.023499405960760541556
0.023468234069420362831
0.023442238885780983942