/*--------------------------------*- C++ -*----------------------------------*\
  =========                 |
  \\      /  F ield         | OpenFOAM: The Open Source CFD Toolbox
   \\    /   O peration     | Website:  https://openfoam.org
    \\  /    A nd           | Version:  12
     \\/     M anipulation  |
\*---------------------------------------------------------------------------*/
FoamFile
{
    format      ascii;
    class       volScalarField;
    location    "0.0068";
    object      nut;
}
// * * * * * * * * * * * * * * * * * * * * * * * * * * * * * * * * * * * * * //

dimensions      [0 2 -1 0 0 0 0];

internalField   nonuniform List<scalar> 
75962
(
4.6749908498571149403e-07
6.1213941276583505735e-07
7.1279693117356685924e-07
7.5818001372892608548e-07
8.0982833095482765373e-07
9.2351997028810623726e-07
1.0603885065826750908e-06
1.1441191652545985617e-06
1.1853586772697561044e-06
1.2412795744129754645e-06
1.3505138650199629045e-06
1.455218670562018242e-06
1.5359521260568485852e-06
1.6122226878779674635e-06
1.7062378553890979899e-06
1.8144375701574859373e-06
1.9093758146866667646e-06
1.9688483871770904255e-06
1.9981257662050125256e-06
2.0250146852035186183e-06
2.0811217307286077014e-06
2.2198708084552328856e-06
2.3815741681952992109e-06
2.4969034224742305567e-06
2.5618068761749725869e-06
2.5913405537261479086e-06
2.6114687254198905951e-06
2.6494422649717310134e-06
2.7500261308276452691e-06
2.9277499512004037361e-06
3.0743602845832271629e-06
3.1724498277808694204e-06
3.2441903538663159151e-06
3.3242074462192438764e-06
3.4168238785684057521e-06
3.4977685414630380924e-06
3.5489423231243845879e-06
3.5767499537320954842e-06
3.6012158823135200807e-06
3.6336358820264500486e-06
3.6694965751495497479e-06
3.6994850448988140471e-06
3.7203396425702943647e-06
3.7367026600447577073e-06
3.7614263064972003196e-06
3.814577453315847708e-06
3.9408945428943462341e-06
4.1288866720520386473e-06
4.3219413133655094461e-06
4.4799429545099068937e-06
4.58018850845988979e-06
4.6282069998587699477e-06
4.6466231390409869564e-06
4.6580890964148925857e-06
4.6766443508418715361e-06
4.7096842213386118259e-06
4.7607840525460367977e-06
4.8284645199769705084e-06
4.9050128527582512707e-06
4.9775882191125233871e-06
5.0323181813043870787e-06
5.0625518117412574096e-06
5.0766705614658955105e-06
5.0955045410779135003e-06
5.1439555694371844941e-06
5.2903125374926521899e-06
5.498417742501088531e-06
5.6573368518578927362e-06
5.7527539465957824543e-06
5.7951079301801160221e-06
5.8060644310497966678e-06
5.80578801669864051e-06
5.8058082016203609599e-06
5.8114972697054093683e-06
5.8345579855347975032e-06
5.9081506864660151621e-06
6.0219085813755070661e-06
6.1327246936389307795e-06
6.2262270230676297329e-06
6.2881932991369505478e-06
6.3144222638167769591e-06
6.3178458136892348939e-06
6.3183854575723990429e-06
6.3323963762513495242e-06
6.4099836356029558172e-06
6.5976461641124422566e-06
6.7380939849406225767e-06
6.8173220715554173481e-06
6.8556641759420467746e-06
6.8742076128435264994e-06
6.8859453000670655336e-06
6.8952437789623571723e-06
6.9035317833949060769e-06
6.9167680273593178935e-06
6.9481399341161720879e-06
7.0372272460676128032e-06
7.1965798716926359803e-06
7.3335276488127116901e-06
7.4162968638896342499e-06
7.4443688524381188123e-06
7.4439348908125927299e-06
7.4415514527935577526e-06
7.4556924607368312116e-06
7.5415316020766833696e-06
7.7469013025051841712e-06
7.9177745830841904639e-06
8.0412859841157355843e-06
8.1255456997692730264e-06
8.1765252208841888813e-06
8.2002462487797386282e-06
8.2051018414287212993e-06
8.2020277719100128505e-06
8.200443049299949684e-06
8.2109705296825594357e-06
8.2711395508722237026e-06
8.3555147655382944877e-06
8.3954078737923969802e-06
8.400800058928366e-06
8.3928420655308007644e-06
8.3647439219849740761e-06
8.2998482069570602912e-06
8.2551396835716498476e-06
8.2367174924764854487e-06
8.2330708695608815996e-06
8.2583609974731960851e-06
8.393084415791511691e-06
8.6446155916356691239e-06
8.8146133894503729572e-06
8.8991129730089645755e-06
8.9338742251961534739e-06
8.971600006414657378e-06
9.0634097176118202677e-06
9.2644326560818746898e-06
9.473840427565282727e-06
9.6331623737792518173e-06
9.7190555729795385752e-06
9.7402783535396026364e-06
9.7309115093628854409e-06
9.6862887384836722547e-06
9.6048595473078431583e-06
9.5733736462030753143e-06
9.5736893178150180906e-06
9.6380991987634866418e-06
9.8773121760713502248e-06
1.009221041273336683e-05
1.0187845362093321126e-05
1.0209235567054490023e-05
1.0203324883835148174e-05
1.0195169204877168595e-05
1.0190161123380673519e-05
1.0188504411706947208e-05
1.018047787696927757e-05
1.0153923725551035459e-05
1.0054491039593774584e-05
9.8992307416198295315e-06
9.8035844297627249938e-06
9.7618490346571671923e-06
9.7502927426038156825e-06
9.7500642192003681341e-06
9.7779945719027093969e-06
9.8217648465821558851e-06
9.8457044439268968738e-06
9.8536295887347690587e-06
9.8525354880248410314e-06
9.8463938469520660804e-06
9.8385765268378018726e-06
9.8263685006535233293e-06
9.798967493722545615e-06
9.7534924185866407311e-06
9.714301444483963336e-06
9.6838954057109281995e-06
9.6625652266897053583e-06
9.6486870051341927019e-06
9.6402751129169082751e-06
9.6341952250375192788e-06
9.6310275338377888737e-06
9.6364352790174594041e-06
9.6689243676405126158e-06
9.722586963249332749e-06
9.7658198756298155276e-06
9.7965444761507728289e-06
9.8147559790535232838e-06
9.8222059512411924676e-06
9.8220945423207394544e-06
9.81837110329956229e-06
9.814864111626617801e-06
9.8151955993247349424e-06
9.8271679125128845645e-06
1.0487945773021056301e-05
1.049750239730631251e-05
1.0504867442908659097e-05
1.051022388361609799e-05
1.0514557209011068372e-05
1.0518800823537317155e-05
1.0524124103484421149e-05
1.053126087497640582e-05
1.0540930878020441175e-05
1.0553549441461695569e-05
1.0568974867173488801e-05
1.0586669600814218521e-05
1.0606312343720245649e-05
1.0627203767126227691e-05
1.0648490996111880072e-05
1.0669555972045385129e-05
1.0689343889790611818e-05
1.0706924212697070935e-05
1.0721549693255419736e-05
1.073233416239538966e-05
1.0738820775410645885e-05
1.0740871183928469358e-05
1.0739271015962659114e-05
1.0734865107122336199e-05
1.0728659771160486646e-05
1.0721585003688657156e-05
1.071388123040112084e-05
1.0704951329205332589e-05
1.0695648335552126811e-05
1.0686727934794538507e-05
1.0677985063732414785e-05
1.0669011190951310306e-05
1.065857942388699544e-05
1.064563950225648382e-05
1.0631536634962392368e-05
1.0616970535791598563e-05
1.0601861693718338085e-05
1.0586708595208481649e-05
1.0571406647215655637e-05
1.0556470661534286194e-05
1.0541850306731001048e-05
1.0527916131062520981e-05
1.0514386595520571464e-05
1.0501404795798548441e-05
1.0488598673281396623e-05
1.0476098004529212968e-05
1.0463609511069494346e-05
1.0451301392008176583e-05
1.0438984942018946574e-05
1.0426879129415722139e-05
1.0414860203502995868e-05
1.0403092738469544345e-05
1.0391397105282001119e-05
1.0379817904207344203e-05
1.0368147327003871086e-05
1.0356424723242631386e-05
1.0344535778884597795e-05
1.0332626964210034476e-05
1.0320683058463938034e-05
1.0308891568517549416e-05
1.0297140861028394182e-05
1.0285513149892426481e-05
1.0273751130412423909e-05
1.0262003230803455039e-05
1.0250027866077138637e-05
1.0238056382581110161e-05
1.0225819384535849566e-05
1.0213547203897291587e-05
1.0201034521325877722e-05
1.0188516755608659084e-05
1.0175894170222323363e-05
1.0163375084641864418e-05
1.0150884755490563737e-05
1.0138502376367082629e-05
1.0126083508081716887e-05
1.0113656619030503048e-05
1.0101199976558031946e-05
1.0088856930467431235e-05
1.0076611985494530836e-05
1.0064567956988162582e-05
1.005248254116619208e-05
1.0040448729549300536e-05
1.002816336573957407e-05
1.0015828616889965166e-05
1.0003245880533622909e-05
9.990610011911745951e-06
9.9779028849557001649e-06
9.9652121944201248275e-06
9.952678061048785235e-06
9.9401809527992277519e-06
9.9277611949850803625e-06
9.9152015926831229767e-06
9.9025178348801728517e-06
9.8896887612277948368e-06
9.8768951060149281834e-06
9.8641584542697001577e-06
9.851753232364992454e-06
9.8394156284029866391e-06
9.8274340250501030549e-06
9.8153273625488441154e-06
9.8034232993524833869e-06
9.7913084330082290901e-06
9.7793330978530000879e-06
9.7671668029222959698e-06
9.7551727245915287968e-06
9.7428945892523913507e-06
9.7307423924769035858e-06
9.718083528588062508e-06
9.705504335841431336e-06
9.6924590553447129463e-06
9.6797539897332060289e-06
9.6668552919663522133e-06
9.6545662900550446173e-06
9.6420328007227551562e-06
9.6300356291896528854e-06
9.6175976284545156686e-06
9.6055324563385842434e-06
9.5930384070073340116e-06
9.5808210944703543218e-06
9.5681695803336627021e-06
9.5558311843865982165e-06
9.5430527709047740598e-06
9.5307767476032084921e-06
9.5181213203800126731e-06
9.5059954907033537852e-06
9.493486653047258938e-06
9.4814478754211859655e-06
9.4689312630748824734e-06
9.4569428963070094216e-06
9.444344439932584432e-06
9.4323144837781052282e-06
9.4196494017828561623e-06
9.4075739041574258704e-06
9.3949366804008622647e-06
9.3829793951413787963e-06
9.3704772082532685878e-06
9.358694005576721894e-06
9.3464026269650186989e-06
9.3347722375814821402e-06
9.3227151842525824029e-06
9.3113170732568691974e-06
9.299459556677519529e-06
9.2882626065863311963e-06
9.2764848766247560638e-06
9.265283503735588844e-06
9.2533964146211090479e-06
9.2420715614960246751e-06
9.2299851484388008142e-06
9.2184970234745254543e-06
9.2062548208045968761e-06
9.1947232240218202017e-06
9.1825707757786337082e-06
9.1712659456998942139e-06
9.1593563863114378166e-06
9.1482160698202028449e-06
9.1363182140610214068e-06
9.1251119067214534126e-06
9.1131162669835801313e-06
9.1017853187645651178e-06
9.0897722592739991121e-06
9.0784133244643542903e-06
9.0663815773861154251e-06
9.0550117556218179948e-06
9.0428941485320669328e-06
9.0314528657729127603e-06
9.0193773509248462551e-06
9.0080512376264624175e-06
8.9962141115861827889e-06
8.9851711390145126235e-06
8.9735393935698352724e-06
8.9626385740355702156e-06
8.9510789410544238742e-06
8.9402054379551241977e-06
8.928593824074016269e-06
8.917691271565538879e-06
8.9059762916030421598e-06
8.8950177391265133068e-06
8.8832067748866327283e-06
8.8722664236938711971e-06
8.8604744656858681282e-06
8.8496026829083548844e-06
8.8379541360065657621e-06
8.8272389871964540732e-06
8.8158166491372600857e-06
8.8052149574439764874e-06
8.7939165788992224466e-06
8.7833056047062872408e-06
8.7719403983966587915e-06
8.7613023534366275266e-06
8.7498395141522334619e-06
8.7391896076124905856e-06
8.7277350726984240372e-06
8.7170990768747440281e-06
8.7057125835194810109e-06
8.6951284313300839613e-06
8.6838614122348112767e-06
8.6733979944728679674e-06
8.6623808857559145117e-06
8.6521596624349365271e-06
8.6413902551533382506e-06
8.6313989449348715795e-06
8.6206997655845977839e-06
8.6107515883122374522e-06
8.5998968723628707237e-06
8.5898151455310495261e-06
8.578771069447664439e-06
8.5684849706674743539e-06
8.5573445624013223841e-06
8.5469243937900997725e-06
8.5357111734043515584e-06
8.5252758130649925898e-06
8.5140575826349020267e-06
8.5037178113522919306e-06
8.4926482224352263056e-06
8.4824867616685438747e-06
8.4716702497420640712e-06
8.4616815225290418627e-06
8.4510647054057123109e-06
8.4412523314495711585e-06
8.4306617112420262588e-06
8.4209552609570678726e-06
8.4103468250242654797e-06
8.4005999538088561374e-06
8.3900173847592893233e-06
8.3802047199666082747e-06
8.3696988266642934968e-06
8.3599538487545122612e-06
8.349508433752345516e-06
8.339926352548276232e-06
8.3296460537975017708e-06
8.3201910448482032235e-06
8.309989438376204674e-06
8.3006921629304954884e-06
8.2905472521409288758e-06
8.2812982635055608973e-06
8.2712724663314446014e-06
8.2620758521568511505e-06
8.2520472757375255704e-06
8.2428841862903547562e-06
8.2328350259179470486e-06
8.2237574014764559176e-06
8.2137947712022102843e-06
8.2048742177999505815e-06
8.1951184916843365034e-06
8.1863356893496637244e-06
8.1767730532433955325e-06
8.1681298949587743859e-06
8.1586633776079510645e-06
8.1501419638581307486e-06
8.1406369794255858041e-06
8.1321485692629401311e-06
8.1226203564974892358e-06
8.1140085743391135816e-06
8.1045345819608335708e-06
4.9813544865372953731e-07
6.4191590584454609995e-07
7.2804608522971591484e-07
7.7139400494491977375e-07
8.4762030416590146793e-07
1.0058408582594126823e-06
1.154951678940256124e-06
1.2350930522266622421e-06
1.2691980135418776298e-06
1.3129982001583574681e-06
1.4188522198595667904e-06
1.5420403744140760164e-06
1.6107935551606610981e-06
1.6557496383383451373e-06
1.737987221342814607e-06
1.8632823585565899786e-06
1.9811279136400696637e-06
2.0553556322876043596e-06
2.0927932985529610416e-06
2.1321021039588997342e-06
2.2175130218653136744e-06
2.3659255193144978357e-06
2.5044329336184518274e-06
2.5992271687944719182e-06
2.6475582910674918695e-06
2.6705005613518218192e-06
2.6983671488966200748e-06
2.7620685498354272594e-06
2.9248627745836044343e-06
3.122814076414717295e-06
3.2912506602726869041e-06
3.4168952514338245294e-06
3.4932248003029976978e-06
3.5299832688200404997e-06
3.5582073186536000058e-06
3.6058527567138401964e-06
3.6736162560875590269e-06
3.7393037795769316926e-06
3.786478911500011095e-06
3.8167019237721659401e-06
3.8415261263420264956e-06
3.8636030457620099853e-06
3.8806152077694789886e-06
3.8981284148652432523e-06
3.9306947747857393213e-06
4.0014782724277013392e-06
4.1461743335898019225e-06
4.3419197027800067958e-06
4.54294528537248274e-06
4.7008928941816877385e-06
4.7946131068556969442e-06
4.8340912326106950581e-06
4.8465852733101425385e-06
4.8589093626835429349e-06
4.886914722036605799e-06
4.9355851268353035074e-06
5.0013420510773095952e-06
5.0768060332706045859e-06
5.1525890386975280934e-06
5.2186418000281311366e-06
5.2661778087216056253e-06
5.2919170995939712464e-06
5.303302622881190494e-06
5.3177515460888676578e-06
5.3557414423532750055e-06
5.4784856543798493724e-06
5.7375792326610092355e-06
5.9526706291865427649e-06
6.0903380858832630165e-06
6.1578289781671234347e-06
6.179820087512859202e-06
6.181724608700923094e-06
6.1794854399725040366e-06
6.1794521255693668198e-06
6.1859192217961615111e-06
6.2117104757290337967e-06
6.294650063284541943e-06
6.4098185812286188317e-06
6.505011655618081644e-06
6.5684094759107258414e-06
6.5970139548588635755e-06
6.6017330185135314702e-06
6.6009441430838515172e-06
6.6083459914342301437e-06
6.6578661336083188351e-06
6.8262736544127427569e-06
7.0043116521134417743e-06
7.1208848038021494269e-06
7.1887772031224293941e-06
7.2252262214058067251e-06
7.2444220822751822611e-06
7.2549772426874462484e-06
7.2615530798130726526e-06
7.2705795139431517177e-06
7.2936218916834317459e-06
7.361026352872633036e-06
7.5340299225993563915e-06
7.705160048222462469e-06
7.815935078281161972e-06
7.8623219790868847104e-06
7.8681598970727076249e-06
7.8639985223664628163e-06
7.8666297346519543384e-06
7.9074335698800638411e-06
8.0586585314230379503e-06
8.2372309396194370878e-06
8.3692210102832952909e-06
8.4595785936539382642e-06
8.5130695253893837529e-06
8.5370151357270152774e-06
8.5419051678243817111e-06
8.540770428426338275e-06
8.5438938939827778425e-06
8.5661890338516337765e-06
8.6507848599266231942e-06
8.7461526345131750457e-06
8.7977329908857771732e-06
8.8123580435153577744e-06
8.8083193665321613263e-06
8.7940733195819756855e-06
8.7491668598291988547e-06
8.70108928255455362e-06
8.6777096362481117892e-06
8.6706954243933402593e-06
8.682713654770481159e-06
8.7742082687943912471e-06
9.0296975982807051235e-06
9.2197724131022588961e-06
9.3122355990171376289e-06
9.370327978688924449e-06
9.4566025146345189745e-06
9.5997170847148605491e-06
9.7881009356694872607e-06
9.9806772327481736127e-06
1.0130910677184849208e-05
1.021321984298456789e-05
1.0232794310655204969e-05
1.0222379711370756e-05
1.0173685908515209291e-05
1.0083630076300209385e-05
1.0047227711116503836e-05
1.0045616281181715766e-05
1.0105588543856098649e-05
1.0333476990032577737e-05
1.0536810319384692206e-05
1.063372254225931508e-05
1.0676948698436626475e-05
1.0711644213152557667e-05
1.0753780930273962139e-05
1.0792542467707268701e-05
1.0810886438699466517e-05
1.0807528667122960582e-05
1.078697693583706008e-05
1.0701815907219124849e-05
1.0525990975419592674e-05
1.0411199252964226507e-05
1.035987247460050613e-05
1.0345453401980973565e-05
1.0344076256110653039e-05
1.0368967209230519288e-05
1.0406526814166941177e-05
1.0423355317692820042e-05
1.0426384853242158074e-05
1.0421740511717811071e-05
1.0414164244444554719e-05
1.040394973630170004e-05
1.038360893110309184e-05
1.03376089304155492e-05
1.0289028914012783147e-05
1.0250867444135520652e-05
1.0222839184843483486e-05
1.0204229372405386467e-05
1.0192337008099701929e-05
1.0184855143338576125e-05
1.0179064792610635217e-05
1.0177265253347247094e-05
1.0188096523535278349e-05
1.0229824555917664596e-05
1.0271064604578814607e-05
1.0296363626254518349e-05
1.030766226131234828e-05
1.030994621631444076e-05
1.0309166132886541823e-05
1.0311139313535423964e-05
1.0318495029029266726e-05
1.0331802082598850228e-05
1.034926794603337621e-05
1.0368280342102330428e-05
1.0386341912278764871e-05
1.1014745456198983612e-05
1.1029687310670268564e-05
1.1041721686231891137e-05
1.1051160210897071037e-05
1.1058298012775572648e-05
1.1064108050473714037e-05
1.1069716510635528863e-05
1.1076296713394765192e-05
1.1085091058833502795e-05
1.1096252456082328504e-05
1.1110561366012963643e-05
1.1127782982162918204e-05
1.1147346712595149087e-05
1.1168683482775475083e-05
1.1191210298848198865e-05
1.1213848665601846481e-05
1.1235964306422185346e-05
1.1256615621910184925e-05
1.1274950454257639995e-05
1.1290028710597957477e-05
1.1301325231538000867e-05
1.1308391953968023074e-05
1.1311110420267802282e-05
1.1310029020990522818e-05
1.1306015718645613059e-05
1.1299884831924315111e-05
1.1292513453672137029e-05
1.1284553501645562895e-05
1.127579475992381293e-05
1.1266553083015333844e-05
1.1257462400021866347e-05
1.1248397275227334452e-05
1.1238851912534846385e-05
1.1227338416929227833e-05
1.1212764398710688864e-05
1.1197223496954827865e-05
1.1181133365180723999e-05
1.1164716044490609302e-05
1.1148217896721269687e-05
1.1131839547695722659e-05
1.1115804085890627025e-05
1.1100281173226590254e-05
1.1085307963392883278e-05
1.1070873427883762434e-05
1.1056856146193911168e-05
1.1043194841238802961e-05
1.102976313689730006e-05
1.101650959761394333e-05
1.1003361629442829682e-05
1.0990356585130119725e-05
1.0977452700982100271e-05
1.0964704201135301356e-05
1.0952018175286304646e-05
1.0939439713903407426e-05
1.0926845214337104758e-05
1.0914277087341961862e-05
1.0901596070352188129e-05
1.0888904912504900326e-05
1.0876149766867385709e-05
1.0863534055128492165e-05
1.085103052901511197e-05
1.0838723679520641623e-05
1.0826464699159617827e-05
1.0814204872409830579e-05
1.0801835508332013324e-05
1.078936255527105414e-05
1.0776752694675393175e-05
1.0764016686071404402e-05
1.0751103981617201788e-05
1.0738060954806429758e-05
1.0724827835596758923e-05
1.0711582817459686364e-05
1.0698287184163268791e-05
1.0685171257001842315e-05
1.0672067656404652468e-05
1.0659087419189206342e-05
1.0645990368118156026e-05
1.0632962692926058865e-05
1.0619899208405094614e-05
1.0607008022208237044e-05
1.0594200409141968055e-05
1.0581522704355467138e-05
1.0568833339381281987e-05
1.055610770182504346e-05
1.0543188512319851455e-05
1.0530149468947663498e-05
1.0516838549341852137e-05
1.0503550022435143566e-05
1.0490087354281587022e-05
1.0476856624729147775e-05
1.0463460258874401749e-05
1.0450235687989393652e-05
1.0436749962886517529e-05
1.0423371361458699466e-05
1.0409796742322738282e-05
1.0396474319134253899e-05
1.038305918905484182e-05
1.0370094090413500718e-05
1.035702366448335467e-05
1.0344433819404107112e-05
1.0331567497776144383e-05
1.0319048615321035298e-05
1.0306167080147424087e-05
1.0293598319435615012e-05
1.0280718027104007972e-05
1.026814919655603832e-05
1.0255140010539682332e-05
1.0242344145071116579e-05
1.0228881349706391189e-05
1.0215646596431497337e-05
1.0201821116059749955e-05
1.018853876067162761e-05
1.0174938631961663436e-05
1.0162134583062600244e-05
1.0148966745308778779e-05
1.0136449933565017378e-05
1.0123324123669403011e-05
1.0110652742108777155e-05
1.0097350555813542516e-05
1.0084475326094819657e-05
1.0071009499394141006e-05
1.0058042095417577935e-05
1.0044535934567716467e-05
1.0031717357623182667e-05
1.0018449109180486447e-05
1.0005875849889449126e-05
9.9927684037806527838e-06
9.9802430496628265287e-06
9.9670385635197900802e-06
9.954467932431107876e-06
9.9411281664771415916e-06
9.9284845247653773589e-06
9.9150734169959162139e-06
9.9024159059264751497e-06
9.8890708273362272452e-06
9.8765682685363125694e-06
9.8633636219234992095e-06
9.8509912254415879599e-06
9.8379099571015540452e-06
9.8256340189613213513e-06
9.8127705289221784453e-06
9.8007949628672486351e-06
9.7882211801475445717e-06
9.776533331570007654e-06
9.7640995669050391895e-06
9.7524086382281586984e-06
9.7398695916798134321e-06
9.7280319444377370076e-06
9.7152635357511872935e-06
9.7032625080685527792e-06
9.6903298996234089787e-06
9.67828222086208179e-06
9.6654320316162228968e-06
9.6535830130964121428e-06
9.6409529177639829436e-06
9.6292228800002871973e-06
9.6165465378883011331e-06
9.6046620745630812305e-06
9.5917793813214285325e-06
9.5797269990587918684e-06
9.5668153269079722476e-06
9.5548040690876863575e-06
9.5419894989796699356e-06
9.5300814984109135134e-06
9.5172720800857771902e-06
9.5053819626289449155e-06
9.4926668323194480364e-06
9.480953377911922566e-06
9.468502309782523627e-06
9.4570513695177867267e-06
9.4447665591849158748e-06
9.4333730209103174605e-06
9.4210722139331806398e-06
9.409649518037957168e-06
9.397263385358856796e-06
9.3858103652511759758e-06
9.3733461452945985882e-06
9.361846696984826437e-06
9.3493233011885107099e-06
9.3378426643389948194e-06
9.3253419933399681811e-06
9.3139640977512807321e-06
9.3016215752390615323e-06
9.2904114343331657932e-06
9.27829179997864849e-06
9.2672041617840765151e-06
9.2551706508993329632e-06
9.2440898878282038158e-06
9.2320343669149067749e-06
9.2209678559422295676e-06
9.2088557146769183561e-06
9.1977572620973923007e-06
9.1856045453387679225e-06
9.1744759429391030707e-06
9.1623665010566420131e-06
9.1513261568737131759e-06
9.1393633653870111458e-06
9.1284773392964378095e-06
9.1167435549560796673e-06
9.1060722255988847825e-06
9.094552278194547405e-06
9.0840786135119333826e-06
9.0726224456700396584e-06
9.0621460932756628913e-06
9.0505269264053574097e-06
9.0399085753449185131e-06
9.0281151108101412501e-06
9.0173387005389732391e-06
9.0054755835806373279e-06
8.9945971440912602269e-06
8.9826640640560647598e-06
8.971728964285757195e-06
8.9597685132538165844e-06
8.9489207630330080533e-06
8.9370754094210503389e-06
8.9264020212419026751e-06
8.9148107147863933045e-06
8.9043664089559630183e-06
8.8930050193597593702e-06
8.88275953405248286e-06
8.8714939027701450192e-06
8.8613591991636386059e-06
8.8500698305388275308e-06
8.8398932181945766176e-06
8.8286192877677454032e-06
8.8183841269894322555e-06
8.8071544704835003249e-06
8.7969695746267778788e-06
8.785823505503092515e-06
8.7757988410007659676e-06
8.7648256399741148538e-06
8.7550071113710843863e-06
8.7441596371691805142e-06
8.7345037774127079271e-06
8.7237147384681727952e-06
8.7140734106007030919e-06
8.703373353230922966e-06
8.6937091120132301247e-06
8.6830016102991333253e-06
8.673374898727357398e-06
8.6626386662083194385e-06
8.6531288305182206587e-06
8.6424422578547120596e-06
8.6330953772197839189e-06
8.6225767402706246398e-06
8.6133248621038538151e-06
8.6030352574144455325e-06
8.593924466163569285e-06
8.5837779207437527751e-06
8.574817238014822762e-06
8.5646247228467684823e-06
8.5556964907152471817e-06
8.545463470276649866e-06
8.5363951355674705189e-06
8.5262029390327703971e-06
5.0852203090424881382e-07
6.5577632268454398193e-07
7.6636265900839806563e-07
8.1655969265204484644e-07
8.6827936623133456439e-07
9.8604705793717724756e-07
1.1661218731887362855e-06
1.2657980285699147487e-06
1.3059614035071079679e-06
1.3535394731509217661e-06
1.4637563526216681067e-06
1.6008059402984651236e-06
1.7109815158272771499e-06
1.8097338711388953571e-06
1.9136774920240469233e-06
2.0174108916165194555e-06
2.1002829232727776693e-06
2.1490838636860694845e-06
2.1752531192584768003e-06
2.2079291932666154615e-06
2.2809591095383996137e-06
2.4648275438432168094e-06
2.6556739630706496804e-06
2.7748383169605850889e-06
2.8314081637061520721e-06
2.8535228689384017813e-06
2.8724767935003453434e-06
2.9137517233227753034e-06
3.0310085654390048054e-06
3.2849288857947965838e-06
3.4850591784340250122e-06
3.5961380199065845782e-06
3.6559231752382558752e-06
3.7148053294107090703e-06
3.7774069028011465051e-06
3.8244447130708001582e-06
3.8544843725399756287e-06
3.8858142165175303871e-06
3.9332454880697630462e-06
3.9964419942231390223e-06
4.0624522335367557903e-06
4.1148312033587944517e-06
4.1465330503040232656e-06
4.1633496163404360986e-06
4.1802905733779774678e-06
4.2160723218045187042e-06
4.3061838665143040906e-06
4.5163119494042374769e-06
4.7442445208852628943e-06
4.9317187800847266745e-06
5.0605177694146231116e-06
5.1318397741943951276e-06
5.1612998034479824451e-06
5.1714521324946316196e-06
5.183761950769856881e-06
5.2151553011168134819e-06
5.2821153560892976164e-06
5.3630116965035875729e-06
5.4407659428679182165e-06
5.502044250672672285e-06
5.5401784097189834245e-06
5.5571854777284996509e-06
5.5644535116567811597e-06
5.5777068421620585993e-06
5.6177648134719472453e-06
5.7583905851517567986e-06
6.0238616356799708372e-06
6.2274099040633743815e-06
6.3497786126084751043e-06
6.4050550110495279782e-06
6.4211066315646679942e-06
6.4248244150030993293e-06
6.4328234804580933093e-06
6.4571620791727667323e-06
6.5254995017883405753e-06
6.6239117156418642564e-06
6.7255917536326138362e-06
6.8187131726385412554e-06
6.8891552164071122042e-06
6.9280538771502764333e-06
6.9388761408138656986e-06
6.9353697661681618038e-06
6.9309081631904223924e-06
6.940708533466829321e-06
7.0208086916124065707e-06
7.2618407305941714004e-06
7.4699256852417552122e-06
7.5881169581482224332e-06
7.6418797702934712288e-06
7.6596335923623719104e-06
7.6619326052219047116e-06
7.6597123627289085535e-06
7.6596762559950880164e-06
7.667477136357452066e-06
7.7012666389514354358e-06
7.8262309820819068919e-06
8.0350951324481821478e-06
8.1851568097582888013e-06
8.2613571282081648306e-06
8.279171129799658453e-06
8.2720262450929923334e-06
8.2536763481280540455e-06
8.2456832157078055972e-06
8.2592004966336320484e-06
8.3545438665322609991e-06
8.5364959751589506419e-06
8.6670378892302124346e-06
8.7485136124494407696e-06
8.7909074446436352241e-06
8.8068544713413831064e-06
8.8132632955412908078e-06
8.826913931607781674e-06
8.868936390932357104e-06
8.9837499441067439077e-06
9.1019377319747051805e-06
9.1801237414914663387e-06
9.2143944007123236253e-06
9.2179049606789270513e-06
9.2094556770840474023e-06
9.1825729571775279635e-06
9.1279551579559338161e-06
9.0943123926487767994e-06
9.0816703477485186949e-06
9.0824324090801053858e-06
9.1297274070693440641e-06
9.3382451447553603498e-06
9.6596748123102365425e-06
9.8719726861955086619e-06
9.9776781477251404807e-06
1.0014454267189022832e-05
1.0035159747817434927e-05
1.0084396179066969993e-05
1.0235305197795846084e-05
1.047193358520726115e-05
1.0649589174618036294e-05
1.0741541418724912489e-05
1.0760349004669740071e-05
1.0745894163292426268e-05
1.0675652866437613679e-05
1.0565631922236488712e-05
1.0525240505586522366e-05
1.0526253714791741959e-05
1.060655499469650611e-05
1.0900205233109218204e-05
1.1154049483854803934e-05
1.1260259571322400632e-05
1.128832447372928365e-05
1.1309896492671388279e-05
1.1352053232376977819e-05
1.1400187581865109772e-05
1.1428145531671094886e-05
1.1428561133328407888e-05
1.1410821248137736108e-05
1.1336286401748369175e-05
1.1146498593213167069e-05
1.100138792930936605e-05
1.0928846750083568955e-05
1.0902544535033675162e-05
1.0894569779413730291e-05
1.0894124146650976733e-05
1.0913830690673015703e-05
1.0939604357436692782e-05
1.0957161135019447917e-05
1.0967373450533941887e-05
1.0970063823112957734e-05
1.0965903875648936596e-05
1.0957895825726346993e-05
1.0944177705131294433e-05
1.0909085765307297846e-05
1.085550773296381525e-05
1.0815810808119204734e-05
1.0789940018335333489e-05
1.0774613538836051079e-05
1.0765242439894114605e-05
1.0758264470272300818e-05
1.075236536144035272e-05
1.0748181311639782125e-05
1.0749642138036860894e-05
1.0766694312762192738e-05
1.07889991010475613e-05
1.0808398968173082923e-05
1.0826075671255002591e-05
1.0843780687763080313e-05
1.0863823626272066993e-05
1.0887333653908635886e-05
1.0913823939166874099e-05
1.0940917217326491203e-05
1.0965352599548451902e-05
1.098500494482539126e-05
1.1644693619732438193e-05
1.1657700296080658302e-05
1.1666374111695403481e-05
1.1671471408285488664e-05
1.1674225002181496956e-05
1.1675878593424289018e-05
1.1677904746643840428e-05
1.1681421131388866237e-05
1.1687541434132691596e-05
1.1696725707670993603e-05
1.1709160177415386139e-05
1.1724610960672273422e-05
1.174224462186478249e-05
1.1761549806810330589e-05
1.1781724098264405738e-05
1.1801962164054914214e-05
1.1821443940783923652e-05
1.1839578492071680605e-05
1.1855759564424428218e-05
1.1869450591295101671e-05
1.1880261016875319222e-05
1.188811986330551663e-05
1.1893086629062285924e-05
1.1895340295010063187e-05
1.1895162664560408999e-05
1.1892645324338471771e-05
1.1888163076554866137e-05
1.1882091718512963096e-05
1.1874874338809059921e-05
1.1866804612692489072e-05
1.1858385126288970669e-05
1.1849870245924125009e-05
1.1841385298758863237e-05
1.1832868512654033896e-05
1.1823788492922249004e-05
1.1812703702071285954e-05
1.1796105368475523037e-05
1.1776978236059358691e-05
1.1757442121423563995e-05
1.1738445701589130684e-05
1.1719585686834484525e-05
1.170169635114839691e-05
1.168415536588540487e-05
1.1667610611755003193e-05
1.1651338304656257174e-05
1.1635894806274590989e-05
1.1620553257683094295e-05
1.1605847700440738072e-05
1.1591148216227763204e-05
1.1577037117122910556e-05
1.1562874773926054919e-05
1.1549153335722654758e-05
1.153518313275921714e-05
1.1521504598488871511e-05
1.1507524458657709157e-05
1.1493839989578170368e-05
1.1479849380824346604e-05
1.1466207082441321608e-05