/*--------------------------------*- C++ -*----------------------------------*\
  =========                 |
  \\      /  F ield         | OpenFOAM: The Open Source CFD Toolbox
   \\    /   O peration     | Website:  https://openfoam.org
    \\  /    A nd           | Version:  12
     \\/     M anipulation  |
\*---------------------------------------------------------------------------*/
FoamFile
{
    format      ascii;
    class       volScalarField;
    location    "0.0068";
    object      p;
}
// * * * * * * * * * * * * * * * * * * * * * * * * * * * * * * * * * * * * * //

dimensions      [1 -1 -2 0 0 0 0];

internalField   nonuniform List<scalar> 
75962
(
99379.919689089583699
99099.822356715914793
99116.809796418048791
99302.929473127485835
99497.919272542349063
99444.32946445455309
99239.071496771968668
99185.937477566883899
99285.18242628966982
99321.906544203084195
99296.183909369108733
99300.767214172257809
99299.833274440054083
99318.52890745185141
99363.617084014607826
99359.000583802524488
99308.112548289573169
99259.527604538568994
99270.931638568799826
99340.002054931755993
99381.601905976247508
99341.241377885511611
99272.840097722859355
99232.044200373085914
99219.853802973942948
99216.10899004105886
99220.468551522906637
99239.528391997358995
99249.546374138415558
99225.740079029317712
99188.702723484748276
99159.989586123090703
99135.81634263676824
99123.333913801296148
99149.716706005463493
99209.6510080503067
99263.640149734696024
99280.272132974714623
99264.586826565398951
99231.012208608211949
99203.466224503354169
99189.633708018154721
99181.414639763956075
99182.267490273879957
99194.667044773916132
99210.000779699112172
99219.732088871547603
99229.730526935265516
99253.39177458321501
99282.605251802044222
99306.178531062265392
99328.03854908948415
99348.943543558969395
99356.125768462647102
99348.667281540823751
99338.167209239210933
99337.14949847884418
99347.835359836928546
99371.931201383806183
99399.682039919542149
99408.64026491731056
99386.932248678262113
99360.220719853037735
99347.699358213503729
99341.418248710018815
99330.398513189662481
99328.938632084726123
99355.557365168919205
99399.433041298907483
99431.703732764915912
99437.456608106585918
99428.781035672174767
99419.210965094680432
99415.710919098550221
99414.04772934463108
99414.63465896769776
99422.216509968857281
99442.40838201250881
99475.457738675686414
99508.255543826700887
99524.416757375103771
99514.722987093846314
99481.688136047247099
99436.43463094389881
99398.00958713030559
99387.263768603515928
99410.314618147502188
99447.008110941635096
99462.86538314606878
99439.732937374632456
99392.067057569729513
99353.431212205439806
99339.343838358530775
99341.788556349740247
99336.093531291466206
99315.331181707268115
99294.982324434444308
99293.58059598809632
99311.849312276288401
99335.909041169492411
99353.38593098804995
99365.14947156974813
99380.037810672016349
99403.569032003666507
99430.969700307003222
99449.699677270880784
99450.757321459750528
99435.047014785319334
99414.549901619844604
99405.178168781319982
99415.400945132045308
99442.287999907377525
99474.632032624547719
99500.038949442605372
99513.148812476109015
99519.964378086966462
99531.637049973636749
99553.940564523043577
99579.171165418301825
99588.748649402172305
99571.083992924177437
99531.435177986582858
99489.543526628986001
99464.709212288711569
99463.300835841218941
99476.683967790464521
99488.001334388187388
99485.681598890936584
99470.508703989413334
99453.922090244581341
99447.820251461249427
99455.415532667961088
99468.771917910489719
99476.078011241348577
99471.895247085791198
99459.051654940325534
99445.006687897388474
99434.275106472035986
99424.425053617131198
99410.265062172868056
99389.903664879937423
99368.946094081475167
99356.248581087289494
99357.809103229825268
99370.436939957246068
99385.473047002466046
99396.059463260637131
99403.150630783085944
99412.96415519627044
99429.425158743979409
99449.565418646365288
99464.700221884631901
99467.839703068559174
99458.333749786295812
99441.068465292264591
99422.78753993070859
99408.129677261997131
99398.643037224857835
99393.032446828437969
99389.281060277382494
99385.002532583253924
99378.437670345840161
99369.52490331295121
99359.555894448960316
99350.538082572849817
99344.872661900852108
99343.040126653300831
99345.693464850191958
99350.745774381124647
99356.615267916378798
99361.837323543106322
99367.633876445906935
99378.502486638724804
99399.244914924158365
99431.355653439823072
99469.912815283430973
99504.979651408662903
99526.270389440047438
99528.487202065691235
99514.049228485062486
99490.983603862245218
99468.046828517210088
99451.057850863900967
99441.338172840070911
99436.562258644495159
99433.486780861931038
99431.262813508859836
99432.50454220501706
99492.169781440956285
99478.600982272124384
99467.366323889102205
99462.148358841033769
99464.431056569403154
99473.396096778160427
99486.383636330792797
99499.809017738327384
99510.131067488095141
99514.638347873973544
99511.887849576974986
99502.190756584066548
99488.005936818517512
99473.782644498904119
99465.10222217773844
99466.643939967631013
99479.855971913581016
99501.874119513086043
99526.927353738239617
99549.15372744834167
99565.58452281881182
99577.106004155721166
99586.92813066621602
99597.832336768042296
99609.868795985064935
99620.068558402024792
99624.0638439207396
99619.098283618397545
99606.04322672948183
99589.655999708265881
99576.375269695199677
99571.460708135506138
99576.841909492533887
99590.355440815852489
99606.970127335793222
99620.672478417181992
99627.033616011292906
99624.825100397501956
99616.134333991722087
99605.456116372632096
99597.809717771931901
99596.433115645559155
99601.751536219322588
99611.276640425348887
99620.408800386503572
99624.282074494054541
99619.999966430099448
99607.972646736729075
99591.806806299820892
99576.501062887778971
99565.999154855991947
99561.524999430155731
99561.376523205239209
99562.082207345214556
99560.394492974330205
99554.934642285603331
99546.675997473474126
99538.155504074791679
99532.175864645061665
99530.608958848606562
99533.820987640559906
99540.673526777463849
99548.94639753185038
99556.01686049028649
99559.583063874422805
99558.301504969203961
99552.238229516413412
99542.737324610920041
99531.786096499054111
99521.307575975399232
99512.581304402221576
99506.120817566363257
99501.967132316101925
99500.122771334587014
99500.916573874652386
99505.072151727872551
99513.441135784232756
99526.576660702019581
99544.3814836639649
99565.81255616855924
99588.698654227424413
99610.027350368050975
99626.764048424156499
99636.914157036386314
99640.390731104183942
99639.087040745798731
99636.138995535729919
99634.620675029626
99636.247632820828585
99640.571756484059733
99645.26914894656511
99647.52991452452261
99645.674651586654363
99640.193083550941083
99633.653807285838411
99629.641466391185531
99631.212550798838492
99639.627602130945888
99653.9517942420498
99671.681923280018964
99690.040893495111959
99707.126006536927889
99722.238977472865372
99735.267853483557701
99745.799924047387321
99752.676021840175963
99754.286599154933356
99749.386656358939945
99738.022739383639419
99722.071493386247312
99704.996994887362234
99690.825600043317536
99682.765719059418188
99682.117223706824007
99687.877261589979753
99697.16666625837388
99706.348833625757834
99712.332611107485718
99713.517710059313686
99710.017004731562338
99703.285537756848498
99695.363307205960155
99688.029250217135996
99682.258983446721686
99678.169365977591951
99675.278346847786452
99672.823074082931271
99670.107254243688658
99666.616217193586635
99661.933367820471176
99655.697087173291948
99647.802879262599163
99638.633274781677756
99629.093288613585173
99620.423097557693836
99613.985319631683524
99611.011804659399786
99612.387439453799743
99618.463508943503257
99629.023304038724746
99643.335201076231897
99660.251592142667505
99678.274496263024048
99695.675774786839611
99710.798569312668405
99722.407897477547522
99729.969372579216724
99733.729236510567716
99734.60979513937491
99733.961195098250755
99733.305690727182082
99734.061254578016815
99737.258047950410401
99743.233562182620517
99751.431347556426772
99760.460044825595105
99768.44627574570768
99773.600814963851008
99774.739212447879254
99771.594662716030143
99764.837144237695611
99755.83309623268724
99746.310902564466232
99737.986512544986908
99732.215115002487437
99729.699603087588912
99730.386747053213185
99733.608984563688864
99738.384135497442912
99743.75108142598765
99748.999610881699482
99753.672679268784123
99757.56740086285572
99760.561322451598244
99762.417611832192051
99762.760755182578578
99761.061807057732949
99756.870503305675811
99750.199777869114769
99741.788355017051799
99733.068012148476555
99725.822813791484805
99721.643931395097752
99721.38191489361634
99724.907319473233656
99730.988794598830282
99737.787118205305887
99743.267456549103372
99745.754575183877023
99744.332732687253156
99739.180008638475556
99731.376758375641657
99722.556517433054978
99714.493801058401004
99708.777273663959932
99706.527199541043956
99708.456330686050933
99714.760744919418357
99725.299823886860395
99739.537123176065506
99756.569952083009412
99775.030429823047598
99793.084989381211926
99808.578737821793766
99819.365619351694477
99823.738819877340575
99820.814180671688518
99810.75392293666664
99794.808131877187407
99775.135278163754265
99754.440502286815899
99735.464195196793298
99720.436085890803952
99710.637888591532828
99706.231896134937415
99706.295651091393665
99709.105717327940511
99712.712653916096315
99715.599173124021036
99717.031614081410225
99716.970119009245536
99715.799694677494699
99714.0822999758675
99712.303055609576404
99710.64374392812897
99708.998970899512642
99707.120989109796938
99704.800552267071907
99702.020560279241181
99699.01342069808743
99696.215490566479275
99694.081690837352653
99692.836978711377014
99692.290201340249041
99691.878707154275617
99690.906215154129313
99688.845119145436911
99685.546977780046291
99681.335010605806019
99676.992540877035935
99673.621010096758255
99672.386173465085449
99674.128948904952267
99679.068684855199535
99686.760391227377113
99696.265663903599489
99706.442001754636294
99716.227963486264343
99724.893823699647328
99732.115456594299758
99737.890795151819475
99742.434498117552721
99746.083347028732533
99749.21634824697685
99247.384259278231184
99320.93231027413276
99421.224495037007728
99479.024058156690444
99509.966076568860444
99433.365023874634062
99277.325494045828236
99204.574083219093154
99265.207823914373876
99290.460244331770809
99253.046005048352527
99248.105675330079976
99277.245356617597281
99342.198384242452448
99393.650989931746153
99356.987871208490105
99256.509941901065758
99178.049492514517624
99171.443763537754421
99226.774647918718983
99293.567055969935609
99313.357001598677016
99280.388066430372419
99226.781061461253557
99173.888201927882619
99130.578712697606534
99120.340432782933931
99153.580451201778487
99204.485047618843964
99235.143439326202497
99235.697964906139532
99208.235728201339953
99175.524305790895596
99168.282820929889567
99200.531155059798039
99246.222715813317336
99274.678385198320029
99268.279972987627843
99227.459859765513102
99176.5728544970043
99150.482675733277574
99148.860082574552507
99153.507371910076472
99163.742076372771407
99189.510521984266234
99226.817505160390283
99261.162959145600325
99283.047003718020278
99288.99968886138231
99286.135239183393423
99292.061286129974178
99319.792639412291464
99350.120079408006859
99356.982200854312396
99338.962849401126732
99324.937715341045987
99329.95149150317593
99344.181433193065459
99358.215749666691408
99369.486131136422046
99374.165289682656294
99371.959325247793458
99368.397902717697434
99367.36078919445572
99362.78195200409391
99351.304263410827843
99348.855295462257345
99373.964144045719877
99416.945912873008638
99446.600084108809824
99447.750356736563845
99429.114579052984482
99408.971970093392883
99400.078667418085388
99406.552582872172934
99422.720322088891407
99441.291740556058357
99460.075390687503386
99477.945927424691035
99489.252785416960251
99488.876889651597594
99470.264106532020378
99433.075183442051639
99389.26192202353559
99362.044709655368933
99371.115931577718584
99414.39774176190258
99461.653227708942723
99476.051674693953828
99444.866015854975558
99387.160906642646296
99335.186285652729566
99310.614010406425223
99307.430654496944044
99306.741992066818057
99298.288756857873523
99289.763993365471833
99295.707559048212715
99319.81391705464921
99350.522339081129758
99372.740064953643014
99380.427870716681355
99382.363643641627277
99391.15019500645576
99410.38034081022488
99429.815220658521866
99435.954228573900764
99424.90760200562363
99408.168171539233299
99404.380586734041572
99422.955419942954904
99457.961465257307282
99492.878214394979295
99514.390175962413196
99520.095440496777883
99519.702096967521356
99526.737898721155943
99548.214964938990306
99576.034761738905217
99590.139814165217103
99575.425434524819138
99535.599265809651115
99491.708301030332223
99466.343735800168361
99468.997121320528095
99490.662042603944428
99509.919581695212401
99508.829227937894757
99485.663650134491036
99455.385189085282036
99437.375845176793518
99439.6911929979251
99454.869988830789225
99466.70752924864064
99465.189477771215024
99452.128858300959109
99437.240328348751063
99427.293635895883199
99418.817985461675562
99403.88910457516613
99378.745328318545944
99350.093434399139369
99329.408181966005941
99325.030845711255097
99334.790076073579257
99349.305951534857741
99361.948476588295307
99373.841610137795215
99390.58375861030072
99413.675635484687518
99438.096309842861956
99454.341365123342257
99456.941734475985868
99447.510652435943484
99432.831112880259752
99419.562029414999415
99410.844235283409944
99406.305218295892701
99403.225783512694761
99398.236185181012843
99389.357552824396407
99376.491618355619721
99362.026964835036779
99350.056021813375992
99343.312336206203327
99342.544555700194906
99346.313307353222626
99351.731935224393965
99356.869157075168914
99360.712807826523203
99364.663958673045272
99372.211304022494005
99387.074235616775695
99412.062876360520022
99446.562105793331284
99484.907448335667141
99517.669708000903483
99535.902803238845081
99536.173596595224808
99521.962855527701322
99501.089151180451154
99481.438928457166185
99467.554527796586626
99459.435845189334941
99454.435028233827325
99450.095343892899109
99446.346870315799606
99445.796025352261495
99452.181829645487596
99510.788502751296619
99503.734234120114706
99490.906980678744731
99477.164244815518032
99466.869709981358028
99462.661512533086352
99465.362137696371065
99474.196710893142154
99486.930557813480846
99500.307787941274
99510.547658829469583
99514.296486025006743
99510.017845397203928
99499.117342842262588
99486.048650427008397
99477.063517806833261
99477.638915508869104
99489.78493883824558
99510.876165817739093
99535.012298699060921
99556.308019564574352
99571.703021428256761
99581.690434000905952
99589.002904669192503
99596.076681608901708
99603.047357285729959
99607.506990644062171
99606.379708209933597
99598.265091747278348
99584.878587244049413
99570.693634421011666
99561.099696384218987
99559.721030168773723
99566.997470971706207
99579.972923096618615
99593.787636404696968
99603.738823161082109
99606.884755695908098
99603.140986414422514
99594.991821424264344
99586.183204710861901
99580.468053614240489
99580.068964082121965
99584.789418480169843
99592.392259777378058
99599.654212668770924
99603.290857569605578
99601.261674965091515
99593.78855450496485
99583.142905788699863
99572.431330003688345
99564.044230025465367
99558.602186735486612
99554.872811521985568
99550.821463468659203
99545.075971712125465
99537.689061086028232
99530.093562654947164
99524.383958487960626
99522.378136105282465
99524.906568536782288
99531.533653955673799
99540.737322193861473
99550.325500911087147
99557.987343570101075
99561.786940285339369
99560.54118601110531
99554.211890945138293
99543.986729827753152
99531.91373226052383
99520.215036068402696
99510.611776508492767
99503.95457045926014
99500.247176581659005
99498.98931802266452
99499.688856818378554
99502.25157022383064
99507.14107375642925
99515.27044337708503
99527.657702308773878
99544.823105959512759
99566.198890818355721
99589.786820543813519
99612.421125891138217
99630.90435233739845
99643.351646705588792
99649.823665830102982
99652.080560484901071
99652.574848414937151
99653.221581090416294
99654.491759313110379
99655.33446522502345
99654.106628347770311
99649.948889985898859
99643.7281793900911
99637.935268529836321
99635.673164196763537
99639.298365907452535
99649.404049704156932
99664.670314278584556
99682.651853731804295
99700.976307359989733
99718.276876084288233
99734.214741326286457
99748.645214964897605
99760.598508989220136
99768.052724159657373
99768.750809801829746
99761.341521161390119
99746.424594490934396
99726.934973450566758
99707.408423278480768
99692.590850353401038
99685.82894431897148
99687.81660070248472
99696.349636654224014
99707.329428335695411
99716.397568919448531
99720.453361502033658
99718.546659353291034
99711.818847837770591
99702.740880120021757
99694.022541693193489
99687.625035071978346
99684.209066133887973
99683.227115733563551
99683.452709365083138
99683.536331015537144
99682.421559855152736
99679.545797625454725
99674.743327890319051
99668.032479493456776
99659.616721003258135
99650.021691407440812
99640.115457299150876
99630.938661387845059
99623.518919138849014
99618.789772170610377
99617.546202633937355
99620.362272693862906
99627.462627123066341
99638.636452138263849
99653.19410534745839
99669.981236973166233
99687.400044112015166
99703.637845140954596
99717.034488494318794
99726.519770652957959
99731.892403617937816
99733.825499529644731
99733.602422369614942
99732.712602647414315
99732.472350919633755
99733.710056627227459
99736.525822731928201
99740.20593860358349
99743.457514884430566
99744.837854226585478
99743.221082399613806
99738.145048663354828
99729.97014627243334
99719.783359565961291
99709.070285497349687
99699.388310115187778
99692.056706573814154
99687.984066696095397
99687.557207251898944
99690.561348445131443
99696.238702584232669
99703.451582030713325
99710.983002102395403
99717.840914659027476
99723.37601471405651
99727.302338093155413
99729.588072657468729
99730.254172821194516
99729.268201484854217
99726.462973974266788
99721.607491011702223
99714.681125920382328
99706.204845583430142
99697.352981928182999
99689.779070098535158
99685.142886174216983
99684.570963737831335
99688.235966716805706
99695.207449698107666
99703.692279413618962
99711.523551972059067
99716.720880681023118
99718.033990378113231
99715.265907712033368
99709.240068263039575
99701.491474149428541
99693.861398881766945
99688.090439708466874
99685.449879680221784
99686.635578761808574
99691.853222806981648
99700.918939933122601
99713.312212996883318
99728.211283134500263
99744.461703782100813
99760.551953414353193
99774.619916533818468
99784.645928897094564
99788.824670797941508
99786.001328205427853
99776.04151589096
99759.982874638662906
99739.931400043453323
99718.702719378852635
99699.294471337139839
99684.237137159594567
99675.001662231385126
99671.699987226587837
99673.213094557169825
99677.580370599505841
99682.570000963489292
99686.359973807935603
99688.060754959849874
99687.763807942610583
99686.129298815183574
99683.918237007543212
99681.728765597086749
99679.815927169809584
99678.08598542107211
99676.309697616175981
99674.338769927766407
99672.22981855845137
99670.308068778598681
99669.069295815352234
99668.950408048112877
99670.066658237032243
99672.070488005236257
99674.214851627577445
99675.592311275540851
99675.497485980798956
99673.727564992965199
99670.66327159073262
99667.168957175061223
99664.449745943609742
99663.81969603554171
99666.320882492058445
99672.320206327553024
99681.337995748210233
99692.231845248446916
99703.599393712967867
99714.164737929968396
99723.055202651376021
99729.945498344924999
99734.987278396321926
99738.583543024564278
99741.199402723257663
99743.290920189843746
99227.625024911394576
99431.391377966720029
99513.490837195029599
99460.79263052920578
99463.6759830826486
99448.09909910443821
99376.271277239502524
99321.456574299038039
99328.749217738572042
99296.487756481481483
99250.96940161139355
99267.543468258809298
99320.977594132025843
99362.502042836684268
99378.508588475553552
99344.91311711416347
99274.675400109961629
99223.835172968378174
99195.106875363388099
99178.956942935619736
99216.924621384474449
99294.313555711036315
99319.521297406710801
99265.386037422838854
99190.026779376727063
99135.618561577037326
99118.611343545446289
99141.138031381720793
99189.325524917439907
99243.326397780139814
99269.953582912072306
99252.418993246625178
99227.554707605420845
99230.151025406477856
99258.967680389672751
99282.266160002647666
99274.409748927442706
99232.215361007998581
99173.380288840897265
99144.27319984404312
99152.866341233922867
99172.13828861543152
99183.610944601736264
99195.384241264371667
99226.819590023485944
99279.969366949502728
99326.575928331032628
99332.993419348174939
99299.006024964037351
99267.317498220494599
99274.718732057226589
99316.910792489972664
99353.590899210132193
99351.97925201288308
99326.384299599885708
99314.377472719163052
99327.096741857050802
99342.386380372045096
99342.588984422633075
99340.697809502613381
99352.864334989048075
99372.949760581730516
99386.251725660258671
99391.191982948424993
99386.812640382311656
99375.02258175839961
99369.733049709262559
99385.002745088931988
99415.832195641618455
99439.2658254619746
99439.547522050226689
99424.923246858001221
99409.411554787118803
99408.016637505585095
99421.19670053027221
99440.171364626658033
99451.449516022228636
99449.764137135673082
99441.021142287645489
99433.009129943398875
99425.844032268389128
99412.637448864290491
99385.308805594511796
99351.891629505567835
99336.963452599389711
99359.262975130375708
99409.240085879675462
99452.765318275327445
99458.900726712556207
99423.497065149465925
99368.154862424707972
99319.22752438657335
99292.819415512989508
99290.283498813965707
99297.403638813673751
99300.650594606689992
99300.427241504745325
99308.431882618271629
99333.22453162111924
99367.237762228556676
99390.692889749625465
99394.395848174579442
99386.618255584704457
99383.943060169694945
99396.321793636787334
99415.179787329921965
99423.256049604606233
99413.966664274790674
99399.219551892252639
99399.473087727586972
99425.344140549510485
99467.404417020341498
99504.9507333017973
99524.577850853995187
99527.075287161613232
99523.803598113940097
99527.939464796203538
99543.160014881243114
99563.220515724329744
99574.156492800873821
99563.683663684045314
99533.413671480200719
99497.935097338733613
99477.18671442802588
99482.536795543608605
99506.362985466010286
99526.855796893578372
99524.255240168829914
99495.333747729251627
99456.213028071419103
99429.13503273895185
99425.340272762419772
99438.052856562833767
99450.44829232218035
99451.557713517468073
99443.513725237280596
99434.890621036436642
99430.163993413356366
99423.468288215459324
99405.452628624101635
99374.039590362212039
99338.51426575811638
99312.229534352838527
99302.765321239363402
99307.10592826915672
99317.162954842337058
99328.667911797645502
99344.20002557252883
99367.507928522871225
99396.162216298514977
99422.618942532208166
99439.096426950854948
99442.097632541146595
99435.021024117217166
99423.815435489043011
99414.366468271327903
99409.466630183189409
99408.287671200509067
99408.082015901454724
99404.675564824749017
99395.38512562806136
99380.690580784066697
99364.006683040308417
99350.063774194859434
99343.259220333828125
99344.704189837560989
99351.538850108074257
99359.436233532775077
99365.580454478855245
99369.798068215939566
99375.074257473926991
99385.266849274688866
99403.416201030107914
99430.315937337218202
99462.692477698175935
99494.096969961683499
99517.697184232441941
99528.937312343463418
99527.45373901471612
99516.797621695004636
99502.546347959185368
99489.35736173595069
99478.93767761066556
99470.760626688264892
99463.861838477736455
99458.147206727095181
99455.245367606592481
99457.34932208097598
99465.716359103651484
99513.066057751260814
99510.146627454028931
99499.350484565045917
99484.961785748775583
99471.38586154046061
99461.924356883086148
99458.864458893847768
99463.384390189079568
99474.95772034242691
99490.784169203878264
99506.121610494126799
99515.79266039369395
99516.489122969156597
99508.73028852904099
99497.140295472505386
99488.489644320943626
99488.773718284603092
99500.228828788996907
99520.346228924725438
99543.359838972028228
99563.467364556883695
99577.728754306182964
99586.515940830518957
99591.85235438591917
99595.295817216217984
99596.756398020486813
99594.855274712623213
99588.25437668513041
99577.167220095274388
99564.003126078707282
99552.689079857140314
99547.039733771205647
99548.92641588227707
99557.359186798130395
99568.964269308344228
99579.487345112414914
99585.489349987750757
99585.436970593960723
99580.082732462018612
99571.941450073034503
99564.041690574842505
99558.800654347098316
99557.396014251251472
99559.492006824890268
99563.616728048829827
99567.994450445359689
99571.330974409036571
99572.883183812795323
99572.473838519537821
99570.490641961383517
99567.527394869044656
99563.796245574674685
99558.942222271842184
99552.359242237580474
99543.865566931388457
99534.109787020875956
99524.658309475824353
99517.560945572855417
99514.57695174550463
99516.453309403441381
99522.697015906844172
99531.884927433871781
99542.189324870720156
99551.794794050365454
99559.046150218258845
99562.569672963247285
99561.392516023479402
99555.277123357867822
99545.03306564653758
99532.469967493903823
99519.960625543055357
99509.71282667198102
99503.079285427127616
99500.210104553436395
99500.194567269543768
99501.650881972833304
99503.496600649377797
99505.664201419785968
99509.36635573982494
99516.693716109075467
99529.694301103794714
99549.338848734609201
99574.655793139070738
99602.574146408980596
99628.842640530376229
99649.654868035664549
99663.034894812037237
99669.303801339643542
99670.413624257445917
99668.674643221558654
99665.650319255364593
99661.7318295428704
99656.611787020345218
99650.338363296687021
99644.104683696976281
99640.128200714243576
99640.752052526455373
99647.350252739488496
99659.702924927536515
99676.126940226633451
99694.319059825240402
99712.427580104704248
99729.641287931372062
99745.916071891057072
99761.046622149238829
99773.724653893223149
99781.406240373296896
99781.345482621836709
99772.190166760017746
99755.070438707538415
99733.629780467730598
99713.021180520896451
99698.226735067524714
99692.283030758771929
99695.178238488035277
99703.93575063465687
99713.890614026284311
99720.503271411726018
99721.036447615537327
99715.403012808092171
99705.858003910354455
99695.800142700391007
99688.32653129134269
99685.111063590578851
99685.973575598851312
99689.255600995587884
99692.71822404890554
99694.495189746099641
99693.576441990095191
99689.87106045690598
99683.914408772572642
99676.432272740872577
99668.038124533632072
99659.189237967104418
99650.25900212067063
99641.658076721199905
99633.845995855721412
99627.419569953635801
99623.16061502006778
99621.98167043448484
99624.692976900740177
99631.728765276697231
99642.946516327865538
99657.576897948383703
99674.224025732590235
99691.027244208977208
99706.013090915686917
99717.583668376581045
99724.931259129909449
99728.214856208389392
99728.43780064836028
99726.988126589101739
99725.123766270640772
99723.569782716833288
99722.385152800939977
99721.002043639469775
99718.443072167559876
99713.687162227928638
99706.075405006136862
99695.585324499348644
99682.924506581824971
99669.413091321737738
99656.64313437032979
99646.12945028473041
99639.048013085164712
99636.131333086872473
99637.623752686646185
99643.194514896109467
99651.925429003575118
99662.421983099309728
99673.076083795385784
99682.467459089239128
99689.657999917224515
99694.243603129929397
99696.283625105817919
99696.083876552482252
99694.008923785062507
99690.332549497572472
99685.169582865055418
99678.590401782319532
99670.894492353632813
99662.865634252899326
99655.799605180262006
99651.207769350192393
99650.316039003824699
99653.574271148405387
99660.361638802598463
99669.106558517465601
99677.794433013274102
99684.527544072465389
99688.014058019864024
99687.887774254122633
99684.758763779056608
99679.928044409985887
99674.920461070083547
99671.101043713380932
99669.418676305649569
99670.282434563909192
99673.672490375261987
99679.360644511820283
99687.087634884985164
99696.586378718275228
99707.422366072059958
99718.787780723985634
99729.400985373882577
99737.553340522441431
99741.388416200628853
99739.396320141866454
99730.979275392208365
99716.80969298024138
99698.802622284987592
99679.739138786928379
99662.607003281082143
99649.915742560842773
99643.073257005671621
99642.042120033016545
99645.459778486532741
99651.16871508465556
99656.907351896952605
99660.919248765640077
99662.36460195411928
99661.416474419427686
99658.971702046415885
99656.068697157985298
99653.413414156195358
99651.209058733642451
99649.224265288488823
99647.121405145895551
99644.799867663954501
99642.487320996879134
99640.660417828039499
99639.898546563999844
99640.687198132043704
99643.181969261073391
99647.074107039457886
99651.591768814163515
99655.731839065556414
99658.617998583853478
99659.860066116787493
99659.708653380788746
99658.960778108332306
99658.70843891138793
99660.061328495910857
99663.902983086140011
99670.643665859737666
99680.037818571421667
99691.167301212190068
99702.71423804872029
99713.400834720567218
99722.28125138769974
99728.867233807643061
99733.149101258124574
99735.493196669500321
99736.430364818210364
99736.486542669998016
99736.122915982530685
99301.190255091554718
99573.196879962910316
99489.592937994573731
99487.210041337079019
99654.101954725687392
99581.928803899601917
99457.842967311604298
99487.785311719882884
99479.17212955361174