/*--------------------------------*- C++ -*----------------------------------*\
  =========                 |
  \\      /  F ield         | OpenFOAM: The Open Source CFD Toolbox
   \\    /   O peration     | Website:  https://openfoam.org
    \\  /    A nd           | Version:  12
     \\/     M anipulation  |
\*---------------------------------------------------------------------------*/
FoamFile
{
    format      ascii;
    class       volScalarField;
    location    "0.0068";
    object      rho;
}
// * * * * * * * * * * * * * * * * * * * * * * * * * * * * * * * * * * * * * //

dimensions      [1 -3 0 0 0 0 0];

internalField   nonuniform List<scalar> 
75962
(
1.151314915370451164
1.1490885696303263508
1.1491800345346614431
1.1508466198655429302
1.1527865320817429762
1.152690637986623079
1.1509397662696336795
1.1498791489120263609
1.1499116724445381799
1.1498785252259775547
1.1500071920443952767
1.1507265427866748553
1.151208479548883723
1.1513740843549158388
1.1513640921304002518
1.1508198805448646151
1.1499881383606835872
1.1493719269311015729
1.1494809291288463626
1.1502784942179098415
1.1509757698799290004
1.150983754398914316
1.1506266955895456672
1.1503209098176681024
1.1500971030376228033
1.1498261564800367207
1.1495476098361221418
1.1493889381752284695
1.1492512726507013721
1.1489833120712862335
1.1487014029021060946
1.1484541498025324646
1.1481171361782496199
1.1477800688845387622
1.1478070314383201911
1.1482995413385730377
1.1489763451580230491
1.1494879683040211127
1.1497074061479028995
1.1495995128875338143
1.1492918537578324933
1.1488786572634563932
1.1483978785332331629
1.1480078208602011447
1.1478350831005990074
1.1478559096421294683
1.1479731125490892918
1.1481432783708036549
1.1483578400321852175
1.1484601325150880502
1.1483460420398754476
1.1481279497911585086
1.1479517818131854678
1.1478471703498034362
1.1478706671124150329
1.1480773580512093623
1.1484394225966010339
1.1488093160572920848
1.1490746328278373944
1.149126612199660169
1.148860605467704632
1.1483217640780511992
1.147850156066512417
1.1476584783577343796
1.1476446030658835618
1.1476150321909470708
1.1475689429428164168
1.1475809118525346353
1.14756318693065551
1.1473628556237043252
1.1469915496584341952
1.1466778415154552651
1.1466051714022222896
1.1468164589546006038
1.1471787480310475793
1.1475482780926531401
1.1478255338540002128
1.1479871287532030788
1.1480682463973852503
1.1480823612007990953
1.1480428264616002743
1.1479693177257266345
1.1478714235105904606
1.1477242136106193815
1.1475218435893577151
1.147316226201052336
1.1471533784528054056
1.1469913752616665015
1.1467399510506028903
1.1464115902728673202
1.1461702658479442363
1.1462001715480476527
1.1464526994449433239
1.1466948355068624643
1.1466526262730789565
1.1463275295366524009
1.1459941966153173176
1.1459499503406660459
1.1462576548117180408
1.1467427154496936392
1.1471644244475951435
1.1473894165192106698
1.147418906760036883
1.1473253433987560257
1.1471749084628795057
1.1469943514238891691
1.1468052895866063245
1.1466419073618225877
1.1465634380265126158
1.1466288482509543467
1.1468447489527633376
1.1471593735917391399
1.1474896602855519934
1.1477607610844471342
1.1479487159609851332
1.1481006045618553646
1.1482846588994501946
1.1485176635621161534
1.1487146396019081163
1.1487203011923388107
1.1484557326177289305
1.1479916987063116807
1.147517763229270793
1.1472101048340657137
1.147124670218991449
1.1471822093570247514
1.1472313556935820333
1.1471691614916466051
1.1470069296794036529
1.1468579558596343482
1.1468479672528428814
1.1470284714299814333
1.1473427647511282856
1.1476752479568763654
1.1479337548311916439
1.148074111717815704
1.1480881772055751
1.1479626682935943904
1.1476630374346268315
1.1471745855830215444
1.1465457466047324075
1.1459058052680259898
1.1454100444610022524
1.1451734696836410876
1.1452104821081758868
1.1454632476205834912
1.1458615392355564477
1.1463716596945361381
1.1469765459542105024
1.1476215098619497734
1.1481916233339120037
1.1485411386369119846
1.1485730739785153798
1.1482884100661756577
1.1477790805618139913
1.1471858410356914337
1.1466450326867667631
1.1462571468330549074
1.1460693231836114325
1.1460817520240369483
1.1462498542700838566
1.1465011693926292491
1.1467594653606887345
1.1469592702242386029
1.1470558082240303044
1.1470325214232324207
1.1468857338112401489
1.146640371609454645
1.1463204749826572115
1.14596787076692741
1.1456300105578163251
1.1453726041613345732
1.1452774513525101341
1.1454138268400801959
1.1458074377533906674
1.1464160228581035117
1.1471436052429100361
1.1478822509357300419
1.1485594653209421079
1.1491638409461455428
1.1497301738562839546
1.1503009332289280131
1.1508970204757866806
1.1515057602321192576
1.152089003963657321
1.1526069054595355912
1.1530462569563948438
1.1534295744760025837
1.1549807031483252384
1.1548493966839141756
1.1547397857154333423
1.1546834853799430309
1.1546933874614480064
1.1547627115436096545
1.1548688072737538501
1.1549808652993680536
1.1550681476826314409
1.1551067728697592685
1.1550835348253598589
1.1549999713184151418
1.1548756001918267788
1.1547465855727807593
1.1546586417842896743
1.1546503156169889426
1.154733828438142762
1.1548861407112640531
1.1550604972817617444
1.1552095846633156917
1.1553100473526503045
1.1553703484138597712
1.1554180566711806932
1.1554770652169013001
1.1555484691555442112
1.1556081171712115907
1.1556199641426669888
1.1555609917734281922
1.1554379848403353304
1.1552898106019566793
1.1551692751035724793
1.1551195337993893641
1.1551562805767290332
1.1552614221487391699
1.1553932057833418146
1.155501844084705354
1.1555507329086671664
1.1555297405691740131
1.1554560803613391773
1.155366724863712502
1.1553028453911364792
1.1552908568421760283
1.1553340211667948445
1.1554117120949420894
1.1554860553572170456
1.1555170613355538745
1.1554809506908572114
1.1553811101618796098
1.1552472214188100885
1.1551204650658664086
1.1550333911067465209
1.154996166175476624
1.1549947992776448125
1.1550006077272687577
1.1549866561295500933
1.154941419034573924
1.1548728787981725752
1.1548020833044472244
1.1547524029886628849
1.1547395442710350899
1.1547666835875936009
1.1548243916914526785
1.1548941251571263056
1.1549539242365762792
1.1549845123011950321
1.1549746564421878858
1.1549249240758796553
1.1548465611056717428
1.1547561699021251513
1.1546697755517940642
1.1545979814364406568
1.1545449557012494868
1.1545109049495849707
1.1544957328006466568
1.1545021030129578588
1.1545360165341516101
1.1546045814685736985
1.1547124496133474025
1.1548588807637711895
1.1550352996050496923
1.1552238082544605824
1.1553995727159600548
1.1555375752622365493
1.1556213588254307112
1.1556501733918027597
1.1556395854539687207
1.1556154218976188996
1.1556030377661183906
1.1556166287121685254
1.1556525658336924689
1.1556917297369022624
1.1557109363319781892
1.1556962592729473904
1.1556516210540912493
1.1555980979038762424
1.1555652018561213268
1.1555781624829115639
1.155647457571863379
1.1557654835495660972
1.1559116911206548384
1.1560632438102385056
1.1562044822281516421
1.1563296455816451935
1.1564377719364327124
1.156525387675676253
1.1565828418111372411
1.1565967639020870994
1.1565568054123023245
1.156463303214244398
1.1563317306373102067
1.1561906945001134694
1.1560734606968636751
1.156006543712171819
1.1560006891779779359
1.1560476237413987999
1.1561235904141577979
1.1561986042078671311
1.1562472130919254631
1.1562562901707953422
1.156226860071019491
1.1561710254822816779
1.1561057065593134396
1.1560456425674567882
1.155998897441818718
1.1559663737117051863
1.1559439463642191548
1.1559251076760661547
1.1559038852985070722
1.1558758512758455783
1.15583747979221374
1.1557858066044259804
1.1557200713768087663
1.1556435622291287846
1.1555638593275969761
1.1554912641012569097
1.1554370535695297484
1.155411424660073294
1.1554217460169171616
1.1554710282668423371
1.1555576180473967618
1.1556755835252987552
1.1558154791952650609
1.1559648655672596362
1.1561093214231483728
1.1562349764603079283
1.1563314678046403561
1.1563943013421129624
1.1564255428610319409
1.1564329347977699847
1.1564277843271180135
1.1564227838018643624
1.1564296834080052268
1.1564569397251223126
1.156507220666627811
1.1565757920390775659
1.1566510573533421713
1.1567175021062749973
1.1567603618344421967
1.1567698908947812164
1.156743912643730221
1.1566879584052178753
1.1566132886951017156
1.1565341564644215921
1.1564647426741130332
1.1564162878361949893
1.1563946805624678582
1.1563995876852719569
1.1564255991550322911
1.1564646744415660873
1.1565088971798025419
1.1565523727201141302
1.1565912573063019675
1.1566237836564419172
1.1566488540413808472
1.1566644370690752908
1.1566673894686261281
1.1566533238409579809
1.1566185122766601268
1.1565630628104437427
1.1564930925695464659
1.1564204597186240608
1.1563599754850066859
1.1563248924586311261
1.1563223649679661431
1.1563514392984335366
1.1564019914706138437
1.1564587848147722671
1.1565048669079527333
1.1565261955132268845
1.1565149971349202307
1.1564725973533205305
1.1564078821022063526
1.1563344278787757169
1.1562670617367851733
1.1562191040859974844
1.1561999594307814654
1.156215584133966745
1.1562675617478888057
1.156354628901732795
1.1564722305111601042
1.1566128199885712391
1.1567650795931494478
1.1569139249390099078
1.1570416744792781927
1.1571307361588969442
1.1571671161665078031
1.1571435462841150876
1.1570613107986786883
1.1569305960036908587
1.1567690443062939032
1.1565988175241814773
1.1564424257541690011
1.1563182529461566439
1.1562369469203490624
1.1561999771986271046
1.1561998837885685276
1.1562225829008756506
1.1562520850582902465
1.1562759144295093883
1.1562880103481010252
1.1562879924964692968
1.1562789557085662029
1.1562654399388403448
1.1562513516426065063
1.1562381059008259854
1.1562247719626499443
1.1562092826814711621
1.1561899400838548946
1.1561666806133246155
1.1561415334133773314
1.1561182204454261147
1.1561005962745853903
1.1560905657329161311
1.1560865290682549311
1.1560837532701122576
1.1560763584798421366
1.1560598468780396431
1.1560328704567837121
1.1559980173089166033
1.1559617352669229184
1.1559331705407598356
1.1559220734039585832
1.1559355606232692981
1.1559756232653550789
1.1560387329574881576
1.1561172239103858495
1.1562016775433618943
1.156283269831742011
1.1563558530008779535
1.1564165864079691826
1.1564652901326251122
1.1565035782417660837
1.1565341402001332316
1.1565600808462150884
1.1503469798206282793
1.1507278433315051291
1.1515681924247038737
1.1523269222605720952
1.1530114066265584327
1.1527192735875180229
1.1513030367008274535
1.150030214543160012
1.1497366512477511513
1.1496034936234464929
1.1496147018581308608
1.1502442472330880463
1.1509956304364383772
1.1515839427179417331
1.1516596179460290017
1.1508670874476121249
1.14963678440141992
1.148785187312662881
1.1487455103823234204
1.1494056899100861813
1.1502646820313173759
1.1507192313136087591
1.1506215259055398992
1.1501998990748683038
1.1496445688188718925
1.149055634124817038
1.148662985434055317
1.148626062140018167
1.1488358986610227586
1.1490429911735218216
1.1491166879747238827
1.1489327937750204445
1.1485597832501317495
1.148260837397758749
1.1482937124293444153
1.148613068176977059
1.1490380760213729783
1.1493478534631174082
1.1493726728646682655
1.1491441364798442581
1.1488632875605111483
1.1485507256421993993
1.1481640822226841792
1.1478380918745052508
1.1477736610237663228
1.1479927999940577887
1.1483465245915489561
1.1486528334950063535
1.148748911705463005
1.1485928494624031426
1.1483161983939393913
1.148113670565931832
1.1479796912604822712
1.1478467057047492261
1.1477727735955465249
1.1479526167028972772
1.1483721668560835649
1.1487782942404496378
1.1489625910719454271
1.1488726784726617236
1.1485567346887963769
1.1481603271143960843
1.1478695849660083272
1.1477833752120543132
1.147817741591063756
1.1478313849213128695
1.1478182362095381563
1.1478366499888443819
1.1478019925162739057
1.1475462742537618777
1.1470899759376871341
1.1466472649540278006
1.1464531095184526954
1.1466067841959570739
1.147045763643671501
1.1475697950055099295
1.1479674332261953218
1.1481356564048079694
1.1480868018930390217
1.1478944901767969
1.1476771485311019205
1.1474992724295502988
1.1473680725962189797
1.1472722797240086923
1.147227269368172875
1.1472484170274162008
1.1472883721322213457
1.147212885078881639
1.1469247562764994797
1.1465059839558686683
1.1461784972403363803
1.1461177397576367554
1.1463095764524047215
1.1465145008550921002
1.1464902759561572676
1.1462103627504647285
1.1459002954624424309
1.1458490143325139599
1.1461680383822656637
1.1467148110899283431
1.1472208750168737534
1.1474756530060032933
1.1474552268893196683
1.1472738086885720943
1.1470645153102771996
1.1468835854175776223
1.1467301898587669573
1.1466082043882572794
1.1465719350660337206
1.1466937720832517389
1.1469769434733825264
1.1473388785055833594
1.1476551665181149442
1.1478530256613062033
1.1479450716221839546
1.1480179409562363269
1.1481609957703240443
1.1483949086223612657
1.1486219560197914458
1.1486682299987396316
1.1484264544851245926
1.1479613107244552861
1.1474814155373240787
1.1471950672201254307
1.1471825932981192242
1.1473544964337214491
1.1475118536445205741
1.1474898986850621263
1.1472727433422618137
1.1470000138865394934
1.1468597333400043503
1.1469464912843398974
1.1472137908817601204
1.1475198444116605501
1.1477468180382424112
1.1478529422172767394
1.1478554838817451866
1.1477620698955703915
1.1475278725116004885
1.147109548389088296
1.1465280267623727539
1.1459037463933940959
1.1453935960340086986
1.1451172751448701614
1.1450951626317713572
1.1452750995730343053
1.1456088096314762659
1.1460843292225901813
1.1466936794784186038
1.1473668389744147156
1.1479682793956449416
1.1483380178501514379
1.148384691840746985
1.1481242111230205438
1.1476630329817187892
1.1471402235512382362
1.1466773742074816145
1.1463557306723572982
1.1462076138805550318
1.1462204292647486525
1.1463529705823600757
1.1465474530982306955
1.1467489772032981588
1.1469160099713555656
1.1470107683093095918
1.1470045556678485354
1.1468798813142369042
1.1466341756046323219
1.1462930614567825582
1.1459021883142153087
1.1455314948028803013
1.1452655052980165173
1.1451823523266329019
1.1453398790998214896
1.1457519536697842177
1.1463739288779768444
1.1471139681829951584
1.1478707431936563399
1.1485792700968451285
1.1492277849387710909
1.1498415989544754634
1.1504516459322953192
1.1510683154739655976
1.1516720289623165741
1.1522284515687992723
1.1527112035560813652
1.1531192185217711277
1.1534782260719789182
1.1538268398138618043
1.1551403083531612825
1.1550677730812020094
1.1549471030982267905
1.1548199740755629161
1.1547238753874051742
1.1546816379508548778
1.1547004295638227944
1.1547734407658480915
1.1548811132244516386
1.154995018437678711
1.1550822731315892877
1.1551136529400614084
1.1550752337053573626
1.1549777052044754022
1.1548572354640749271
1.1547651667447327295
1.1547467907218571526
1.1548191498018853807
1.1549613706455570394
1.1551258206569283704
1.1552651484877771715
1.1553553532312106356
1.1554016876653971924
1.1554277413201754499
1.1554544591962170319
1.1554835408672547992
1.1554953958179297047
1.1554646137336115341
1.1553793798404885518
1.1552534563993996919
1.155123365625155385
1.1550332643991576553
1.1550128196238440559
1.1550654559712421054
1.1551665676512918868
1.1552758354629446558
1.1553542521613990868
1.1553774057060879343
1.1553445069308252435
1.1552759557481484531
1.1552025177774443154
1.1551549423604350331
1.1551513139592339829
1.1551898355030834065
1.1552520343830741112
1.1553114519793004078
1.1553411691558825858
1.1553244448512809406
1.1552630509062613573
1.1551755650220045801
1.1550874664163457428
1.1550184244858148208
1.1549736010254412211
1.1549428796480860626
1.1549094608474346213
1.1548619266287885043
1.1548005875600182435
1.1547372098425616738
1.1546891648053692059
1.1546716864335055952
1.1546919234601347171
1.1547465220963706312
1.1548230129075056638
1.1549032265888590221
1.154967891973972538
1.1550007917782418865
1.1549919563713830772
1.1549409486649258039
1.1548575395799751675
1.1547586554451327867
1.1546626557179606731
1.1545837226956157107
1.1545288235575699165
1.1544979565697426338
1.1544870304940666461
1.1544921004871615544
1.1545125475524498082
1.1545523347188133556
1.1546190603540873454
1.154721097132387353
1.1548626483831285761
1.1550389342403866166
1.1552334140873292689
1.1554199718767506067
1.1555722703418145336
1.1556748072063371957
1.1557281151547422748
1.1557467346926548757
1.1557509209361345182
1.1557565080143827885
1.1557674207055974591
1.1557750052875070956
1.1557656706092405141
1.1557322306022894676
1.1556817084732255996
1.155634541843046259
1.1556162789335266972
1.1556463772733571727
1.1557297923535878592
1.1558557115096961265
1.1560040311132264712
1.1561552364837717199
1.1562980984505759618
1.1564298602518907622
1.1565493489964859819
1.1566485527426031421
1.1567107333589567997
1.1567171595905814119
1.1566565422800472174
1.1565336980450746651
1.1563727595264494674
1.156211144948374514
1.1560880869662799597
1.1560313243891617851
1.1560467166701904329
1.1561161922392200196
1.1562060141953132142
1.1562802664182036949
1.1563133815557038453
1.1562975189191104786
1.1562420868050351519
1.1561674667894714652
1.1560960169970393441
1.1560439142461618189
1.1560165814025193942
1.1560094325188250419
1.1560122396522614086
1.1560137350506116682
1.1560050797053256222
1.1559815561698898456
1.1559417908647799944
1.1558859942964074818
1.1558159431849277521
1.1557360689805802334
1.1556535922914743519
1.1555771163237620325
1.1555151233075642292
1.1554753387088716465
1.1554643897919807394
1.1554871203255674406
1.1555454954044204197
1.15563784067125086
1.1557584469784114578
1.1558976803312848158
1.1560421878400874984
1.1561768370815921347
1.1562878037400659004
1.1563662202801014978
1.1564104871667610919
1.1564262951134471891
1.156424394595398919
1.1564172037369144785
1.1564156386424815359
1.156426511083616937
1.15645056772723831
1.1564818216226275815
1.1565095173761943403
1.1565216870218149037
1.1565089960868604191
1.1564675930913796975
1.1564004091984809719
1.1563163648063601308
1.1562276737093164503
1.1561471706644597113
1.1560857810652966915
1.1560511067877268232
1.1560464900627716034
1.1560703213239671427
1.1561164835874524481
1.1561756643844525172
1.15623781980339424
1.1562946871256465364
1.156340779844550859
1.156373593965406954
1.1563927450634381433
1.1563983396607477871
1.1563901089052444071
1.1563667218090694089
1.156326339054358332
1.1562688437952608478
1.1561985642401173546
1.1561252061151563453
1.1560624369599836747
1.1560239998132579853
1.1560192613276427664
1.1560497163663479014
1.1561077188539155003
1.1561784334784979134
1.1562438613663168496
1.1562874855284304143
1.1562988039567976273
1.156276054717888524
1.1562259893459698734
1.156161338180802467
1.156097442751502502
1.1560488506400403708
1.1560262155538927331
1.1560353746374250061
1.1560780376612480591
1.1561526358828226879
1.1562547952587833855
1.1563776714893148068
1.1565117212064885965
1.156644504269952467
1.1567607181779919756
1.1568437594941785029
1.1568787599971144253
1.1568561666162742174
1.1567747944430599727
1.1566430931193705245
1.1564783203989092986
1.1563036129006218911
1.1561436558622577575
1.1560193398314853042
1.1559428687816002412
1.1559152623516679714
1.1559273809739221139
1.1559631186272527614
1.1560040995767573158
1.156035298059346017
1.1560493645346991975
1.1560470418358046452
1.1560337616267093441
1.1560157781441739999
1.1559979878286141819
1.1559824469082942144
1.1559683365169408642
1.1559537394700600821
1.1559374418911572135
1.1559199628087686307
1.1559040726754084005
1.1558939599943069965
1.1558933028965576728
1.1559030715443052717
1.1559203469491674543
1.155938848935133878
1.1559509353487062988
1.1559506270159534136
1.1559361243206238701
1.155910506491628631
1.1558809226875916831
1.1558574089615101244
1.1558509657123121617
1.1558703943779067291
1.1559189312306001884
1.1559927865176455875
1.1560826250331408538
1.1561768846631952368
1.1562649657467400921
1.1563395292805749293
1.1563977081622367482
1.1564405714437102635
1.1564712709577704697
1.1564935294739264737
1.15651106475770038
1.1502760288434992209
1.1516325246448295694
1.1522571707767934601
1.1520704924328435403
1.1525511534600332286
1.1528130861698939746
1.1521072773079459317
1.1509473290857665795
1.1501731177150555929
1.1495699981382112576
1.1495683289396940729
1.1504480801895042852
1.1514530738634463081
1.1518571591281165922
1.1516049505628747074
1.1507798738774281944
1.1497546057186589508
1.1491212069743104163
1.1489159401523456605
1.14900580367113192
1.1496314315592988109
1.1505492944620827611
1.1509093190372732263
1.1504522213873618064
1.149673136460699352
1.1489653849798857621
1.1485312259093765075
1.1484749386248447323
1.1487612320875757455
1.1492391792716267762
1.1495493840420951681
1.1494145685775174481
1.149049832728568532
1.1487832507280331118
1.1487593078650251144
1.1488825400454401038
1.1490051770984877066
1.1490190559131945314
1.1488912652197673658
1.1488274191327454421
1.1488041536400817044
1.1486292033043059568
1.1482735803449570788
1.1479595818610792701
1.1479699422877744919
1.1483665370157243313
1.1488689352207310801
1.1490801876328065045
1.1488576066710780577
1.1484553549814924267
1.1481723899645286391
1.148071450667865312
1.1479829849096478966
1.1477894751472017543
1.147675393342497685
1.1478938857392866346
1.1483794439728016723
1.1487626180791279396
1.1487701370430465353
1.1485014478502122426
1.1482014689622022097
1.1479887186219335238
1.1478824588708300691
1.1479144396318690102
1.1480111826738883529
1.1480501630072947883
1.1480039474944847555
1.1479097036051821856
1.1477461700916669063
1.1474333210667497784
1.146993137348808256
1.1466285457221123689
1.1465227682066214676
1.1467733478443389306
1.1472703627291547246
1.1477786698791947462
1.1480403319430334541
1.147948519876705209
1.1476064701796302447
1.1472280812860262689
1.1469851079767141577
1.1469241203255136075
1.1469561260441158979
1.1470032231185693927
1.1470722596731728338
1.1471754661110244999
1.1472293887581264116
1.147098136043585237
1.1467502607529969083
1.1463342929055935215
1.146072817140390443
1.1460682882611501476
1.1462430908726504164
1.1464157432295547512
1.1463958778631910818
1.1461530452497175059
1.1458728053852074158
1.1458277596675956467
1.146162932916078514
1.146756092213910172
1.147289765187915922
1.1475224292864500963
1.1474280109482373202
1.1471617414837160798
1.1469184233328573175
1.1467710919843090434
1.1466812349416726224
1.1466168365941276086
1.1466220369174842109
1.1467769630365145517
1.1470964766810196611
1.1474779641946279973
1.1477746261996313315
1.147923064798281434
1.1479661388072108785
1.1480012603292764073
1.1481090225785306469
1.1482786125380455289
1.1484282083828765142
1.1484389367478444743
1.1482334527939883628
1.1478635370342631372
1.1474840480396957254
1.1472755397855101123
1.1473252976193732966
1.1475478304633679461
1.1477372140168224934
1.1477140088262636208
1.1474522032226848189
1.1471020049031319665
1.1468732348656389686
1.1468831244698307614
1.147088136729505381
1.1473431289334479199
1.1475314407648817827
1.147629440699743153
1.1476616036058306936
1.1476267087931106836
1.1474587640512952103
1.1470899535150014259
1.1465362375702952136
1.145921696160635106
1.1454075728747814544
1.1451036801451610625
1.1450245181078786416
1.1451315485617368228
1.1454012059785154687
1.1458424113251008958
1.1464432566120006385
1.147111781880180148
1.1476981402713199998
1.1480585914824337213
1.1481175547862012554
1.1479042367501273159
1.1475153774425874698
1.1470781484784062787
1.1467027907352076443
1.1464566008336598557
1.146362926458783571
1.146398373171890972
1.1465171638456022052
1.1466710599800791215
1.1468188979513307402
1.1469285170778933391
1.1469792468344319758
1.1469497489125806133
1.1468174187293920241
1.1465754341809846206
1.1462479826476090761
1.1458883664018459925
1.1455739942943199416
1.1453816842849384727
1.1453712882396525075
1.1455736036617876206
1.1459759607880271037
1.1465299697828039704
1.1471743949578030453
1.1478566616947472045
1.1485485581910623853
1.1492450077419387178
1.1499513005742760807
1.1506632469799140672
1.1513557141662533745
1.1519933816642113911
1.1525487497441400109
1.1530137462006821991
1.1534052523436233439
1.1537523793220070267
1.1540803652288769143
1.1551520841559081987
1.1551117624525548688
1.1550074245531321004
1.1548759249292379625
1.154754803642432881
1.1546719337484576684
1.1546460646555114504
1.1546860124557960514
1.1547858816020371009
1.1549206481549243453
1.1550492327625250244
1.155127230325178278
1.1551261020158398729
1.1550494082698894438
1.1549350985754800458
1.1548393147976554474
1.1548122221693326583
1.1548732865037072415
1.1550030368627210997
1.1551552396379221044
1.1552833632967260957
1.1553643842309255785
1.1554024009663088624
1.1554148740817398178
1.1554151415136557635
1.1554026714856115987
1.1553660389778506179
1.1552939502291494911
1.1551877710169571323
1.1550669428156359331
1.1549634868485960659
1.1549086041882654641
1.1549175491818148842
1.154982002126259566
1.1550739400218821284
1.1551580093060518362
1.1552055339084044139
1.155203572272602619
1.1551581298720132729
1.1550898449665973899
1.1550236483941631604
1.15497944366321037
1.1549669063151470905
1.1549832622863918097
1.1550164413086208004
1.1550519258548082036
1.1550791568476337368
1.1550920244874494092
1.1550889675563809078
1.1550730108770272953
1.1550488987059797097
1.1550183131602513864
1.1549783443280383644
1.1549240182360362983
1.1548538006820447954
1.1547729307702323531
1.1546942099072567967
1.1546345108119517864
1.1546084733253616506
1.1546225437826174165
1.1546730128110180846
1.1547484460409942475
1.1548339223144823418
1.154914428589433717
1.1549760999021871921
1.1550072865808924671
1.1549996349006448337
1.1549509417261720756
1.1548677608157496
1.1547649848257310889
1.1546621873150295645
1.1545775809595431038
1.1545223371279771385
1.154497760259546979
1.1544964867160836253
1.1545073372621093011
1.1545216167748879599
1.1545389399240320039
1.1545693527961626845
1.1546300009774221884
1.1547375831754311815
1.15489989940988802
1.1551087951269678467
1.1553389088113048544
1.1555552457329010263
1.1557265360955197853
1.1558366140281526313
1.1558882406691493028
1.1558976002846150788
1.155883798527564954
1.1558597338956895229
1.1558285715126725979
1.155787649469445233
1.1557371957032334109
1.1556868850321806441
1.1556548913016466695
1.1556605013639942303
1.1557150794888531031
1.1558168836932667389
1.155952115215196585
1.1561018589953389046
1.1562509232749940136
1.1563927056290606021
1.1565269381669813775
1.1566520035930285548
1.1567571268863823253
1.1568212492817337989
1.1568215535342820655
1.1567466597455882127
1.1566056724099011976
1.1564285128312805639
1.156257685334533214
1.1561344178856607368
1.1560839795689792364
1.1561065162989867527
1.156177676851548819
1.156259106434718964
1.1563133959386542315
1.1563179225919764104
1.1562718725450307211
1.1561937340106986927
1.1561114427386622872
1.1560504745465816079
1.1560245875020391804
1.1560322539174290313
1.1560597502324576613
1.1560885643184239946
1.156103269500538433
1.1560955292716841303
1.1560646264727736376
1.1560150464542886528
1.1559528586589942201
1.1558831891779888235
1.155809839231709546
1.155735879388141818
1.1556646612008159014
1.1555999439219197811
1.1555466574895605358
1.1555113083269152874
1.1555015131013770535
1.1555240349194515481
1.1555824825209501938
1.155675627672324346
1.1557969971383976748
1.1559349115758126292
1.1560738778707702057
1.1561975409293865358
1.1562927355971939214
1.1563528999397980623
1.1563794997472023329
1.1563809725911826654
1.1563688914374550265
1.1563536935424192365
1.1563413566850113678
1.1563323148676198926
1.1563218021043115691
1.1563016638872256614
1.1562633864244258319
1.1562014470176493752
1.1561155736746442368
1.1560115233078991359
1.15590012603074066
1.1557944877875605538
1.1557071212046430286
1.1556477935518139066
1.1556226668257245649
1.1556339138882603113
1.1556789688976385477
1.1557503871457517342
1.1558367273354177573
1.1559247012294540102
1.1560024890929105901
1.1560621974700855397
1.1561003341664910504
1.1561172760027147444
1.1561155102254072613
1.1560980925694011034
1.1560673873536480016
1.1560244609054408649
1.1559699800663159053
1.1559064440023043563
1.1558402940522902735
1.1557821727773300857
1.1557445158194081802
1.155737439782356768
1.1557646877759204518
1.1558211710204799871
1.1558939229225022594
1.1559662639035028775
1.1560224221094601571
1.1560515943492624125
1.1560506286673326581
1.1560244892736586397
1.1559839262134483651
1.1559416161419047153
1.1559089702108793496
1.1558939782724997336
1.1559001466968850114
1.1559273885896113043
1.1559738428824433143
1.1560373551317957297
1.1561156925431617104
1.1562052426253337511
1.1562993216944050801
1.1563873431228468558
1.1564551893732593069
1.1564875046960290117
1.1564717740791947698
1.1564029975452569943
1.1562866593386438296
1.1561385201108287379
1.1559815182783061971
1.1558403264683390077
1.1557356889371410702
1.155679260843039291
1.1556707571952506974
1.1556989324354618454
1.1557459598341384144
1.155793153806564888
1.1558260130986861558
1.1558376251927231504
1.1558294643461486384
1.1558089969640334971
1.1557848551543199456
1.1557629015699650843
1.1557448104850247539
1.1557286385318632504
1.1557115525811403334
1.155692684936523662
1.1556739069660504349
1.1556591781208722658
1.1556533256311731783
1.1556603995805714291
1.1556816976090147353
1.1557146318653814809
1.1557527307259773952
1.1557875706971854068
1.1558117722488945311
1.1558220049097236437
1.1558202869537561597
1.1558132184334350967
1.1558099028200308211
1.155819649105556568
1.1558499370311632326
1.1559043528377874743
1.1559810507202719077
1.1560725711681503203
1.1561680863282817189
1.1562570093537070104
1.1563314259317263311
1.1563871397241785033
1.1564238671464843744
1.1564444600156544851
1.1564531362548513549
1.1564541517798285764
1.1564513060946017831
1.1509620414485202122
1.1525236334439479258
1.1519644355494556009
1.1523208153553947675
1.1541987636296229258
1.1539616738091886816
1.1527819068283895465
1.1523265569298437594