/*--------------------------------*- C++ -*----------------------------------*\
  =========                 |
  \\      /  F ield         | OpenFOAM: The Open Source CFD Toolbox
   \\    /   O peration     | Website:  https://openfoam.org
    \\  /    A nd           | Version:  12
     \\/     M anipulation  |
\*---------------------------------------------------------------------------*/
FoamFile
{
    format      ascii;
    class       volScalarField;
    location    "0.0155";
    object      nut;
}
// * * * * * * * * * * * * * * * * * * * * * * * * * * * * * * * * * * * * * //

dimensions      [0 2 -1 0 0 0 0];

internalField   nonuniform List<scalar> 
75962
(
5.2308805082731590086e-07
6.0076073873706394797e-07
6.547915354444029944e-07
7.6323768104935761819e-07
8.6857339830239721353e-07
9.3851171437406661222e-07
1.0137349168032679768e-06
1.1196786413513062514e-06
1.2353779855167349224e-06
1.3245831799489118044e-06
1.3746530806238931221e-06
1.4067530574924889823e-06
1.4608403487459407185e-06
1.5764482689883273884e-06
1.7104128977922954032e-06
1.809214248951880793e-06
1.8628723121364622226e-06
1.9010592145550305795e-06
1.9740222342526216948e-06
2.124207061103349898e-06
2.275097532741656521e-06
2.3695159563248174414e-06
2.4124173000925574589e-06
2.4446864946311602444e-06
2.4898704616047433801e-06
2.5538995423581899561e-06
2.6428285663948888723e-06
2.7540165152794155206e-06
2.8674674655263612053e-06
2.9585591159847583437e-06
3.0166318794229161066e-06
3.0488276982772510676e-06
3.0704111529134442211e-06
3.0975791340880623191e-06
3.1479533864305505217e-06
3.2308673896145152333e-06
3.3388809700842993882e-06
3.4514815437705200101e-06
3.5465093355679715184e-06
3.6091773872938627553e-06
3.6424038534115736853e-06
3.6707321813783526951e-06
3.7293179315252806571e-06
3.8774068877777647369e-06
4.059644876987469958e-06
4.1913667189147701549e-06
4.2579514924789390508e-06
4.2780369414839764335e-06
4.2810320133806228807e-06
4.2858022163718179244e-06
4.3004225396866820557e-06
4.3415692525768971184e-06
4.4232304866040320117e-06
4.5189596941070462924e-06
4.6143077961816173399e-06
4.6932158351840062277e-06
4.7456555868386547076e-06
4.7768284468133987583e-06
4.8098147413994616844e-06
4.8784990235744131885e-06
5.019153644074828722e-06
5.1959602114813379856e-06
5.3673477559719999118e-06
5.4963934183327247686e-06
5.565306590457166844e-06
5.5842390075667035608e-06
5.5804576561682494402e-06
5.5683208807359674966e-06
5.5587303413773740156e-06
5.5580263337999325147e-06
5.5798359332984411919e-06
5.6626265041776154051e-06
5.736279812902891029e-06
5.7717647902504861916e-06
5.7935310054457462352e-06
5.8254325468730964256e-06
5.8808011101653616772e-06
5.9603596918498892823e-06
6.0572969613365150701e-06
6.160616911935689321e-06
6.2588216597337338335e-06
6.3411884383608590557e-06
6.3994645684882362478e-06
6.4314493664727406138e-06
6.441903163682140023e-06
6.440968626888810461e-06
6.4384422500853358195e-06
6.4403803970693780672e-06
6.4627788822557307144e-06
6.5412505293832874501e-06
6.6355117500523016304e-06
6.7109193143948223413e-06
6.7665666076051993579e-06
6.8075125018872923924e-06
6.8431609505978239816e-06
6.8836488312817242593e-06
6.9360704277580156581e-06
7.0029108558946611828e-06
7.0816942750678100524e-06
7.1655869279882860275e-06
7.2458307941650721573e-06
7.3123211740681042065e-06
7.3582079346397007754e-06
7.3820907835125465561e-06
7.3910648833703863732e-06
7.397945165201571155e-06
7.416335238040321064e-06
7.4591070309346565602e-06
7.5201729506760889269e-06
7.5873946570688019194e-06
7.64765294848820571e-06
7.6925988179757778183e-06
7.7200845725072248643e-06
7.732868253953095912e-06
7.7366864545869194688e-06
7.738717136513271924e-06
7.7465493484953619566e-06
7.7708989397362190855e-06
7.8424612840253733363e-06
7.950154926206500595e-06
8.05799802924711352e-06
8.1559146508953067443e-06
8.2351381716105004967e-06
8.2902444658505037602e-06
8.3201825127546043557e-06
8.3302409009960828092e-06
8.3306957052443712379e-06
8.3316339527526797338e-06
8.3410586567863951441e-06
8.3731489743313901216e-06
8.4148793803068011067e-06
8.4515238592519039329e-06
8.4767868847789918009e-06
8.4886979631451594836e-06
8.4906437830769662558e-06
8.489026243862642882e-06
8.4899848126234463104e-06
8.4992704888595306821e-06
8.5327083382619779982e-06
8.6142108044060941233e-06
8.7109991550606082923e-06
8.8136453128239155452e-06
8.918525200990936401e-06
9.021479063197932022e-06
9.1163831969070588932e-06
9.1958326831201611347e-06
9.2551224020261320966e-06
9.2916837991690479851e-06
9.3087225441904417603e-06
9.3114343241914386659e-06
9.3065670570352223889e-06
9.2989805043743426502e-06
9.2854044779638719362e-06
9.2554461954916097754e-06
9.2232563737687733402e-06
9.1997370540536723858e-06
9.1851807582331200183e-06
9.1772334069349797856e-06
9.1727473626669375805e-06
9.1786036274642301866e-06
9.2199601904982421798e-06
9.3371820765397335585e-06
9.4633933550751551483e-06
9.5777081499263156826e-06
9.6810729293087671173e-06
9.7746948095251848866e-06
9.858765152577131152e-06
9.9309035901811123403e-06
9.9871791106541776205e-06
1.0023989323167125948e-05
1.0041098650823315457e-05
1.0042247599654547828e-05
1.003535667154267086e-05
1.0023911412837528567e-05
9.9968158069432775932e-06
9.9331032586691234045e-06
9.8707366042903201252e-06
9.8253203129302426759e-06
9.7962354912163546677e-06
9.7798128441749025122e-06
9.7712801922747826561e-06
9.7663636090135269244e-06
9.7712257772332723987e-06
9.8066343474548800123e-06
9.90699746376780316e-06
1.0016780332706769988e-05
1.0117881647317762038e-05
1.0208241556590508511e-05
1.0649478916201939033e-05
1.062640583996541864e-05
1.0614997061249759779e-05
1.0608760218404995543e-05
1.0611471028927185455e-05
1.0645269202131763011e-05
1.0736881342889213428e-05
1.0824692538243528458e-05
1.0898715246745388968e-05
1.0959536822251186573e-05
1.1008100720133141479e-05
1.1044740023885050669e-05
1.1070124061464432441e-05
1.1085445521604380081e-05
1.1091847271072738422e-05
1.1091466201062642454e-05
1.108675467806193718e-05
1.1079509121424315141e-05
1.1071431791949812152e-05
1.1061595859825918548e-05
1.1046201498007800687e-05
1.1012317500794861603e-05
1.0951748620576168199e-05
1.089818190980801059e-05
1.0857391179551198951e-05
1.0829971961503206078e-05
1.0814196553769505119e-05
1.0804805045936430354e-05
1.0798199794689294348e-05
1.0796905801756790156e-05
1.0813433290165790546e-05
1.0856573562009465568e-05
1.0900823619005913255e-05
1.0946265802552560201e-05
1.0993951579961061275e-05
1.1043838014668089695e-05
1.1093799380695643872e-05
1.1140559315293334727e-05
1.1181000461546033916e-05
1.1212037512431492233e-05
1.1232321284103898473e-05
1.1241976057065964354e-05
1.124322960346804257e-05
1.1238639527269111878e-05
1.1231217685141234089e-05
1.122271089184994753e-05
1.1210978921931120432e-05
1.1188160629894397437e-05
1.114064185861845064e-05
1.1093149399781173468e-05
1.1055174314236244524e-05
1.1027569713828765647e-05
1.1009422272686192722e-05
1.0998024988176137112e-05
1.0989883283150871009e-05
1.0983477407222649232e-05
1.0981923075378715845e-05
1.0993775076742155338e-05
1.1013515128534835574e-05
1.1032417998348953742e-05
1.1053745132048664124e-05
1.1079301992485363835e-05
1.1111100059133131255e-05
1.1148692745233395614e-05
1.1190889237556364804e-05
1.123469280343549143e-05
1.1276599631765783633e-05
1.1313207249898950867e-05
1.1342021295069387092e-05
1.1361646860446361729e-05
1.1372590023300764551e-05
1.1375353101089671554e-05
1.1372340566792408988e-05
1.1365660818858719713e-05
1.1357692683067217509e-05
1.1348363839098859186e-05
1.1334993938321901035e-05
1.130922255430346855e-05
1.1261282215093033481e-05
1.1215093521862529516e-05
1.1175657597248437962e-05
1.1144051103932052111e-05
1.1120285441301077105e-05
1.1102951433027340259e-05
1.1090563236895607113e-05
1.1081012901599803064e-05
1.1073152419435802272e-05
1.1066108851352914419e-05
1.1061652765915053057e-05
1.1066734210351423455e-05
1.1102012047548557956e-05
1.1168674009513949473e-05
1.1232920092581126533e-05
1.1291990482295714067e-05
1.1342440400507522701e-05
1.1382253545351094944e-05
1.1410253469916001255e-05
1.1426892684466738825e-05
1.1433992177260266144e-05
1.1433927593260803513e-05
1.142922665559817171e-05
1.142221514185428298e-05
1.1414304532732589536e-05
1.1405253068804845938e-05
1.1392555793632150039e-05
1.1369135747870825565e-05
1.1317438582776087835e-05
1.1256350240604570022e-05
1.12018879158035926e-05
1.11563369822634602e-05
1.1120430965459828629e-05
1.1093671693999380184e-05
1.1075115645738763459e-05
1.1062229140704308721e-05
1.1053014616524229079e-05
1.1045526041117100904e-05
1.1039434306031664908e-05
1.1038219673032592284e-05
1.1052796039305780594e-05
1.1097844302814347482e-05
1.1145164284758744233e-05
1.1188825643555918186e-05
1.1227778981944480045e-05
1.1260742443689508897e-05
1.1287042498587382934e-05
1.1306267916605648613e-05
1.1318976787087619773e-05
1.1325479257257405541e-05
1.13269041633791259e-05
1.1324358853967263425e-05
1.1319071554080924378e-05
1.131235088368693114e-05
1.1305066891200819489e-05
1.1297152633967858423e-05
1.1288416174092474618e-05
1.1275984618837095572e-05
1.1253956162145105385e-05
1.1227052417426530346e-05
1.1199912196816928442e-05
1.1171065034841038151e-05
1.1140423119939904816e-05
1.1107695607593819458e-05
1.1072968906962569278e-05
1.1037818082817251017e-05
1.1003321814223692826e-05
1.0972421483508458921e-05
1.0946719746465577588e-05
1.0928258222306407718e-05
1.091594718741969395e-05
1.0907367794451711468e-05
1.0901659626867776817e-05
1.0906152794373567304e-05
1.0944934984593078788e-05
1.1061309173256567558e-05
1.1184716580882576398e-05
1.1286634495951311966e-05
1.1365900217186304194e-05
1.142487437813920785e-05
1.1465997015719520469e-05
1.1493147374699278453e-05
1.1509550740278054999e-05
1.1517477780689581087e-05
1.1519090651237843075e-05
1.1515281069970734841e-05
1.1508441444213913718e-05
1.1500088432018223684e-05
1.1488544427316950097e-05
1.1467251206790793895e-05
1.1415523002432591181e-05
1.1306261209596477069e-05
1.1195753753085987267e-05
1.1096683906492945914e-05
1.1012718324376787794e-05
1.0945034492911540858e-05
1.0894490676505456852e-05
1.0859850583407001007e-05
1.083841245107499272e-05
1.0826261398768788227e-05
1.0818533844758386082e-05
1.0813454371463053079e-05
1.0817765402744927854e-05
1.0852562912415948451e-05
1.0946524761153996166e-05
1.1038758771741178106e-05
1.1114767040054089568e-05
1.1173395357882333497e-05
1.1214950622690845168e-05
1.1241333730226160776e-05
1.1255376501950850433e-05
1.1260030235472048355e-05
1.1258466415946671664e-05
1.1253250534056884858e-05
1.1245931485378200156e-05
1.1238033372670432668e-05
1.1229675285379676011e-05
1.1220413081141693032e-05
1.1208977716274795078e-05
1.1191212181922316103e-05
1.1153638254002910712e-05
1.1083219061884883925e-05
1.1009383948036432371e-05
1.093698752601123454e-05
1.0867867821727969559e-05
1.0803744466541654429e-05
1.0746145444711599587e-05
1.0696738030088530721e-05
1.0656329923870554375e-05
1.0625762754016617273e-05
1.0604321268498487273e-05
1.0590599815685266326e-05
1.0581916796970562334e-05
1.0575361761298380158e-05
1.0573703890223733174e-05
1.0589156741663042856e-05
1.0657005103970048574e-05
1.076038677000055862e-05
1.0848947501029421531e-05
1.0920426233277846561e-05
1.0974478370675157907e-05
1.1012634439493207289e-05
1.1037145028078091389e-05
1.1050814651276530878e-05
1.105627351312695444e-05
1.1056071694291349616e-05
1.1051963189180176193e-05
1.1045622295404664749e-05
1.1038214257456527027e-05
1.103033831343248448e-05
1.1022163763032996226e-05
1.1013143963852465795e-05
1.1001312598892197786e-05
1.0980902560536308382e-05
1.0934584486187165627e-05
1.0860586071588806289e-05
1.0783775144221072667e-05
1.0706530426471546572e-05
1.0631479289181126481e-05
1.0561048695369364294e-05
1.0498935446252634791e-05
1.0447662850034990573e-05
1.0408909709194192415e-05
1.0382502964696284237e-05
1.036668632560200457e-05
1.0357577510570212939e-05
1.0351268886989538936e-05
1.0350819383276160451e-05
1.0370894413949137739e-05
1.0449422620604725364e-05
1.0554110646303542054e-05
1.0642557278330126645e-05
1.0714506010810927387e-05
1.077002133583339424e-05
1.0811341199414422083e-05
1.0840277719540174469e-05
5.2999951137020118331e-07
6.1433068942302469872e-07
6.7349417051508043423e-07
7.8532131714049815572e-07
9.4230115480832768855e-07
1.0376283607029231965e-06
1.0821321863068489659e-06
1.143854502689679307e-06
1.2653139367525234758e-06
1.3813392857096102229e-06
1.4477898914642174632e-06
1.4880014940567284466e-06
1.5551439095337691206e-06
1.6843834444391643468e-06
1.8190657795139848173e-06
1.8970857907174853233e-06
1.9504535767255497352e-06
2.0256887175277760457e-06
2.1158706017656050394e-06
2.1960108517859088247e-06
2.2692100376259159532e-06
2.3566121420289280992e-06
2.4637015989251491762e-06
2.5720754142728880496e-06
2.6568467568630261031e-06
2.7108694915102252587e-06
2.7519340467666460385e-06
2.8063274079977049951e-06
2.8879112770414267438e-06
2.9941965247637481693e-06
3.1105322323417228871e-06
3.2172758530379196125e-06
3.296224182837971112e-06
3.3410988276635526476e-06
3.3635080631690480713e-06
3.3894975675376360304e-06
3.4480120013071028879e-06
3.5809794351078020323e-06
3.719875785888681866e-06
3.8189498501032882228e-06
3.8713757833762230611e-06
3.8990858518920189666e-06
3.939311490723003276e-06
4.033369431625582078e-06
4.1831141230807428945e-06
4.3263431264841050952e-06
4.4301753982122464101e-06
4.487099411453514436e-06
4.5097908778768021817e-06
4.5171508437574831553e-06
4.5252949316841366913e-06
4.545951234192851716e-06
4.6064147345862102605e-06
4.7276198220236859731e-06
4.8368191912344500968e-06
4.9172693833185080226e-06
4.9725617344033654963e-06
5.0198851182374966157e-06
5.0803820257536865364e-06
5.1721079939948542601e-06
5.3005432672275408374e-06
5.4553248412470616173e-06
5.6109105094016509943e-06
5.7349369175285645607e-06
5.8071471509227974982e-06
5.8311821742888340981e-06
5.8291483711872366748e-06
5.8196128584115360346e-06
5.8101909273087042187e-06
5.8088648642451948679e-06
5.8287423284013564054e-06
5.9139276292099680253e-06
6.0114690859192081404e-06
6.0759142483893799276e-06
6.123469212320977656e-06
6.1709196387390599119e-06
6.2309271063712754992e-06
6.308078229622149423e-06
6.399229651917037421e-06
6.4952561396016023109e-06
6.585692970338867408e-06
6.661245517939586231e-06
6.7151257117375658744e-06
6.7455202700269501412e-06
6.7562211159876881076e-06
6.7556939535886768324e-06
6.7523495105348978646e-06
6.7514174770254474514e-06
6.7646833068431306768e-06
6.82737607180943503e-06
6.9373774155468044284e-06
7.0325972448179246301e-06
7.1099138815200699248e-06
7.1744149390399752518e-06
7.2347227468401716457e-06
7.2980577019608693407e-06
7.3658968302681094366e-06
7.4357169661066140716e-06
7.5042210171315386932e-06
7.5683882723610114264e-06
7.6258998417753085989e-06
7.6723754348860049836e-06
7.7040523077863773014e-06
7.7204586846333109429e-06
7.727344457642057243e-06
7.735583410311844347e-06
7.7577790738198714327e-06
7.8096018682038699754e-06
7.8838179203750488334e-06
7.9678679578608269834e-06
8.0481473531628965122e-06
8.1145336742969968058e-06
8.1626452338442805848e-06
8.1923627754493330582e-06
8.2068531069648561587e-06
8.2119955451082581564e-06
8.2156644545015942559e-06
8.2270997585727939004e-06
8.2610432077688796611e-06
8.345576120288571384e-06
8.4502096230501298155e-06
8.5554702420204210346e-06
8.6506732691388485499e-06
8.7262609767256417919e-06
8.77673482288941813e-06
8.8020897928684258227e-06
8.8086351299446150482e-06
8.8061246763374354782e-06
8.8029376909319676496e-06
8.8041280593462920001e-06
8.8189090601063312277e-06
8.8396618930789485355e-06
8.8569584628528888633e-06
8.8732519467006811003e-06
8.8959702879360454553e-06
8.9326660302614975534e-06
8.9884785912439611066e-06
9.0621352876576641392e-06
9.1472978165429203628e-06
9.2357326785444207888e-06
9.3209486449653438023e-06
9.4015940828558584337e-06
9.4779780447941070572e-06
9.5503330678589460983e-06
9.616770435618452202e-06
9.6726037958060846674e-06
9.7144830355234031421e-06
9.7398223494913028039e-06
9.7503782797595483605e-06
9.7501729237017638108e-06
9.7441114840463972457e-06
9.7360690434821111277e-06
9.7227852046087536971e-06
9.6974062637835334902e-06
9.6739547507395737004e-06
9.6582600287309146612e-06
9.6494024099704194409e-06
9.6442476518192715289e-06
9.6492549731245029612e-06
9.6929165716228462543e-06
9.8361822570768202355e-06
9.9994633074005471893e-06
1.0130780929860319734e-05
1.0233988070170573699e-05
1.0314071936427765097e-05
1.0378150107439581694e-05
1.0430657899673728093e-05
1.0472515905792306669e-05
1.0503273209979616047e-05
1.0520556750290905562e-05
1.0525289881805119087e-05
1.0520699089146929193e-05
1.0512185442695726859e-05
1.0497829433661948662e-05
1.0463632175633648833e-05
1.0402693252252627606e-05
1.0352892892172830785e-05
1.0318399025023018464e-05
1.0297183192236204747e-05
1.0286076420702495337e-05
1.0279278810427318797e-05
1.0280055438203184967e-05
1.0309262568551123972e-05
1.041451107983723282e-05
1.0544355638448821175e-05
1.0652514906398494846e-05
1.0740989380935757284e-05
1.0812266790055168771e-05
1.0869485592989215164e-05
1.1200513950622162376e-05
1.1162374266202281301e-05
1.1141102809264252538e-05
1.1130354385100961459e-05
1.1124345170665167885e-05
1.1128976002738424333e-05
1.1170955265869244796e-05
1.1274728912067398916e-05
1.1369849865097783083e-05
1.1449346954587462749e-05
1.1514585665987807104e-05
1.1566886423895405029e-05
1.1607207150968744288e-05
1.1636338094676602499e-05
1.165525337963567917e-05
1.1664723113577937972e-05
1.1666752079873460548e-05
1.1663307951423172935e-05
1.1656387647226557262e-05
1.1648063405403768367e-05
1.1638256942606027406e-05
1.1623621242725104837e-05
1.1592912790831301449e-05
1.1532125464993450351e-05
1.1475602468291307265e-05
1.1431853824858806678e-05
1.1402046833363666193e-05
1.1384814903460938594e-05
1.1374932314052545098e-05
1.1368150345140703644e-05
1.1367932113114698379e-05
1.13905892098731317e-05
1.1448738189504397645e-05
1.1504169022462691296e-05
1.1555950842802345356e-05
1.1606232473000519548e-05
1.1655761126377069505e-05
1.1704269822086164335e-05
1.1749746901637632122e-05
1.178943707450864388e-05
1.1821687620277880403e-05
1.1844779733157449595e-05
1.185850350837666588e-05
1.1863364074885766609e-05
1.186159588446383944e-05
1.1855348026948130734e-05
1.1847149961572787298e-05
1.183736472485628582e-05
1.1821359118860651701e-05
1.1784667402004266639e-05
1.172276496141765254e-05
1.1668349490318228909e-05
1.1625589517148822953e-05
1.1594647923323877668e-05
1.1574228266791414133e-05
1.1561348593382995414e-05
1.1552748221835135371e-05
1.1545695875891954301e-05
1.1542197284817425014e-05
1.1548973308055659421e-05
1.1574348433518113235e-05
1.1601345176947898237e-05
1.1630260653638543991e-05
1.1661947168086291585e-05
1.169774917199898854e-05
1.1737028939111074472e-05
1.1778710599230087603e-05
1.182076875442146784e-05
1.1860774334110996337e-05
1.1896375898603338774e-05
1.1925617567732219848e-05
1.1947010489431561129e-05
1.1960407706874916084e-05
1.196541306650027502e-05
1.1963706170905886967e-05
1.1957171738873602912e-05
1.1948704400422869681e-05
1.1938145362949428334e-05
1.1920717398147056637e-05
1.1882251525411708788e-05
1.1829706498944704386e-05
1.1784439260735843669e-05
1.1748824261505405801e-05
1.1722487358701076554e-05
1.1704527432449696466e-05
1.1692244917165305082e-05
1.1683601858280332332e-05
1.1676442840343245806e-05
1.1672932258140611276e-05
1.1682400830382134673e-05
1.1729468082897158811e-05
1.1798553528976846654e-05
1.1862350677225699382e-05
1.1919734456469412994e-05
1.1968229836144314351e-05
1.2006150355250844508e-05
1.2032482612509401825e-05
1.2047887526172307835e-05
1.2053941259463198875e-05
1.2053100266110313088e-05
1.2047735744451674319e-05
1.2040415325191115576e-05
1.2032395169808054116e-05
1.2023825950625805181e-05
1.2013806598906542593e-05
1.1999697371541517013e-05
1.1973687273198155859e-05
1.1920140365134069445e-05
1.186104648811465321e-05
1.1806761063020549101e-05
1.1760350965982790294e-05
1.1722956726507572817e-05
1.1694815399725711454e-05
1.1675305649502119756e-05
1.1661807095116114556e-05
1.1652394135803317607e-05
1.1644647376373800068e-05
1.1639261725686975547e-05
1.1642190081092480768e-05
1.1671506843806110586e-05
1.1727387263493721747e-05
1.1779077134386287546e-05
1.1824595322830009294e-05
1.1863032207794877115e-05
1.1893647264774473847e-05
1.1916095615788770644e-05
1.1930929603706226749e-05
1.1938419485680139688e-05
1.1940099159786560148e-05
1.1937275598626750843e-05
1.1931486154805983602e-05
1.1924228941721940541e-05
1.19164177633938103e-05
1.1908020627826395549e-05
1.1898945258985013101e-05
1.1886740740163408776e-05
1.1864938835245527802e-05
1.183578777139566353e-05
1.1805918381821992524e-05
1.1775796507916678655e-05
1.1744302744182924541e-05
1.1711315561579345988e-05
1.1676678473693041186e-05
1.1640270412553660538e-05
1.1603300522442496287e-05
1.1566999801998402797e-05
1.1533837823494246362e-05
1.1506047001234374189e-05
1.1485531586948551959e-05
1.1471745836747374055e-05
1.1462149457218280457e-05
1.1455236503572075032e-05
1.1456112473540479152e-05
1.1484115897897838242e-05
1.1588500288034134025e-05
1.1724532361608533149e-05
1.1838201285288007199e-05
1.1927931647826918346e-05
1.1996050758104371086e-05
1.2045139126364531572e-05
1.2078863634145835032e-05
1.2100530057549411505e-05
1.2112264081366305851e-05
1.2116189370894474747e-05
1.2113530729857425322e-05
1.2106665441340543621e-05
1.2097973248866917455e-05
1.2085994440455502281e-05
1.2063690186520280653e-05
1.2008912063891197825e-05
1.1891157448403409162e-05
1.177200870637539837e-05
1.166653753278266036e-05
1.1578268354319861603e-05
1.1508604688489134719e-05
1.1458175036365055439e-05
1.1424752822403587098e-05
1.1404959857998078017e-05
1.1393874724850360604e-05
1.1386269716017155366e-05
1.1382643696269142372e-05
1.1393199027409844088e-05
1.1449584679379513579e-05
1.1552264982076141216e-05
1.1641838766014000063e-05
1.1713772740455973277e-05
1.1767618308675870163e-05
1.1804643655270555968e-05
1.1827202774509249051e-05
1.1838411851784793732e-05
1.1841236351613201519e-05
1.1838633740826774916e-05
1.1832956099558072029e-05
1.1825382231592705291e-05
1.181717127283701688e-05
1.1808656148641989006e-05
1.1799455686367142871e-05
1.1788637096835263404e-05
1.177324281770791709e-05
1.1743845464710481782e-05
1.167927148566128279e-05
1.1601035944831083658e-05
1.1523795586868723317e-05
1.1449003704180459395e-05
1.1378553420453468202e-05
1.1314211053915098178e-05
1.1258193008963328978e-05
1.1211819774127695199e-05
1.1176186989975609961e-05
1.1151089572105257104e-05
1.1134829059253796644e-05
1.1124820376530724581e-05
1.11174433023881607e-05
1.1113720990603799931e-05
1.112310431138801683e-05
1.1174908023403332872e-05
1.1273922520608713579e-05
1.136184502254853372e-05
1.1434696965829131623e-05
1.1492443500122624222e-05
1.1536607930644519624e-05
1.1568782016431755643e-05
1.1591353102518246117e-05
1.1606103812891922726e-05
1.1614704626274641535e-05
1.161819738799521876e-05
1.1617589494698674871e-05
1.1613589991102794095e-05
1.1607316287149590383e-05
1.1599804588677311694e-05
1.1591612715731658347e-05
1.1582886693164332439e-05
1.1572013681583517069e-05
1.1553946095048857345e-05
1.1513112752680611754e-05
1.1426235180053717242e-05
1.1331859545248611771e-05
1.1240845284000144379e-05
1.1155739004219446128e-05
1.1080608364107943025e-05
1.1018403433375848315e-05
1.0971104078695879548e-05
1.0938547350830632262e-05
1.091895920177578022e-05
1.0908068891204604755e-05
1.0900910785831096603e-05
1.0898597834623136425e-05
1.0913798006583011276e-05
1.0982550448878375206e-05
1.1087964533119024606e-05
1.117836717693252391e-05
1.1252691879295602362e-05
1.1310976556761586674e-05
1.1355008125053048251e-05
1.1386434811393939049e-05
5.0857831411977711969e-07
5.7410234197181737199e-07
6.5174825506574168706e-07
8.2298109245081795242e-07
9.7116608608001657876e-07
1.0477768357772817789e-06
1.134997237630744535e-06
1.2630019234109074431e-06
1.3971407914783963601e-06
1.4961118083690183888e-06
1.5488836185680079911e-06
1.5779267040051495932e-06
1.6214877120904444392e-06
1.7256982237976145705e-06
1.8798246276154287913e-06
1.9858300175717422073e-06
2.0359505657014095619e-06
2.0736738482544382635e-06
2.1530105573113380136e-06
2.2788398569024939614e-06
2.3908709629119437983e-06
2.4737239516312431352e-06
2.5462668553402508282e-06
2.6341127895448742981e-06
2.7395579158042110995e-06
2.8376714476067913544e-06
2.9147124725845782523e-06
2.9862011033300766392e-06
3.0748660991337460145e-06
3.1789724038915787528e-06
3.2737635221277960151e-06
3.3403903938191537169e-06
3.3840501094751123171e-06
3.4299010995342628991e-06
3.5047378719829854756e-06
3.6122802214547388012e-06
3.7299502944223494468e-06
3.8285962903811478393e-06
3.8909326671299588962e-06
3.922960269984708988e-06
3.9493220327012949091e-06
4.0016043317712545008e-06
4.1297160945959018359e-06
4.315117181959729782e-06
4.4754378051525974162e-06
4.5796975326107703728e-06
4.6268725000612712878e-06
4.6421354838034091178e-06
4.6529446957582520203e-06
4.6783904257680169089e-06
4.7427107371054850519e-06
4.8390188176474479827e-06
4.9445526084549550405e-06
5.0441553614038459188e-06
5.1246589324272535118e-06
5.179859976406372343e-06
5.2119640247837199586e-06
5.2359059764567419755e-06
5.276548371404588282e-06
5.3712879188348104089e-06
5.5567224697414034586e-06
5.7617727381911758021e-06
5.9404320887053186709e-06
6.0593085709193417283e-06
6.113613660532210499e-06
6.123562581528807554e-06
6.1174130843403646263e-06
6.1057217632823746381e-06
6.101465011315087967e-06
6.1141041359539021483e-06
6.1930900077813869501e-06
6.3415480545279236731e-06
6.443714813760895708e-06
6.5003067604849833292e-06
6.5254031747514682537e-06
6.537138867210848646e-06
6.55456522953243376e-06
6.5983577789618196217e-06
6.7115844986249567118e-06
6.8486615187740336604e-06
6.9654019567392244435e-06
7.0466083933618963751e-06
7.0885263127983130175e-06
7.1020366050322893722e-06
7.1027466855693810891e-06
7.101864604601884314e-06
7.1060469846844784232e-06
7.1309785841363471301e-06
7.2105267649721515008e-06
7.3016517358780723101e-06
7.3781995468033495327e-06
7.4404835207538251197e-06
7.4931826272919801722e-06
7.5414825076957756183e-06
7.5894346010607705572e-06
7.6386646641615748779e-06
7.693283743574716617e-06
7.7598349908901459633e-06
7.8418380233183806289e-06
7.9357466593759776522e-06
8.0303612835213552038e-06
8.1117278326653434678e-06
8.1685856887364186897e-06
8.1987136398953993602e-06
8.2086210515736343039e-06
8.2088451042374447264e-06
8.2097289119116512792e-06
8.2197280899864969033e-06
8.2598403512970718592e-06
8.3408490483483176109e-06
8.4251677564863177821e-06
8.5046193837620293483e-06
8.5745478386348587319e-06
8.6317945703010690576e-06
8.6739950697664632679e-06
8.6997872873312198021e-06
8.7121274969254510352e-06
8.7195433015176671124e-06
8.7354981875580066028e-06
8.7796747471008798928e-06
8.8746092601822948763e-06
8.9799895088792719211e-06
9.0765236066322149303e-06
9.1542812612594278354e-06
9.2104819731581917568e-06
9.2501839013810054915e-06
9.2801765568961335168e-06
9.3070684994053810553e-06
9.3330502654395261963e-06
9.3578471900091622285e-06
9.37857702485692117e-06
9.392604617500033821e-06
9.3984831910429568556e-06
9.3991655589457905734e-06
9.4011742566281042405e-06
9.4123470140096266823e-06
9.4406990563410451658e-06
9.4884236380682116229e-06
9.554025117065733863e-06
9.6340187487181080044e-06
9.7248934221669077529e-06
9.8221485770054556096e-06
9.9215132509547596541e-06
1.0016862354992062134e-05
1.0100144184858246237e-05
1.0165215461704501618e-05
1.0207623847963695753e-05
1.0228445139493337959e-05
1.0232638994113005073e-05
1.022717930006409665e-05
1.0218647771330887969e-05
1.0204595123913071746e-05
1.0180049381502214546e-05
1.0159856277887647775e-05
1.0146178851253618593e-05
1.0138324192023241387e-05
1.0134024013861823467e-05
1.0143656398039830439e-05
1.0201103217693037025e-05
1.0332597576399403635e-05
1.0456442738683557474e-05
1.0565904787172640167e-05
1.0662743487587568423e-05
1.0749688972002377607e-05
1.0830202215174422899e-05
1.0904941007464625285e-05
1.0971731644375186824e-05
1.1026058086866606165e-05
1.1062617911779528695e-05
1.1080359244270772507e-05
1.1081737421149252535e-05
1.1074255526672523652e-05
1.1061851546071855621e-05
1.1032693138942405194e-05
1.0970432501027327062e-05
1.0917378794617050601e-05
1.088247302897045876e-05
1.0863753233039069541e-05
1.0854547454748271856e-05
1.085155050133458258e-05
1.0871351481168622528e-05
1.0955379037972135737e-05
1.1060604509707923644e-05
1.1148026876669108923e-05
1.1221453260756477833e-05
1.128432893832665767e-05
1.1340496142389140354e-05
1.1393071767579342578e-05
1.1443239961198649118e-05
1.1795752292236931153e-05
1.1768418402993232846e-05
1.1754845283595681565e-05
1.1747710251206807547e-05
1.1749894897152304526e-05
1.1785155267525438135e-05
1.1877776166731530009e-05
1.1963159325811674214e-05
1.2034246325551377078e-05
1.2094398456980097689e-05
1.2146755691121133121e-05
1.2192668914016240012e-05
1.2232657612633356789e-05
1.2266330908605618897e-05
1.2292627271092883284e-05
1.2309985156895011252e-05
1.2318433634412587538e-05
1.231870781876017701e-05
1.2312888732080995498e-05
1.2304143082617818915e-05
1.2292825393750535102e-05
1.2272048415459936731e-05
1.2219802241932382805e-05
1.2144106641566256946e-05
1.2084236494907451694e-05
1.2042997564835518162e-05
1.201921895221350501e-05
1.2007117079222548171e-05
1.1999893577374356348e-05
1.2001053128977431529e-05
1.2031732011494885467e-05
1.210729584090158552e-05
1.2174245040375439051e-05
1.2230163906225844777e-05
1.2278578508287344093e-05
1.232235152918113863e-05
1.2363106694885431689e-05
1.2400825466466224484e-05
1.2434403341077207114e-05
1.2462426737777415522e-05
1.2483824742152293966e-05
1.2498935905673186212e-05
1.250781594751806849e-05
1.2511259578172476744e-05
1.2509812924282853036e-05
1.2504690662483135e-05
1.2497209348309743849e-05
1.2488506282616099232e-05
1.2477868307690252988e-05
1.2460072681697634798e-05
1.2420259317891014315e-05
1.2366446912923565561e-05
1.232088170866617213e-05
1.2285395053135874979e-05
1.2259804124159656447e-05
1.2242773125753067919e-05
1.2231549330943941692e-05
1.2223164028753554902e-05