/*--------------------------------*- C++ -*----------------------------------*\
  =========                 |
  \\      /  F ield         | OpenFOAM: The Open Source CFD Toolbox
   \\    /   O peration     | Website:  https://openfoam.org
    \\  /    A nd           | Version:  12
     \\/     M anipulation  |
\*---------------------------------------------------------------------------*/
FoamFile
{
    format      ascii;
    class       volScalarField;
    location    "0.0155";
    object      p_0;
}
// * * * * * * * * * * * * * * * * * * * * * * * * * * * * * * * * * * * * * //

dimensions      [1 -1 -2 0 0 0 0];

internalField   nonuniform List<scalar> 
75962
(
99387.384414596919669
99418.020879894451355
99330.16438236675458
99266.758128784262226
99440.905202417110559
99529.760880459070904
99501.4344602865458
99469.977481452136999
99380.579128057608614
99285.786155393056106
99289.804294039393426
99378.59261514955142
99453.729612198440009
99465.831911993358517
99455.733740254974691
99468.942338331587962
99470.551993522865814
99445.364594120415859
99475.205053046433022
99552.259164579314529
99555.480699650404858
99467.695535952312639
99404.529638669759152
99425.320505984360352
99449.348915749564185
99427.35844716813881
99397.784015600467683
99395.026746736140922
99400.973884342805832
99403.303094453236554
99407.891814161805087
99405.777329887074302
99389.657442703886773
99360.726807320941589
99332.556984580660355
99329.950225370223052
99368.366672340693185
99410.46582740850863
99397.514959950844059
99318.8592658941634
99227.439592064343742
99182.836543964323937
99192.986192066280637
99238.188664377172245
99295.602557037360384
99331.905855490927934
99318.948825778847095
99270.550565937781357
99239.411224255309207
99239.808099603818846
99246.546719243488042
99241.101734959622263
99236.584127896072459
99248.765579068785883
99266.024560220190324
99270.963700247913948
99271.679633169027511
99283.321539342679898
99301.990243862790521
99302.208531313022831
99269.282847864888026
99221.337305808250676
99187.793524260428967
99177.65552948032564
99175.181514074647566
99156.250677945427014
99116.729466198201408
99076.520961584479664
99062.297936961302184
99083.169863560557133
99121.216319142768043
99153.49491314253828
99168.372584984870628
99164.866879843655624
99152.293648761915392
99146.248016230019857
99159.723289966234006
99187.488109002559213
99212.232220104415319
99218.359379350556992
99205.524828493711539
99190.121211972465971
99190.723150428631925
99212.692986358160852
99243.896463759112521
99261.206066993545392
99251.997192351744161
99227.017889263908728
99212.680405488354154
99227.222208544189925
99261.116547198296757
99287.936348876100965
99290.484267818072112
99272.364088259811979
99247.042445453480468
99222.200265005376423
99197.91050516141695
99177.084180115023628
99165.465579967887606
99165.048623118927935
99175.355313298539841
99192.625769658043282
99215.40050014006556
99241.785261717508547
99267.526432002050569
99288.066173200306366
99306.100865208689356
99323.774319141171873
99341.13339595006255
99351.512326951691648
99346.648964356063516
99326.069626971060643
99299.522434964121203
99279.897672427658108
99273.16200841787213
99273.751514484378276
99267.641195959309698
99246.843410691828467
99216.220080841856543
99189.914326916987193
99183.001434124991647
99200.351746860134881
99234.467629623133689
99268.550854197412264
99286.982279937452404
99286.911984200589359
99277.267729442319251
99271.389669949407107
99274.998190289741615
99282.339620744605782
99283.532614874406136
99272.253207020810805
99250.779932164601632
99228.102026521213702
99214.296110636307276
99213.863978284280165
99221.875485807016958
99226.596194723257213
99220.199478767972323
99206.291809120521066
99198.761558496276848
99208.493289145277231
99234.767599450278794
99263.990515537167084
99281.127852212855942
99279.616262003590236
99264.267718945717206
99246.909167050209362
99237.240347853759886
99237.258354294506717
99242.511807747068815
99246.228337370514055
99246.722824694195879
99247.366526037832955
99252.02013219553919
99260.755385479380493
99269.787140558022656
99273.668110928527312
99269.548013510779128
99259.388178419336327
99248.368990207294701
99240.362054063822143
99235.1509745917283
99229.962690055486746
99223.316085258877138
99217.919692708805087
99219.671189501168556
99231.969865533232223
99251.832035684259608
99270.072424129029969
99277.051736574227107
99268.708663710756809
99249.802313108069939
99231.280864789892803
99223.996189315716038
99232.189998884306988
99250.12834838431445
99266.292340657077148
99271.452327824110398
99265.384439179397305
99256.96991032778169
99258.287425999660627
99275.859348563884851
99305.465050777740544
99334.869139628281118
99350.330832183914026
99344.26667082835047
99319.139385619404493
99315.839755980487098
99301.792956222619978
99287.019005422000191
99273.783465463930042
99261.860199044022011
99250.133041277193115
99238.22897747362731
99227.193740135728149
99219.214345503933146
99216.016435278987046
99218.112488013648544
99223.93629929216695
99231.190790212000138
99237.228798645432107
99241.184919683029875
99242.558604384714272
99240.779111818032106
99236.321419162937673
99228.515781508409418
99218.695443337768666
99209.609584394216654
99204.022515519449371
99204.239645916444715
99210.312651836517034
99220.012604443953023
99230.097193216774031
99237.374653411403415
99239.47720045146707
99235.489830544422148
99225.967414454484242
99213.251496539203799
99201.435684602081892
99195.457149465903058
99199.567976034450112
99215.825922694246401
99242.958079910400556
99276.431046957761282
99309.922209283744451
99337.520954696650733
99355.917982485872926
99364.469524817614001
99365.519504558484186
99362.33482807247492
99358.415192031374318
99356.07061931512726
99356.186178028452559
99358.301172796782339
99361.131365201406879
99362.832854501146358
99361.879419635122758
99357.749686178707634
99351.476693911899929
99345.609113785554655
99343.473246299865423
99347.999373958824435
99360.233003105327953
99378.39904451475013
99398.106806486248388
99414.028312906186329
99422.289607732513105
99421.789728725678287
99414.392742719181115
99403.816544168192195
99393.820303916654666
99386.929158283004654
99384.188597413434763
99385.226009158825036
99389.339954583629151
99396.048754208764876
99404.960813220663113
99415.100493124366039
99424.746746839417028
99431.32994110241998
99432.937324876344064
99428.379002452857094
99418.507994300278369
99405.593857011714135
99392.733222840717644
99382.601355038626934
99376.654000027730945
99375.360309613941354
99377.824805927433772
99382.413570721822907
99387.259839166450547
99390.44959876613575
99390.159502515147324
99384.747789948552963
99373.28460855515732
99355.797428095873329
99333.260598006600048
99307.518699442502111
99281.100209246229497
99256.249851901317015
99234.797662755925558
99217.916425457733567
99205.73902443467523
99198.305345617525745
99195.303333062882302
99196.441922939309734
99200.580460357712582
99206.834443799336441
99212.922781141707674
99216.202466822840506
99215.549504887501826
99209.977150294958847
99200.965617714871769
99190.723923825760721
99181.463736214136588
99174.967700623470591
99172.214529294476961
99173.249481349354028
99177.211604867203278
99182.851481345715001
99189.020387578028021
99194.870838150731288
99199.501691404308076
99201.889304752301541
99201.184299290340277
99196.959453537449008
99189.335354614740936
99178.987309607109637
99166.983523616756429
99154.411500738322502
99141.963189901784062
99129.757218006125186
99117.464303260931047
99104.853852725544129
99092.256882538378704
99080.956683013180736
99073.104014043361531
99071.388296718563652
99078.401098667745828
99095.512594807354617
99122.204025798826478
99155.636549013943295
99191.21809330326505
99223.818462637296761
99249.325937212517601
99265.677742713538464
99273.563841258583125
99275.82524027574982
99275.967850671135238
99276.637165924694273
99278.674421257615904
99280.949207642392139
99281.100120682138368
99276.78016801486956
99266.796160724086803
99251.955500584241236
99234.700694154453231
99218.435002561222063
99206.016553260851651
99199.213696590435575
99198.391234199312748
99202.820318963640602
99211.334856460656738
99223.390182685179752
99239.291669323123642
99259.265229271783028
99283.573495425094734
99311.160016405206989
99339.66991241373762
99365.742303115825052
99385.712550215757801
99396.713202577797347
99397.677701386826811
99389.31905236109742
99374.281677870792919
99356.028952754844795
99337.944400209802552
99322.543034154572524
99311.023773255685228
99303.587462465802673
99299.66583584494947
99298.492438318164204
99299.394273990343208
99301.842874102745554
99305.644205326840165
99310.552886204066454
99316.195441204341478
99322.302513421556796
99328.505779764745967
99334.433902578282868
99339.904111392068444
99344.920497999308282
99349.598220101266634
99354.075332741835155
99358.179025562683819
99361.594614803107106
99363.608260993947624
99363.739210231011384
99361.643437898703269
99357.438096256082645
99351.569439180981135
99344.764887598488713
99337.824378311677719
99331.359425796137657
99325.753574997230317
99321.184653482501744
99317.600790048963972
99315.204937939997762
99314.12549576559104
99314.605426294598146
99317.013753758859821
99321.591753303160658
99327.963405712434906
99335.27881251827057
99342.412642760798917
99348.595402487248066
99353.484135543607408
99357.13312412952655
99360.248221493558958
99363.99405706395919
99369.427948582801037
99377.08517969789682
99386.642890704912134
99396.683227413872373
99405.291592940688133
99410.403242984277313
99410.687412835119176
99405.443978083363618
99394.853616670487099
99380.200504343025386
99363.50613342327415
99347.094829248293536
99332.975640974967973
99322.506742639423464
99316.409424530356773
99314.996188615594292
99318.170532396761701
99325.424188676319318
99336.033231830064324
99349.129275777784642
99363.8629456027993
99379.417208226441289
99394.936189944273792
99409.555901530868141
99422.288510393496836
99432.220086543340585
99438.755847131091286
99441.802244152757339
99441.729462713949033
99439.15590522075945
99434.775212932509021
99429.31724315774045
99423.733598148799501
99418.836979162835632
99415.082561098068254
99412.576557868349482
99411.240411789534846
99411.037472202486242
99411.987716532879858
99414.218352480689646
99417.696840361270006
99564.324752765984158
99350.947544378344901
99366.112004789232742
99560.002040255843895
99719.215560472730431
99702.705459338336368
99588.47896549179859
99481.848565165535547
99399.991872130340198
99427.272704944713041
99543.341128976884647
99596.252210339021985
99551.922418034766451
99495.121377482646494
99474.9909345330816
99476.268216054275399
99463.283211284011486
99441.484497463563457
99482.180145966878626
99584.780159747519065
99612.388268624868942
99537.857951680911356
99467.684997450822266
99456.897632898020674
99461.367983114076196
99442.344338722454268
99422.235229017096572
99421.116723740458838
99427.170650553773157
99425.527115226228489
99412.454475661492324
99390.591871169744991
99364.117791969096288
99343.608804680756293
99337.181538070173701
99355.457456325355452
99399.221250813905499
99427.089111878318363
99392.714971474386402
99306.711650237688445
99229.934250876001897
99197.628647159232059
99201.888806049755658
99227.105408357616398
99266.503433439967921
99302.263725891301874
99310.322397432653815
99293.212170967948623
99276.71270012378227
99277.979663642996456
99288.562735112340306
99289.913710218781489
99281.495432261741371
99273.848828366928501
99267.895172787553747
99258.601882475355524
99255.193207204138162
99270.11513452338113
99297.27421221313125
99311.372268406892545
99293.514634497332736
99256.517786415410228
99228.174273873577476
99217.293052694105427
99205.844354229673627
99173.65612494238303
99123.428644458195777
99080.429192057796172
99066.335964521742426
99080.942128789814888
99105.027933879187913
99121.041352771848324
99128.840071810656809
99136.211001348652644
99148.224746530060656
99167.246989793187822
99192.808201463005389
99217.546424512227532
99232.73629829895799
99232.6370296197274
99221.546329093456734
99210.218262090405915
99210.870685781468637
99228.788967800370301
99255.496156880180934
99272.348111030602013
99266.840420929685934
99245.743441116093891
99234.304786344917375
99251.436873184080468
99286.878049479360925
99311.229855875935755
99305.696885281708091
99277.472783649296616
99243.766959513624897
99218.156786563748028
99200.80743176228134
99187.66568408672174
99178.718303596178885
99176.642578301019967
99182.596811425406486
99198.413319468265399
99223.967166499423911
99257.747743452127906
99289.577050597945345
99311.929068125085905
99323.601925287191989
99330.343607737493585
99337.356786820004345
99341.674730096157873
99335.986797637713607
99317.796221192809753
99292.797518141727778
99271.671607299154857
99261.658927807904547
99261.530493220678181
99261.78305122187885
99253.085997846748796
99234.09514573305205
99214.775911452205037
99208.592579682197538
99222.505482558859512
99251.412946838754578
99280.18305862582929
99295.782647312968038
99296.063104148677667
99288.959581854986027
99282.655786988034379
99280.617522790125804
99279.828995506002684
99276.420849852933316
99267.057583024259657
99250.362410368179553
99230.693599081307184
99217.620758813398425
99218.561999976402149
99231.729657965115621
99244.421447304062895
99244.145618880414986
99230.178629077941878
99216.164539904304547
99216.594131339050364
99235.133813934196951
99260.755309370404575
99278.528119197624619
99281.341804839350516
99271.193908180735889
99256.485571344324853
99244.367452228718321
99236.566790702214348
99230.921706256020116
99225.538047549227485
99221.097354019439081
99221.57597622659523
99230.106149131243001
99244.325973899409291
99258.331226402282482
99266.820057465956779
99267.986829883113387
99263.992087193662883
99258.433570303051965
99252.935020278004231
99245.423497255556867
99233.746854450975661
99219.529778467796859
99209.381442611062084
99210.490674293439952
99224.783657415566267
99245.598119402027805
99261.457684455192066
99262.609282587247435
99248.229941157303983
99226.044373896438628
99209.051455198132317
99207.127785527336528
99221.983473265820066
99245.087104581587482
99262.1099063178699
99263.815906720468774
99251.984922403571545
99237.728776561052655
99235.23008830533945
99252.530321612561238
99285.423915731633315
99320.307980687182862
99342.044329778655083
99341.266879874718143
99319.567967912327731
99286.935696795248077
99326.562324116574018
99316.838400155815179
99305.986515299868188
99295.897300709460978
99286.023712219233857
99274.233403090154752
99259.617646167826024
99243.858272537225275
99230.458290194452275
99222.932941830469645
99223.08973749676079
99229.773006612158497
99239.39492074016016
99248.377672840477317
99254.041797064608545
99255.290919116858277
99252.806294858673937
99247.594596823706524
99239.861232249560999
99230.416390476821107
99220.786549527852912
99212.977234547317494
99209.450280813543941
99211.324088973589824
99217.395794393611141
99225.640237961240928
99234.347382517225924
99242.010127296263818
99247.296720404614462
99249.08319456949539
99246.752722462348174
99240.775045630012755
99233.498719847950269
99228.738780485160532
99230.621667491504923
99242.088748519076034
99263.292209959501633
99291.073247666805401
99320.074253824248444
99344.472954656812362
99360.210545442983857
99366.780106875579804
99366.417811023333343
99363.172036041767569
99360.947117098214221
99361.893850909356843
99366.467209942318732
99373.575039149509394
99380.343640862309257
99384.170821333071217
99383.001976941042813
99376.485889764386229
99366.504761754593346
99356.720208819402615
99351.499842346747755
99354.40334160902421
99366.407294524571626
99385.080943751294399
99405.0561913716665
99420.270380014728289
99426.481915204378311
99422.749299705159501
99411.710652117180871
99397.948001700584427
99386.067231996537885
99379.291554379975423
99378.515145531913731
99383.028711464125081
99390.968167918719701
99400.408879663038533
99409.746850816227379
99417.972009814329795
99423.889778311699047
99426.647815153875854
99425.467598576840828
99420.33322334451077
99411.596738604232087
99400.19127496323199
99387.591779624068295
99375.532584933709586
99365.846580312994774
99360.194069205783308
99359.266938081069384
99362.75883282761788
99369.389884651041939
99376.653789296076866
99381.346891904599033
99380.574788268277189
99372.470843412127579
99356.665891029610066
99334.123299699174822
99306.877591994169052
99277.779234498215374
99249.756417483076802
99224.852618629985955
99204.432508641664754
99189.391664662281983
99180.111230088077718
99177.078370108341915
99179.768759206694085
99187.346626059617847
99198.173073609534185
99209.823623573160148
99219.576043747831136
99225.257091698731529
99225.819955483908416
99222.316275373421377
99216.395102628739551
99209.876345466633211
99204.627388567008893
99201.559315631107893
99200.469215528224595
99200.867828479036689
99202.173034816689324
99204.054160160128959
99206.337392224551877
99208.706648686275003
99210.577731059194775
99210.949969544250052
99208.852255847668857
99203.646584326663287
99195.270381796057336
99184.255302547710016
99171.483730029882281
99157.800805206861696
99143.848898057491169
99129.917692568458733
99116.396571291144937
99103.981413644753047
99094.169871374106151
99089.175567139987834
99091.436573803395731
99102.835282640342484
99123.821629740690696
99152.954776219165069
99186.940555104694795
99221.109328353195451
99250.719577772950288
99272.442756675853161
99285.260226304046228
99290.57539844691928
99291.563123509913567
99291.591511039368925
99292.679012013570173
99294.893686946699745
99296.390449751896085
99294.611656019333168
99287.526816992394743
99274.571341861548717
99257.10766219542711
99238.039733390178299
99220.787454477118445
99208.19392866337148
99201.611694737221114
99200.852122631127713
99204.756914582889294
99211.908173179748701
99222.083806757596903
99235.54244529485004
99253.340459074635874
99275.805736717578839
99302.39481917527155
99330.295352757544606
99355.550258122893865
99374.150881669411319
99383.189890304391156
99381.616776856986689
99370.778132346531493
99354.221238983765943
99335.976372157208971
99319.448251510679256
99306.965173347474774
99299.303012756558019
99295.821022762000212
99295.232198870493448
99296.219067178069963
99297.910760932092671
99299.905633955728263
99302.252422312812996
99305.1963482722349
99308.888463353403495
99313.339445625751978
99318.440062424037023
99324.073418725340161
99330.023322073800955
99335.960833772231126
99341.693358452408575
99346.996757116605295
99351.58590661388007
99354.887246608152054
99356.661041780258529
99356.71710376709234
99355.077833873961936
99351.977173614039202
99347.920542665378889
99343.473449211654952
99338.955823174212128
99334.664436139632016
99330.483327313690097
99326.164311813787208
99321.754713151342003
99317.636492587073008
99314.310578419404919
99312.449315290476079
99312.527493463479914
99315.001170612507849
99319.708892942784587
99325.698911950268666
99331.757322135672439
99336.852827167633222
99340.38540183303121
99342.51836620704853
99344.302455116994679
99347.023789423241396
99351.847609828153509
99359.453078379621729
99369.765410240390338
99381.717520260426681
99393.178413654561155
99401.650859792222036
99405.192854600143619
99402.706214898091275
99394.413539128086995
99381.209584053052822
99364.789267293861485
99347.384689941231045
99331.373314104173915
99318.799048158121877
99310.99301825503062
99308.436668664187891
99310.857878826573142
99317.767456586632761
99328.43027164976229
99341.848997944398434
99356.937770150863798
99372.610608648436028
99387.802733954042196
99401.570044914449682
99413.12809409602778
99421.916869978958857
99427.508830724240397
99429.773659057740588
99429.016405838076025
99425.866675137716811
99421.233780847411253
99416.000812822254375
99410.853516827119165
99406.390602268875227
99403.056085055592121
99401.135992899129633
99400.780062746576732
99401.994144008203875
99404.683891373962979
99408.742012106347829
99413.920493771220208
99275.461599217378534
99489.669711939874105
99654.630648626625771
99741.844121878239093
99656.445844509493327
99582.54102434575907
99508.372639492590679
99458.142949936591322
99416.790250958569231
99433.297453597842832
99541.068595474542235
99619.192429397211527
99607.715375472849701
99546.387810864354833
99482.688755734503502
99458.613969459926011
99451.40173312961997
99433.267292140226346
99482.438104175351327
99587.049888380875927
99622.73879211039457
99546.148128018932766
99447.31542572384933
99413.13875561504392
99427.913227530531003
99427.5939588102774
99411.596659772374551
99416.294965101944399
99440.574763775322936
99452.435203153785551
99432.395940959322616
99392.085068612563191
99355.200163102068473
99338.73843971612223
99341.927978613079176
99369.89604424450954
99416.37418911435816
99440.038496886700159
99409.348423871953855
99345.046871428246959
99285.528903936079587
99249.950913942535408
99232.238214782948489
99228.697514724815846
99247.741907962452387
99288.541998213011539
99327.441121660536737
99342.84801514793071
99336.563985604210757
99330.178324074717239
99328.292375576129416
99318.503014065383468
99296.270272637193557
99270.105294983353815
99246.472736998519395
99230.826073334814282
99233.046414028969593
99260.521244640069199
99302.353783926606411
99325.402034074824769
99314.490478725900175
99281.310290308465483
99252.932537700951798
99239.992055639915634
99225.386164914205438
99192.204544725682354
99141.377419015523628
99092.859062299132347
99066.858449559673318
99060.961942979338346
99065.770385756448377
99076.259417655848665
99096.099933937715832
99128.109582515666261
99168.165006961964536
99206.734111402998678
99232.766756598517532
99241.138546869682614
99237.572527482800069
99231.786920577374985
99229.896444669662742
99231.030339516146341
99232.554753166783485
99237.410756929777563
99250.987377508514328
99270.163380133220926
99280.706708128302125
99278.067618650107761
99276.306941830524011
99288.888646101098857
99308.858311710922862
99314.278701525647193
99293.873178612353513
99259.940156575248693
99234.069224863560521
99221.932984523838968
99217.379886916285614
99209.493556481989799
99200.198721416745684
99195.652396580728237
99202.042142184189288
99219.678348600995378
99245.968821320508141
99275.460503758498817
99299.624683503789129
99311.144644820626127
99312.437911372428061
99313.122816442351905
99318.167556264175801
99323.870297319313977
99321.10657472164894
99304.100855927201337
99277.683939433336491
99253.782804085945827
99243.883225471552578
99250.051888897258323
99263.299484857940115
99268.865233972537681
99261.178589996663504
99246.819732770760311
99240.66555763593351
99251.492954648914747
99276.028832219788455
99299.761504726571729
99312.753449626994552
99314.653992712468607
99310.126588914776221
99301.88228384188551
99292.426249341384391
99283.052054643441807
99274.161063588020625
99263.884333338486613
99248.357351018465124
99229.502989007160068
99217.96220588524011
99224.183964542375179
99246.535304157659994
99268.919766193212126
99274.730798739328748
99260.910170531409676
99240.459587819830631
99229.610178300936241
99236.266743586907978
99253.79006712451519
99270.156512291621766
99277.733041079060058
99275.780017562559806
99267.649336798480363
99256.340505879939883
99243.246497984990128
99228.642926709231688
99214.846368663522298
99205.124242782607325
99203.606668129199534
99212.377757952985121
99228.44873433378234
99245.677875884284731
99258.512971610383829
99265.025183022458805
99266.341345677254139
99264.288709998625563
99258.896968905901304
99248.246528791831224
99232.03603942070913
99214.153778646563296
99202.660704786641872
99203.999721249114373
99218.420322698948439
99237.596303747486672
99249.316107198872487
99245.25818484267802
99226.755741616536397
99204.043433637256385
99189.898928861497552
99192.974220996053191
99212.479866997920908
99237.781841068077483
99254.439329905406339
99253.454725206524017
99238.133888963071513
99221.233167887825402
99217.288102745325887
99234.073770020579104
99267.199835201681708
99302.814243914908729
99326.51972756786563
99330.044751284338417
99314.477454087042133
99288.022686246767989
99319.833409529528581
99311.411572904413333
99305.39407263744215
99300.70274793158751
99294.318900781741831
99283.72555814255611
99268.911952886031941
99253.03009538880724
99241.195544318528846
99237.11725747383025
99241.078008670781855
99250.11456947226543
99260.01202167327574
99267.0333195002313
99269.414407481788658
99267.418106829980388
99262.140968399529811
99254.315506932340213
99244.5522372147243
99234.62910410753102
99226.138716213070438
99221.078355513192946
99221.370716819656081
99226.214989282438182
99233.477748625329696
99241.488003740640124
99249.240788580311346
99256.449754680463229
99263.334837232352584
99269.547454888277571
99273.818905198058928
99274.676159375507268
99272.030080272641499
99268.034715983347269
99266.421406357243541
99270.883167776220944
99283.401190328673692
99302.871343993174378
99325.251493119547376
99345.410150270952727
99359.214128490828443
99365.286004705325468
99365.405294949814561
99363.362679295532871
99362.853216168150539
99366.565746534746722
99374.582033224680345
99385.136520403510076
99394.878507712259307
99400.551984873658512
99399.94557690025249
99392.763773660466541
99381.131642759952229
99369.454152976715704
99362.813491779903416
99364.822642251951038
99376.144979659933597
99393.941313309944235
99412.507760933207464
99425.633046625676798
99429.18242153499159
99422.56708054128103
99408.933408360273461
99393.262211316308822
99380.669294716557488
99374.250738523551263
99374.928869840368861
99381.342302218021359
99390.646755788329756
99400.155488055708702
99407.910015829111217
99413.307496599183651
99416.146543436378124
99417.089820388733642
99415.961356851010351
99412.92820567569288
99407.008275868938654
99397.589257170577184
99384.5278383003606
99369.081756465064245
99354.153399033515598
99342.976880878137308
99338.06282331039256
99340.357999097148422
99348.767819923305069
99359.911595498255338
99369.194143268687185
99372.475859464728273
99367.101000361857587
99352.647158432446304
99330.353721891413443
99302.859178130223881
99273.150426185733522
99244.368212373330607
99218.6012468849367
99197.025005269344547
99180.73256295939791
99170.322065228334395
99166.774749945456279
99169.937386463861912
99179.387827739308705
99193.293838898505783
99209.227297216159059
99224.627642105391715
99236.491236944348202
99243.708913678536192
99246.059565985677182
99244.480399057254544
99240.688819943519775
99236.233370112095145
99231.851663164561614
99227.736610575258965
99224.062844942018273
99220.854521113607916
99218.43458862825355
99217.16298564983299
99217.296303337308927
99218.490122374074417
99219.816450429018005
99219.836402984961751
99217.268905027376604
99211.327889298598166
99202.193426860947511
99190.551176937573473
99177.50630566063046
99163.972986203312757
99150.854123615470598
99138.804324820099282
99128.68459590744169
99121.930286674003582
99120.376279613396036
99125.955374040015158
99139.845531348226359
99161.905187387863407
99190.294503791388706
99221.63701495830901
99251.703222694442957
99276.572205729884445
99293.717958661378361
99303.012472113448894
99306.301957060582936
99306.484099804525613
99306.250261006629444
99307.015061473081005
99308.374636627864675
99308.295885359795648
99304.326372740397346
99295.014153633790556
99280.608617077639792
99262.974443222832633
99244.82563595873944
99229.115915788905113
99217.99376752016542
99212.155602952829213
99211.058599974217941
99213.338580655079568
99217.897447143797763
99224.742816846148344
99234.594355300432653
99248.765625909625669
99267.859713693673257
99291.042418439901667
99315.608328583402908
99337.504695896612247
99352.667172906483756
99358.413405091312598
99354.279539853276219
99342.285000728734303
99326.082566499128006
99310.016093357888167
99297.293488185692695
99289.667328364681453
99287.19454678868351
99288.54078360296262
99291.855117162223905
99295.471225464265444
99298.384718024099129
99300.31222503259778
99301.595918954524677
99302.986759661886026
99304.964388164284173
99307.895379958630656
99311.808900600342895
99316.60859052282467
99322.13210969157808
99327.998868364215014
99333.777999808997265
99339.006637607861194
99343.373043720479473
99346.569222935664584
99348.286714203946758
99348.413416118564783
99347.155050575427595
99344.901628975276253
99342.144979825316113
99339.173607866527163
99336.317100151238265
99333.501765744324075
99330.562518709237338
99327.247026344004553
99323.451219072099775
99319.379497354486375
99315.603311999511789
99312.858925676773652
99311.695171556886635
99312.303681206336478
99314.56416048934625
99317.741173552945838
99320.926438133014017
99323.38736626834725
99324.63921646217932
99325.006819234433351
99325.566770815465134
99327.677406615373911
99332.652706881141057
99341.133940837084083
99352.817979407322127
99366.472216644702712
99380.157528158830246
99391.639183399733156
99398.517569854142494
99399.309380178805441
99393.564197529980447
99382.167330284573836
99366.874464608365088
99349.875880921754288
99333.428402867706609
99319.630678105910192
99310.115843874911661
99305.899114514293615
99307.125699117153999
99313.17568491709244
99322.974663789689657
99335.399651644664118
99349.298051097997813
99363.622163760301191
99377.337867492620717
99389.670849885980715
99399.879485709112487
99407.508487396145938
99412.290925112989498
99414.169873798760818
99413.448126645002048
99410.736982823582366
99406.822606854562764
99402.408812151668826
99398.188516766007524
99394.67051165351586
99392.167093228417798
99390.903756853775121
99391.00128024800506
99392.576439067575848
99395.625679345015669
99400.120942710258532
99405.909551901728264
99412.589699629155803
99519.292430495057488
99542.303500890731812
99609.620945737260627
99504.975127463621902
99487.10339784550888
99465.802006875499501
99446.461088579642819
99547.887741844679113