/*--------------------------------*- C++ -*----------------------------------*\
  =========                 |
  \\      /  F ield         | OpenFOAM: The Open Source CFD Toolbox
   \\    /   O peration     | Website:  https://openfoam.org
    \\  /    A nd           | Version:  12
     \\/     M anipulation  |
\*---------------------------------------------------------------------------*/
FoamFile
{
    format      ascii;
    class       volScalarField;
    location    "0.0155";
    object      pPrime2Mean;
}
// * * * * * * * * * * * * * * * * * * * * * * * * * * * * * * * * * * * * * //

dimensions      [2 -2 -4 0 0 0 0];

internalField   nonuniform List<scalar> 
75962
(
1261997.3592739105225
1241288.7123641967773
1232752.3717365264893
1227002.0500106811523
1222681.876443862915
1219117.641716003418
1215871.756519317627
1212777.0610160827637
1209812.8949794769287
1206947.3785095214844
1204168.6210994720459
1201467.6906223297119
1198845.184268951416
1196320.4652576446533
1193955.9322662353516
1191777.2179584503174
1189762.5192966461182
1187881.4971733093262
1186087.016206741333
1184340.7908115386963
1182615.4659290313721
1180888.7272109985352
1179169.9676456451416
1177489.4457035064697
1175893.0451774597168
1174415.294454574585
1173069.7493858337402
1171875.5630016326904
1170845.3565711975098
1169952.0330410003662
1169158.0281448364258
1168438.7452259063721
1167769.1120662689209
1167123.7720146179199
1166480.9347267150879
1165827.9610042572021
1165158.0095520019531
1164475.7240734100342
1163776.5259628295898
1163061.0791397094727
1162333.8325901031494
1161596.6960182189941
1160851.0931549072266
1160093.486536026001
1159316.7615089416504
1158511.1617336273193
1157663.4744606018066
1156763.4042701721191
1155813.1930732727051
1154819.8734531402588
1153784.9601001739502
1152708.9925022125244
1151589.0208206176758
1150426.4271755218506
1149235.6251945495605
1148027.951000213623
1146808.7886543273926
1145587.9464130401611
1144376.1678237915039
1143184.1189460754395
1142021.9163684844971
1140894.246561050415
1139800.2804336547852
1138732.207592010498
1137677.9427185058594
1136627.7017402648926
1135572.620584487915
1134509.6527156829834
1133442.0129222869873
1132373.4028224945068
1131306.0859394073486
1130235.4975852966309
1129148.7908039093018
1128040.5329399108887
1126914.5068340301514
1125775.5077705383301
1124628.964750289917
1123478.6681270599365
1122326.6797199249268
1121169.0965118408203
1120001.3155937194824
1118826.2335071563721
1117652.8473739624023
1116488.1959648132324
1115333.0681591033936
1114182.4284248352051
1113031.9543972015381
1111883.5069217681885
1110745.712890625
1109630.8709316253662
1108546.3696327209473
1107489.7718658447266
1106452.8045673370361
1105430.7437553405762
1104428.2706394195557
1103453.386775970459
1102507.9357261657715
1101583.3068618774414
1100669.8238143920898
1099760.3539638519287
1098851.8627643585205
1097944.6682357788086
1097040.981294631958
1096141.3608932495117
1095243.053201675415
1094342.6118545532227
1093436.8906764984131
1092521.7543201446533
1091592.1003284454346
1090642.6783428192139
1089668.4947605133057
1088667.4612941741943
1087638.7044982910156
1086580.6799125671387
1085490.9669342041016
1084365.9905395507812
1083204.2466888427734
1082004.8476715087891
1080765.5572299957275
1079484.4595489501953
1078163.2357616424561
1076808.2926864624023
1075429.7169551849365
1074035.219856262207
1072626.6724662780762
1071203.234411239624
1069765.6367034912109
1068318.4306488037109
1066868.0642337799072
1065420.336181640625
1063981.9910507202148
1062561.6387405395508
1061166.6164226531982
1059800.7260284423828
1058463.5698356628418
1057154.1364269256592
1055873.3555679321289
1054623.6167659759521
1053408.0945453643799
1052229.0395393371582
1051086.6247081756592
1049980.2549419403076
1048908.2742691040039
1047864.9914855957031
1046840.4289417266846
1045823.5289440155029
1044806.6092624664307
1043785.3388137817383
1042756.9754219055176
1041718.5980949401855
1040665.688138961792
1039592.8237590789795
1038496.6296310424805
1037376.8934574127197
1036234.9333209991455
1035070.8744888305664
1033884.2667236328125
1032675.9012298583984
1031447.9225997924805
1030201.9128952026367
1028937.1527900695801
1027651.0978240966797
1026343.4951000213623
1025019.3470554351807
1023686.4865913391113
1022349.7747821807861
1021009.5561466217041
1019664.6357498168945
1018317.4731502532959
1016975.0095977783203
1015643.2960052490234
1014321.8093662261963
1013005.0429382324219
1011689.3249912261963
1010377.6986293792725
1009079.063362121582
1007803.5248641967773
1006557.1999530792236
1005340.4937763214111
1004150.2411136627197
1002981.7585544586182
1001831.7923221588135
1000700.3279514312744
999591.33819007873535
998509.87682151794434
997457.47760200500488
996429.67950820922852
995417.80852317810059
958539.12376022338867
957641.62273979187012
956737.73967742919922
955823.81123352050781
954898.61854553222656
953964.0207347869873
953022.15879440307617
952072.06690216064453
951110.00346374511719
950133.13924407958984
949142.08399391174316
948140.85754585266113
947135.1793270111084
946130.14795303344727
945128.15364074707031
944127.2077465057373
943122.16682815551758
942107.1298713684082
941077.80756759643555
940032.1216983795166
938970.27905464172363
937893.47161102294922
936803.09053611755371
935700.89968299865723
934590.02263450622559
933474.76885795593262
932358.65752410888672
931242.76193428039551
930126.36999130249023
929009.52574729919434
927894.13162803649902
926783.32528686523438
925681.06380462646484
924592.21364784240723
923522.2196044921875
922475.60923957824707
921454.25884437561035
920455.63470077514648
919473.32941627502441
918499.32222175598145
917527.69644355773926
916557.31763076782227
915591.63424682617188
914635.77653121948242
913693.96947288513184
912767.28319549560547
911853.34761238098145
910947.68852043151855
910046.10779762268066
909147.49717712402344
908254.44002723693848
907371.79630279541016
906503.26623344421387
905648.6669864654541
904803.28623008728027
903959.31166458129883
903109.17147254943848
902248.89889526367188
901379.63568115234375
900506.29511260986328
899633.56331062316895
898762.3931884765625
897889.65268135070801
897010.62434959411621
896122.33931350708008
895224.99706268310547
894320.84268569946289
893412.47296905517578
892501.03967666625977
891586.26566123962402
890667.84561157226562
889746.40009880065918
888822.90467262268066
887897.11106872558594
886967.517822265625
886032.45206069946289
885090.86734199523926
884142.83130073547363
883189.25593185424805
882231.90111923217773
881272.70093727111816
880312.26257133483887
879348.61302375793457
878377.31768035888672
877393.75703430175781
876395.32090950012207
875382.71124649047852
874359.48673820495605
873330.00680160522461
872296.69232177734375
871258.27280235290527
870211.53828811645508
869154.64120292663574
868089.61606788635254
867021.61646461486816
865956.10917472839355
864895.72640991210938
863839.05517959594727
862782.3616886138916
861722.61167144775391
860659.95650863647461
859597.81332588195801
858541.08834457397461
857494.34571266174316
856460.5529842376709
855439.93913078308105
854430.47011375427246
853429.3110179901123
852434.5207576751709
851445.35993576049805
850461.87862586975098
849484.90631484985352
848516.53824043273926
847559.56577110290527
846615.85732650756836
845685.09343910217285
844765.04397964477539
843853.32042503356934
842949.25718307495117
842054.10646629333496
841169.50177764892578
840295.67102813720703
839431.17498207092285
838574.22610664367676
837723.57562828063965
836878.36661720275879
836037.26189804077148
835197.80792427062988
834356.92366027832031
833512.27114677429199
832664.02071380615234
831815.2553882598877
830970.33294486999512
830132.27704048156738
829300.57453155517578
828471.44559097290039
827639.32366371154785
826798.52912902832031
825944.07810020446777
825072.44450569152832
824182.31744766235352
823275.16313934326172
822355.09874725341797
821427.61807823181152
820497.63825988769531
819567.67531776428223
818637.51506423950195
817705.02931213378906
816767.90431022644043
815824.41293144226074
814873.12825775146484
813912.25266075134277
812939.89282417297363
811955.10536003112793
810959.28530120849609
809956.09627342224121
808949.89266967773438
807944.34649276733398
806942.1754322052002
805945.89785766601562
804958.28058242797852
803982.24302291870117
803019.48044013977051
802069.3910083770752
801128.91926574707031
800194.18053436279297
799262.31609153747559
798332.39482116699219
797405.18219757080078
796482.34558486938477
795565.77364540100098
794657.38416481018066
793759.1135425567627
792872.70675277709961
791999.33991241455078
791139.39628982543945
790292.27703666687012
789456.93819046020508
788632.34333419799805
787817.95951080322266
787013.79064178466797
786220.00006294250488
785436.38300132751465
784661.99506568908691
783895.00327110290527
783132.83304214477539
782372.64906692504883
781612.16531181335449
780850.45525169372559
780088.30340194702148
779327.5328369140625
778569.58944320678711
777814.51310539245605
777061.10671615600586
776308.15039825439453
775555.58683776855469
774804.73353004455566
774057.35306358337402
773314.32817268371582
772574.79448127746582
771836.29179954528809
771095.76162719726562
770350.69982528686523
769600.06166458129883
768844.54892539978027
768085.99571990966797
767326.27312088012695
766566.21251106262207
765804.99615669250488
765040.20368576049805
764268.48628234863281
763486.67484283447266
762692.99619293212891
761887.80757331848145
761073.21278762817383
760251.63180351257324
759424.27434349060059
758590.65884017944336
757749.18820190429688
756898.37797164916992
756037.73171997070312
755168.15706443786621
754292.0716552734375
753413.1305046081543
752535.52466201782227
751662.90472030639648
750797.31243705749512
749938.76315879821777
749085.3707160949707
748233.85616302490234
747380.6667308807373
746523.50965118408203
745662.60540962219238
744800.96379089355469
743943.32940292358398
743094.21377563476562
742256.15369987487793
741428.97035026550293
740610.36863136291504
739797.24841499328613
738986.90876197814941
738177.94175148010254
737370.59857368469238
736566.74246215820312
735769.22945022583008
734980.80296325683594
734203.12236213684082
733436.30803871154785
732679.2895565032959
731930.49961853027344
731188.42626953125
730451.88740921020508
729720.21144866943359
728993.21792793273926
1272876.441234588623
1248507.1281089782715
1238294.5891819000244
1230917.4203014373779
1225356.3177337646484
1220991.2553520202637
1217368.5927906036377
1214163.7247295379639
1211148.5724601745605
1208200.713171005249
1205276.1309680938721
1202407.0095653533936
1199606.8179225921631
1196888.0914306640625
1194294.8042392730713
1191875.2493343353271
1189648.8053932189941
1187601.0449028015137
1185729.8705215454102
1184010.9650135040283
1182386.3628559112549
1180801.1713390350342
1179227.0368061065674
1177663.538122177124
1176117.1709289550781
1174604.9766712188721
1173154.4381637573242
1171794.4242610931396
1170570.7495613098145
1169506.3760986328125
1168594.1545639038086
1167818.0782337188721
1167154.7819156646729
1166566.473180770874
1166016.847900390625
1165476.9390506744385
1164926.1626434326172
1164346.3589515686035
1163718.0402297973633
1163029.2822380065918
1162282.7470169067383
1161491.5496044158936
1160667.6162796020508
1159817.6837635040283
1158942.4763469696045
1158041.0128612518311
1157111.9770908355713
1156152.083776473999
1155158.212911605835
1154130.3049812316895
1153068.78125
1151971.5060329437256
1150840.2462177276611
1149675.6762542724609
1148482.3590850830078
1147264.2996635437012
1146027.1954116821289
1144779.1196174621582
1143533.855920791626
1142309.6308975219727
1141122.6951427459717
1139986.9455451965332
1138906.4769477844238
1137873.5850925445557
1136874.9082794189453
1135894.1033344268799
1134918.2827587127686
1133940.2400226593018
1132959.3802280426025
1131975.9993000030518
1130985.86208152771
1129975.0013008117676
1128931.6152496337891
1127857.9155693054199
1126765.4152069091797
1125662.8926677703857
1124552.025842666626
1123430.5806407928467
1122295.5458583831787
1121144.6796875
1119978.6859378814697
1118805.399772644043
1117637.4473476409912
1116482.5917949676514
1115337.73459815979
1114194.5664386749268
1113049.8389759063721
1111908.8048992156982
1110782.6299171447754
1109683.6395282745361
1108618.4338321685791
1107582.1480369567871
1106563.5463829040527
1105555.0886554718018
1104559.3209190368652
1103585.7752552032471
1102638.9601306915283
1101713.9518051147461
1100800.9286231994629
1099889.9278411865234
1098974.0361080169678
1098051.1858997344971
1097125.6938419342041
1096202.6038074493408
1095282.1428298950195
1094360.6312980651855
1093433.8193168640137
1092498.0118141174316
1091550.0791721343994
1090586.1218528747559
1089601.6434364318848
1088591.9953079223633
1087553.3079929351807
1086482.4018306732178
1085377.5635948181152
1084239.7617568969727
1083072.1591129302979
1081874.7153511047363
1080641.3539981842041
1079365.9559631347656
1078047.531774520874
1076692.4702453613281
1075311.2642841339111
1073912.4579029083252
1072499.5584545135498
1071071.4501438140869
1069626.9909381866455
1068168.8597774505615
1066703.0033302307129
1065236.6635646820068
1063778.5402927398682
1062337.0830612182617
1060919.0281181335449
1059526.5148773193359
1058158.7821197509766
1056817.5072441101074
1055507.5910396575928
1054233.6820583343506
1052997.80299949646
1051799.640718460083
1050637.1419525146484
1049509.2929821014404
1048415.957540512085
1047352.6057796478271
1046308.0063629150391
1045270.0440444946289
1044232.0581531524658
1043192.7871780395508
1042151.4051952362061
1041104.7661037445068
1040047.2580871582031
1038972.9693374633789
1037878.8356018066406
1036765.6743431091309
1035635.0211868286133
1034486.110200881958
1033317.6157665252686
1032130.2123432159424
1030926.9872722625732
1029710.5039386749268
1028479.8265476226807
1027231.4150352478027
1025963.6825771331787
1024679.7489013671875
1023385.4520721435547
1022084.9204597473145
1020779.2459964752197
1019467.2358245849609
1018149.6318740844727
1016830.5565280914307
1015514.1352138519287
1014200.750732421875
1012888.6363773345947
1011577.7188453674316
1010272.9977703094482
1008982.6139125823975
1007713.9726810455322
1006471.1719436645508
1005254.4184551239014
1004061.1161422729492
1002887.455150604248
1001731.1052780151367
1000592.5216274261475
999475.20631408691406
998384.06542015075684
997321.35253524780273
996283.83454322814941
995263.5624942779541
994251.83690071105957
959384.91711044311523
958481.78566932678223
957578.40820693969727
956669.94983863830566
955752.32264709472656
954824.37397956848145
953887.94227981567383
952945.2369499206543
951994.93323707580566
951032.57946014404297
950054.86233520507812
949062.40529251098633
948060.33980941772461
947056.08980751037598
946055.44560241699219
945059.87054824829102
944065.47128868103027
943064.75042152404785
942051.00838470458984
941020.13536643981934
939971.51886749267578
938907.31060218811035
937830.45000267028809
936743.21238708496094
935646.92517852783203
934542.91033363342285
933433.41757392883301
932320.9361572265625
931206.56112289428711
930090.02469062805176
928972.0906982421875
927855.03061485290527
926742.48128890991211
925638.70383071899414
924548.81133651733398
923478.60462379455566
922432.69698905944824
921412.16631889343262
920413.50151252746582
919429.4453125
918451.96304321289062
917476.07570266723633
916501.62544822692871
915532.78906631469727
914574.70357894897461
913630.66680335998535
912700.24106979370117
911779.51938056945801
910863.21648216247559
909947.41810989379883
909031.86745071411133
908120.60688972473145
907220.42749977111816
906336.67116546630859
905469.44174385070801
904612.8502140045166
903757.72408866882324
902895.95934104919434
902023.93584060668945
901143.01605033874512
900256.84463119506836
899368.30347061157227
898477.30287170410156
897581.51323318481445
896678.76857566833496
895768.47363662719727
894851.68669319152832
893930.34239196777344
893006.1420841217041
892079.79298782348633
891150.8809986114502
890219.06012725830078
889285.29544067382812
888351.1853084564209
887416.9000244140625
886480.40803146362305
885538.76288032531738
884590.0180549621582
883634.07615661621094
882672.57622528076172
881708.3138370513916
880743.87021446228027
879779.81896209716797
878813.48589515686035
877839.26212692260742
876851.54547691345215
875847.66960144042969
874829.24297523498535
873800.56967926025391
872766.10893821716309
871728.08945465087891
870685.26840591430664
869634.4954891204834
868573.87046432495117
867505.02756309509277
866433.30758476257324
865364.52739143371582
864301.82574272155762
863243.88738059997559
862186.72892570495605
861127.03214836120605
860064.85668754577637
859003.93967437744141
857949.59991836547852
856906.48013496398926
855877.03823471069336
854861.16239738464355
853857.06538772583008
852862.71124458312988
851877.20925331115723
850900.35961532592773
849931.79467582702637
848970.96685981750488
848018.20739555358887
847075.11905288696289
846143.44402503967285
845223.69205665588379
844314.42590522766113
843413.6007137298584
842520.7734375
841637.70122528076172
840766.6715202331543
839908.18866729736328
839060.45715713500977
838220.77865600585938
837387.06078338623047
836558.16205024719238
835732.84651565551758
834908.97114181518555
834083.62084197998047
833254.57345008850098
832421.60283660888672
831586.92664909362793
830754.08059310913086
829925.73810386657715
829102.24044609069824
828281.26467895507812
827458.67366218566895
826629.53167343139648
825788.74124145507812
824932.14685249328613
824057.29908752441406
823164.36408424377441
822256.32487678527832
821337.92281341552734
820413.82583045959473
819486.91569900512695
818557.83531188964844
817625.70809745788574
816689.33718681335449
815747.48565101623535
814798.4380931854248
813840.01070976257324
812870.29931259155273
811888.78828811645508
810897.22457504272461
809899.09724235534668
808898.42185401916504
807898.81342506408691
806903.52114677429199
805915.58638763427734
804937.5792236328125
803971.22027397155762
803016.54939460754395
802071.86589241027832
801134.50327301025391
800202.25644302368164
799274.12705039978027
798350.38655090332031
797431.62314987182617
796518.26827049255371
795610.6756477355957
794709.57990455627441
793816.33579444885254
792932.64007377624512
792060.18540191650391
791200.07602882385254
790352.38653564453125
789516.48138236999512
788691.32426261901855
787876.18649291992188
787070.74235725402832
786274.75543975830078
785487.6368408203125
784708.09399795532227
783934.26264762878418
783163.87225914001465
782394.44633293151855
781623.85005760192871
780851.14342498779297
780077.2464542388916
779304.57110786437988
778535.55621147155762
777771.18144416809082
777010.50530815124512
776251.55466461181641
775492.78242492675781
774734.15348625183105
773977.05519676208496
773223.13518333435059
772472.97628974914551
771725.46092414855957
770978.14988327026367
770228.55834007263184
769475.24544525146484
768718.16875648498535
767958.22070121765137
767196.31665229797363
766432.65853118896484
765666.38125038146973
764895.51634407043457
764117.32546806335449
763328.91689491271973
762528.38212585449219
761715.87865829467773
760893.58039093017578
760064.35973167419434
759230.1098747253418
758390.82505798339844
757544.82128143310547
756689.80839157104492
755824.2053165435791
754947.94113349914551
754062.68335342407227
753171.6047248840332
752278.90857124328613
751389.16429138183594
750506.33957481384277
749632.71029281616211
748767.76865577697754
747908.07860565185547
747048.57191848754883
746184.86495971679688
745315.2234935760498
744441.17071914672852
743566.69134330749512
742696.50347900390625
741834.5217113494873
740982.89570808410645
740141.81075668334961
739309.83821487426758
738484.58625984191895
737663.3850040435791
736844.12226104736328
736026.08149337768555
735210.34371566772461
734399.48964500427246
733596.42156982421875
732803.28709411621094
732021.07901191711426
731249.95570945739746
730489.62114143371582
729739.5474967956543
728998.88953399658203
728266.36656379699707
1255215.0150318145752
1239000.8836326599121
1231739.0451812744141
1225617.6676750183105
1220606.6141662597656
1216605.6364974975586
1213407.9170913696289
1210754.6889686584473
1208385.5712089538574
1206108.3166427612305
1203810.793550491333
1201437.1433715820312
1198988.4499664306641
1196517.1831817626953
1194050.94655418396
1191645.3612823486328
1189358.0246334075928
1187223.5647010803223
1185265.9855327606201
1183481.7648544311523
1181828.2176628112793
1180248.7810325622559
1178694.9691047668457
1177162.9880714416504
1175669.2942199707031
1174231.9538326263428
1172858.9510459899902
1171561.2670269012451
1170358.8639030456543
1169269.2956466674805
1168307.0029678344727
1167467.2537403106689
1166745.4752044677734
1166114.5486679077148
1165535.8334426879883
1164984.0094299316406
1164443.9854335784912
1163899.2641181945801
1163329.8746585845947
1162703.5513858795166
1162002.9782848358154
1161234.8903121948242
1160409.9167346954346
1159534.3080368041992
1158616.3028888702393
1157661.2850189208984
1156675.9654636383057
1155670.4449787139893
1154642.3728218078613
1153581.6933994293213
1152485.6791706085205
1151356.4329452514648
1150199.7513389587402
1149020.7599830627441
1147820.0841846466064
1146593.5920372009277
1145340.8769111633301
1144070.5440330505371
1142799.2396259307861
1141548.9015731811523
1140334.8638896942139
1139167.3921756744385
1138052.7840099334717
1136991.048225402832
1135972.4536228179932
1134983.2075595855713
1134011.9475040435791
1133055.9476623535156
1132113.1923027038574
1131177.6336135864258
1130239.7879028320312
1129280.2936935424805
1128287.8330097198486
1127269.8363647460938
1126240.366231918335
1125208.5576725006104
1124169.9807319641113
1123116.0595893859863
1122037.9422721862793
1120931.180871963501
1119798.1180896759033
1118650.5983905792236
1117502.9832286834717
1116360.8367538452148
1115219.9057636260986
1114074.8505554199219
1112926.4860725402832
1111784.264181137085
1110660.8540325164795
1109566.4095420837402
1108505.7829780578613
1107474.3451747894287
1106459.5448455810547
1105452.5181274414062
1104454.7980861663818
1103477.5483589172363
1102528.9382362365723
1101603.4268932342529
1100688.1285209655762
1099770.7880897521973
1098844.534309387207
1097909.0133419036865
1096968.2017345428467
1096028.6921653747559
1095092.3067607879639
1094154.0075836181641
1093206.8894500732422
1092248.9178714752197
1091282.2337894439697
1090306.9885120391846
1089318.5356712341309
1088308.1189022064209
1087268.2891654968262
1086193.8424053192139
1085084.1272106170654
1083944.3805694580078
1082782.4026069641113
1081598.8068466186523
1080384.5948657989502
1079128.6044044494629
1077827.6477851867676
1076488.2070083618164
1075119.8061904907227
1073730.0193729400635
1072322.4580898284912
1070897.2292919158936
1069453.482084274292
1067992.7359085083008
1066520.0631980895996
1065043.3792686462402
1063571.815465927124
1062114.3649387359619
1060677.3088264465332
1059261.7532157897949
1057867.6971645355225
1056498.6447639465332
1055161.4018650054932
1053861.7467880249023
1052600.5918788909912
1051376.7578620910645
1050188.2960147857666
1049033.9149723052979
1047913.0080299377441
1046820.5310325622559
1045745.2911357879639
1044676.4426403045654
1043609.7534713745117
1042547.1576251983643
1041489.6571826934814
1040433.4698734283447
1039371.1582508087158
1038295.6391735076904
1037204.5865783691406
1036099.1192531585693
1034980.5443267822266
1033848.2499465942383
1032701.7592010498047
1031542.5253314971924
1030373.4905090332031
1029196.6190223693848
1028010.2233943939209
1026810.271993637085
1025595.0715847015381
1024366.6233234405518
1023128.3980979919434
1021882.4431324005127
1020628.1914901733398
1019363.6233234405518
1018088.2615642547607
1016804.3776531219482
1015515.5333003997803
1014223.4723968505859
1012929.2772789001465
1011635.631742477417
1010347.4701976776123
1009070.5069026947021
1007809.1240615844727
1006566.4940872192383
1005344.1159648895264
1004141.5439033508301
1002957.3729057312012
1001790.6816997528076
1000641.427562713623
999511.75766944885254
998405.20265007019043
997324.30789947509766
996267.37687110900879
995228.49815940856934
994201.06674766540527
959327.83909606933594
958413.54488372802734
957500.46688270568848
956582.529296875
955654.97701072692871
954717.12298965454102
953772.01861572265625
952822.76297760009766
951868.33173179626465
950903.81009864807129
949924.93981552124023
948931.64036178588867
947928.75609970092773
946923.55750846862793
945921.90488433837891
944925.02046585083008
943928.72674942016602
942925.76246643066406
941909.23983192443848
940875.15165710449219
939823.74609184265137
938758.19521331787109
937682.98719024658203
936601.80170440673828
935516.43244934082031
934426.98275947570801
933333.36065292358398
932235.7987232208252
931134.58765411376953
930029.97526168823242
928923.2813720703125
927817.27899169921875
926715.64683532714844
925622.35526466369629
924541.62317276000977
923478.04961585998535
922435.73040390014648
921415.63097190856934
920414.11271667480469
919424.01694297790527
918438.49906921386719
917454.70931434631348
916474.03496551513672
915500.65221977233887
914538.7391357421875
913590.01543045043945
912652.06292152404785
911719.54790115356445
910787.0689868927002
909851.8344898223877
908915.39662742614746
907983.28606414794922
907063.1712760925293
906160.84964370727539
905276.14689445495605
904402.29769897460938
903529.64105606079102
902650.62553596496582
901762.67869186401367
900867.21920013427734
899966.28677177429199
899060.26480865478516
898148.27350234985352
897229.71084403991699
896305.14457321166992
895375.6702766418457
894442.15936660766602
893505.36371994018555
892566.01218795776367
891624.59634208679199
890681.3144645690918
889736.2473087310791
888790.57099723815918
887845.85686683654785
886902.26070785522461
885957.54311180114746
885008.41023826599121
884052.92734909057617
883091.11135864257812
882124.95971488952637
881157.28378295898438
880190.44219398498535
879224.35701751708984
878255.83567237854004
877279.30244445800781
876289.55505561828613
875284.56667518615723
874266.24818992614746
873238.51604843139648
872204.87026786804199
871166.79750061035156
870123.41952705383301
869072.62159156799316
868013.1885986328125
866946.40921592712402
865876.55000686645508
864809.06827163696289
863747.46951675415039
862691.35612106323242
861637.35266304016113
860582.24868202209473
859526.19621467590332
858472.90755081176758
857427.3347282409668
856393.16337966918945
855371.47909355163574
854361.59157371520996
853362.47323417663574
852374.03497695922852
851397.12453460693359
850432.13518142700195
849477.90086936950684
848532.20361137390137
847593.79340744018555
846663.46391105651855
845743.41442680358887
844835.29137229919434
843938.72335433959961
843052.16791343688965
842174.85519790649414
841307.69647598266602
840452.39539527893066
839609.37433052062988
838777.10021591186523
837953.01394271850586
837134.90966415405273
836321.36199760437012
835510.56808853149414
834699.95549011230469
833886.79126739501953
833069.43993949890137
832248.02520179748535
831424.19893455505371
830600.24793243408203
829778.07672882080078
828958.58537101745605
828141.00679016113281
827322.98360252380371
826501.01589965820312
825670.55766487121582
824826.96370887756348
823966.47782135009766
823087.60223197937012
822192.02400207519531
821283.79863548278809
820367.45594024658203
819446.20261383056641
818521.2597827911377
817592.51729393005371
816659.16540718078613
815719.79190826416016
814772.21397018432617
813814.33842277526855
812845.39518356323242
811866.58086013793945
810880.76841354370117
809891.36832618713379
808901.44802093505859
807913.66830635070801
806930.77663612365723
805955.51786422729492
804989.89327812194824
804034.52144241333008
803088.3137092590332
802149.0882625579834
801214.69359970092773
800284.16324043273926
799357.99030876159668
798437.37603569030762
797523.26711273193359
796615.91558647155762
795715.11462211608887
794820.62523078918457
793932.40466499328613
793050.93156051635742
792177.30870819091797
791313.09465408325195
790459.78559112548828
789618.18015480041504
788788.12026023864746
787968.71935272216797
787158.5982723236084
786356.31608772277832
785560.50280952453613
784769.81452369689941
783983.1351375579834
783199.36247825622559
782417.06137657165527
781634.67959022521973
780851.33971786499023
780067.59903717041016
779285.41642379760742
778507.00719451904297
777733.57253265380859
776964.60004997253418
776198.32963752746582
775432.76862525939941
774666.70727348327637
773900.24129867553711
773134.44201469421387
772370.55770301818848
771609.17268562316895
770849.84756660461426
770091.39955711364746
769332.47649383544922
768572.12016487121582
767809.72407722473145
767044.77749633789062
766276.68100357055664
765504.65716934204102
764727.47086906433105
763943.09875869750977
763148.98407554626465
762343.13205337524414
761525.27579307556152
760697.23113441467285
759861.86404800415039
759021.39370918273926
758176.17058563232422
757324.62916374206543
756464.35229301452637
755593.47160911560059
754711.6726245880127
753820.25101852416992
752921.58020973205566
752018.71975898742676
751115.60040664672852
750216.82870101928711
749326.58522796630859
748446.58817291259766
747574.91132736206055
746706.78308868408203
745836.85665893554688
744961.64616775512695
744080.63488960266113
743195.90631675720215
742310.96157646179199
741429.58411598205566
740554.98666191101074
739689.3911018371582
738833.82895469665527
737988.02988433837891
737150.41559982299805
736318.4984016418457
735489.95139694213867
734663.7658634185791
733840.76789093017578
733023.04834747314453
732212.83394050598145
731411.72024345397949
730620.67871284484863
729840.54107284545898
729072.2309398651123
728316.37519836425781
727572.65623474121094
726839.40574264526367
1266984.3587188720703
1245007.7152137756348
1235234.0045223236084
1227704.6847858428955
1221517.7804756164551
1216465.7085857391357
1212378.5609092712402
1209073.8142070770264
1206333.4314842224121