/*--------------------------------*- C++ -*----------------------------------*\
  =========                 |
  \\      /  F ield         | OpenFOAM: The Open Source CFD Toolbox
   \\    /   O peration     | Website:  https://openfoam.org
    \\  /    A nd           | Version:  12
     \\/     M anipulation  |
\*---------------------------------------------------------------------------*/
FoamFile
{
    format      ascii;
    class       volScalarField;
    location    "0.0155";
    object      rho;
}
// * * * * * * * * * * * * * * * * * * * * * * * * * * * * * * * * * * * * * //

dimensions      [1 -3 0 0 0 0 0];

internalField   nonuniform List<scalar> 
75962
(
1.1514860430705939898
1.1517584185738949376
1.1511007034199784993
1.1504580428491439914
1.1517426995989188399
1.152529222133653608
1.1525441533838900465
1.1526037127304644692
1.1520516829495972555
1.1512336066791870604
1.1511166177710900893
1.1517345467630710765
1.1523604007231946778
1.1526081100730316553
1.1527862981965542044
1.1531618633587552569
1.153281658948345445
1.1529153413449260146
1.1528344015382026022
1.1532223210886358711
1.1532638251872018298
1.1528113946538514067
1.1526979896493081412
1.1532728797276099453
1.1537357000572523447
1.1535894002389643909
1.1531692751280457898
1.1528961329771474364
1.1527950339127202017
1.152880448435785965
1.1531973265637700532
1.153530959627647734
1.1536143661712277009
1.1533129806944142359
1.1527527074036041377
1.1523098256915402793
1.1523491281273903208
1.1527297884599065902
1.1529667805372341149
1.1528083907050787893
1.1524692403232148497
1.1522875275035946441
1.1523142040457166058
1.152502806351624276
1.1528412480935288364
1.1531860233877260224
1.153310079524442644
1.1532171334014893471
1.1531959758039393993
1.1532645298602308692
1.1531906607678799048
1.152871568403642355
1.1525164851595270932
1.1523654103334293186
1.1523971386510691861
1.1524823529493648522
1.1526486749571298596
1.1529562025868214103
1.1533069700183236073
1.1534447674114050031
1.1532422929573138415
1.1528855452841142437
1.1526755402553914287
1.1527284257233283427
1.1529077980633299916
1.1529607828651198265
1.1527813834757301148
1.1524794344806288393
1.1522621878271783746
1.1522309573246962699
1.1522825135202234836
1.1522751970670963573
1.152157625769080207
1.1519636355832634234
1.1518038419929468308
1.1518243222638808732
1.1521231995004692639
1.1526167158086502162
1.1530939238136166392
1.15335406540746499
1.1533488069505857254
1.1532162930769425113
1.1531601908942874513
1.1532956906819507026
1.1535796344894448939
1.1538321315799635602
1.1539106581453404399
1.1538355986065764736
1.1537596671878078691
1.1537995039190256374
1.1538847038048012372
1.1538413880036053616
1.1535938753090733133
1.1532415620091742703
1.152949179839892313
1.15279728066386844
1.1527614362108522528
1.1528073262265838839
1.1529152494979539867
1.153049426739884753
1.1531863957034054202
1.1533116586905838297
1.1534556490531782114
1.1536491214185693455
1.153887717145289038
1.15413099509455086
1.1543702761088092679
1.1545772842754007392
1.1547113113619058566
1.1546987150317684634
1.154484299266343994
1.1541070262285764159
1.1537091049050154368
1.1534567607980079629
1.1534355567787049068
1.1535961012761251077
1.1537779079584637998
1.1538426891963908805
1.1537587393657642298
1.1535968630338018226
1.1534779330087387983
1.1534790779080330569
1.1536008124486978321
1.1537686422348725213
1.1538976564048952778
1.1539769652374387565
1.1540623261117006759
1.1542256696914461322
1.1544699031816869628
1.1547094754416566964
1.1548399485140348197
1.1548053356753444909
1.1546370383744986032
1.1544306756498750044
1.1542903207729082737
1.1542669485205887536
1.1543241302642341939
1.1543608542013612528
1.1543046431323489287
1.1541804768239392054
1.1541076397862710667
1.1541896933988278207
1.1544384712508735102
1.1547547647399307724
1.1550170095589640251
1.1551633003893992946
1.1552176457773735141
1.1552594410647349932
1.1553522781339977676
1.1554999476590355201
1.1556581159261798408
1.1557688218948263259
1.1558213685513472058
1.1558525170269022819
1.1559061701631625496
1.1559938532500495523
1.1560910570838587308
1.1561541248170841278
1.1561562331021093541
1.156108704934346143
1.1560515882134771992
1.1560188063888747756
1.1560146304324649957
1.1560248075428698478
1.1560456816219621956
1.1561056861124552331
1.1562552346982224449
1.1565176786396378361
1.1568563963390077198
1.1571772416224634927
1.1573801784692820949
1.1574147827447027748
1.1573120424272143048
1.1571647878667006282
1.1570740864678421556
1.1570912821000269854
1.1571844711544327922
1.15726826417132167
1.1572691850874849973
1.1571832991847517125
1.1570804152991283065
1.1570589882878175025
1.1571742014001344945
1.1573940304985672611
1.157619349035472478
1.1577368083293400058
1.1576824324139072253
1.1574756752665209536
1.1568091961567950055
1.1566081867763915447
1.1563840273361218891
1.1561578437470918512
1.1559362569632032347
1.1557233403938169669
1.155530958711527223
1.1553805173487843305
1.1552963841794887667
1.1552903619752692421
1.1553550634177547352
1.1554592883127212666
1.1555643843614775701
1.1556329814588337523
1.1556517622974769033
1.1556202881642223534
1.1555476425516510997
1.1554549608959419071
1.1553534506500233725
1.1552628509679754298
1.1552060622753461683
1.1551963950914312385
1.1552365446190016041
1.1553082301126536002
1.1553761985555106584
1.155402865750895236
1.155359896633527228
1.1552351119322765705
1.1550361463910594484
1.1547872859178496263
1.1545279014582383592
1.1543083670865472712
1.1541797735760122023
1.1541798152972062574
1.1543204371214061954
1.1545799134641532291
1.1549058145915696016
1.1552301169767476008
1.1554905526250869308
1.1556512478261640187
1.1557045550385605104
1.1556735117355583231
1.1555931115602375847
1.1555023044197481052
1.1554298180230138104
1.1553902851357598092
1.1553834948289540829
1.1553982493597934056
1.1554146578389237199
1.1554116296769099126
1.1553737118238538439
1.1552974632861110482
1.1551935131368495924
1.1550830764753214908
1.1549903234879825842
1.1549309024720584294
1.1549033700665920499
1.1548884351815367211
1.1548595413863738113
1.1547991475255150462
1.1547069369379934223
1.1545999054320061905
1.1545027829840699418
1.1544342097050284135
1.154398793535993395
1.1543884199251523981
1.1543863724598588671
1.1543797524866175053
1.1543657700415936862
1.1543507118345557316
1.154341585512469015
1.1543410797306750126
1.1543415653889208539
1.154333909351113352
1.1543059515694116257
1.1542535060651037959
1.1541776643958803206
1.1540840683729423066
1.1539767283539712484
1.1538551190089403331
1.1537186830357004652
1.1535645086460593056
1.1533916757723050583
1.153203104706186588
1.1530040416571649686
1.1527994320885792678
1.1525913950801147667
1.1523811861755668406
1.1521700283927118758
1.1519593439743553986
1.1517519171071708417
1.1515528397285528239
1.1513648035391372826
1.1511902255086940983
1.1510312554662784912
1.150887896794384524
1.1507659710388515872
1.1506730423890620951
1.1506197669233284575
1.1506091326944796194
1.1506431916926782577
1.1507063534037544894
1.1507738019318918266
1.1508262508248749967
1.1508414063890231027
1.1508154452285801472
1.1507524492728633536
1.1506605761303172475
1.1505504110218014446
1.1504326626095615627
1.1503166156769084605
1.1502089218955882099
1.1501157227795200111
1.1500441776072567457
1.150001631481222919
1.1499905505884486789
1.1500064622448233909
1.15003961073232297
1.1500775639318414623
1.1501077112956803461
1.1501195940561756981
1.1501061149640625647
1.1500630655596402185
1.1499875769334455544
1.1498777199497296486
1.1497335506582448961
1.1495609802163930802
1.1493739542579324286
1.1491957319876036081
1.1490561242372010486
1.1489870318055586118
1.1490159410213918179
1.1491559151197199284
1.1494001348410201047
1.1497188939507176908
1.150065248973964227
1.150386664577838447
1.1506394885981325871
1.1507991732125697482
1.1508672412971090449
1.1508671134680328318
1.1508314190473638572
1.1507880111771360276
1.150750666551378032
1.1507157615281298213
1.1506673015598156695
1.1505864096965050525
1.1504609604825981606
1.1502936122137310537
1.1500999752478437976
1.1499042649578468112
1.1497281047630520945
1.1495868132846589482
1.1494870357487088075
1.1494292125039704544
1.1494125115933029324
1.1494427411335399469
1.1495326122794762291
1.1496925732434746248
1.1499302809064293474
1.1502379668348137187
1.1505915992398532133
1.1509534796189313521
1.1512788904654516209
1.1515267780601434744
1.1516701623142528987
1.1516985414077873795
1.1516215479420741641
1.1514616118498151032
1.1512473643687322067
1.1510068998309677113
1.1507628129811224849
1.1505329345217572001
1.1503297795481266519
1.1501628507469843221
1.1500387254001105397
1.1499599721981585976
1.1499261374343219266
1.1499306218504121713
1.1499612493741699915
1.1500040385593455206
1.1500439416010237448
1.1500680311654127852
1.1500691420470048332
1.1500471777511607208
1.1500087893868404798
1.1499655856853494562
1.1499291758393577201
1.1499103038347329164
1.1499132644720519991
1.1499394039209667184
1.149985022166296833
1.1500439693440620559
1.1501077256636387247
1.1501669617872247731
1.1502120931976209661
1.1502336675214306361
1.1502240669605789947
1.1501791146726103587
1.1500983973440130903
1.1499894297374029239
1.1498635295015242619
1.1497358488328037751
1.1496230495037951247
1.1495389895178378392
1.1494886723998438693
1.1494679935431404427
1.1494651299246512188
1.1494664363845918942
1.1494586057376132704
1.1494307066467106537
1.1493789622226935343
1.1493073815947987271
1.149224472148116849
1.149140091579088363
1.1490618919930004616
1.1489916493663143715
1.1489278417916850561
1.1488659644384819902
1.1488035894452839347
1.1487382713899620956
1.1486692535254254821
1.1486000032737249121
1.1485365563389016152
1.1484855924957713125
1.1484513250103125515
1.1484345199433114715
1.1484338431548195558
1.1484483548210118187
1.1484772837893737485
1.148519551987803311
1.1485744004441040822
1.1486407809703607086
1.1487173845059790445
1.1488015468247212425
1.1488877901079093125
1.1489678085165424548
1.1490297785799474806
1.1490606968817076439
1.1490493849169800544
1.1489891999602217521
1.1488789686565006321
1.1487223667460082499
1.1485272257298524412
1.1483051882393315868
1.1480726323971537362
1.1478465652922975604
1.1476413247609658086
1.1474672670097560978
1.1473309030421641186
1.1472359489913006581
1.1471832658923890591
1.1471714590479042961
1.1471954618002069282
1.1530629444001998518
1.151350198736629693
1.151341997782285187
1.1527830535157621572
1.1540335700123793838
1.1540395958216740357
1.1533970147408241225
1.1528006748669077375
1.1522169251727276684
1.1523384903313615979
1.1531521113398008893
1.1535145888182167795
1.1531645760234403575
1.1528278686726649571
1.1529165884275789367
1.1532069286559283317
1.1532311952853375736
1.1529262509043931573
1.1529607606564917788
1.1535660355662455956
1.1537991047857001359
1.1534374604204891135
1.1532478364950029537
1.1535401621504559611
1.1538207196098970719
1.1536870275086188453
1.1533457255901740091
1.153091507386817538
1.1529932265032065697
1.1530440285235599163
1.1532103992009770099
1.1533793360800785877
1.153384244143340176
1.1531661136977757742
1.1527982773571037178
1.1525323948606882585
1.1526151535696791406
1.1528812705412876394
1.1529518557816587077
1.1527490350244449235
1.15254730749710399
1.1524761569092194513
1.1524462881021437788
1.1524401708604270489
1.152580776481546998
1.1528640569248922443
1.1531196942878259026
1.1532764974964839766
1.1534043645679705747
1.1535266132416091001
1.1535324092861423129
1.1533082798849583206
1.1529448830081039379
1.1526373816349473334
1.1524733885934757005
1.1524357423363562614
1.1525703972112075757
1.1529138484898493466
1.153343924289921052
1.1535989903988039806
1.1535064063875308804
1.1532021976038844269
1.1529770121476190514
1.15295953099659787
1.1530164541680567591
1.1529439956545652901
1.1526961212884438979
1.1524196983353371948
1.1522650497984936457
1.1522391742588948826
1.1522161251134335203
1.1520943808188297552
1.1519213249397506349
1.1518117702326138296
1.1518502042486207237
1.1520770210222597285
1.1524769119441020671
1.1529411976211891844
1.1533252700717362416
1.1535086915309700206
1.1534844355670914595
1.1533491398366535474
1.1532569721290200082
1.1533260921682904065
1.1535495944630425047
1.153792822463470813
1.1539195720749604313
1.1539145162333011019
1.1539099906324499223
1.154015977307134122
1.1541472593931239032
1.1541021904901753725
1.153794400430192546
1.1533587397634552651
1.1529946064936358319
1.1528349909106641036
1.1528555167572165363
1.1529621190335219705
1.1530824510217072554
1.1531831964488823417
1.1532535817406182055
1.1533281232931433813
1.1534545021475750559
1.1536770854523161756
1.1539514081052233418
1.1542206889484967203
1.1544430441311375191
1.1546110317250510846
1.15471306484037739
1.1546916290633340019
1.1544892174700940313
1.1541246901773283273
1.1537100283223133967
1.1534016638218316242
1.1533072093410263737
1.1534259412652132504
1.1536461015399992469
1.1538238829970490773
1.1538706257185094017
1.1538087723681060837
1.1537299816113928408
1.153717808275905643
1.1537894897780072156
1.1538881931403313086
1.1539589623685828634
1.1540075982802164845
1.1540912867002599551
1.1542434421845486625
1.1544459838110230354
1.1546296987750954699
1.1547337746217782861
1.154724475053974686
1.1546032005983375424
1.1544285382373538074
1.1543017646703126466
1.1542993045805696184
1.1544116090529881191
1.15452930744977178
1.1545390005684528223
1.154426093242268081
1.1543035637755119094
1.1543025984481156687
1.1544713457677486801
1.1547347180310876258
1.154976905142458099
1.155136868378674464
1.1552206098198154471
1.1552819620355123664
1.1553624922010350407
1.1554596609861043088
1.1555421616356984504
1.1555874842220383858
1.1556019946025504197
1.1556274370981605149
1.1557041561588494716
1.1558278802002959207
1.1559604646636099101
1.1560617823712417973
1.1561146887812279171
1.1561313631382659217
1.1561355963553132664
1.156138337529523552
1.1561244138719042329
1.15608155191115336
1.1560311091557553542
1.1560359401398292434
1.1561615177212665184
1.1564239439363079853
1.1567601294589415772
1.1570590776762761376
1.1572191413626937706
1.15721385546738742
1.1570948348226881564
1.1569682412346025124
1.1569248041521338344
1.1569942150220646759
1.157122547309236138
1.1572034389842507096
1.1571661600770037914
1.1570265106991961535
1.1568755863856401422
1.1568303418299041851
1.1569583541637205037
1.1572258764075789017
1.1575190685516900668
1.1577086075261928677
1.1577115661360855015
1.1575365211242119035
1.157265283234092168
1.1569284687646386178
1.1567982151263807022
1.1566491972302237468
1.1564905551124637917
1.1563158764099605857
1.1561119626176372677
1.1558822076181825
1.1556555726512336424
1.1554761744018224867
1.1553833521040499654
1.1553930983451292658
1.1554864321486273404
1.1556159447091405301
1.155730903015234956
1.1557912005862891469
1.1557787839261504104
1.1557023431129440638
1.1555833239339106111
1.1554433282636198399
1.1553083140867117518
1.1552043360735932964
1.1551514062300403118
1.1551623296647275385
1.1552303987303025323
1.1553249079446041847
1.1554086438812838367
1.1554527541687704684
1.1554393886146452353
1.1553624184553117349
1.1552262617617166107
1.1550451468472384686
1.154843455115932338
1.1546581440763825643
1.1545322778101925199
1.1545038269640826023
1.1545933844036424532
1.1547924761709540409
1.1550616731975635876
1.1553423875886579264
1.1555736107139062963
1.1557126298605351344
1.1557509789654401011
1.1557081761060046254
1.1556234668337335147
1.1555379143392388031
1.1554790764436435602
1.1554594717609858456
1.1554754598633127927
1.1555047126589095274
1.1555224499783320891
1.1555043951703005689
1.155437432193311853
1.1553261644247805329
1.1551913871966978942
1.1550633512459451691
1.1549710156348595991
1.1549280276502627007
1.1549253215709878173
1.1549331801764270988
1.1549172266807186116
1.1548560957860134479
1.1547508959218626412
1.1546255062429622296
1.154512274960451057
1.1544370580122640391
1.1544097477103814064
1.1544200448921553281
1.1544474842508056778
1.1544682813473041705
1.154466767465269994
1.1544384883253895335
1.1543904955631685283
1.1543307723960578581
1.154268614578729979
1.1542080198181752237
1.1541508926582548789
1.1540934154492157315
1.1540288236312588044
1.1539502694628778201
1.1538523041461228313
1.1537334090680100296
1.1535974538648250398
1.1534492427615108401
1.1532944898680808077
1.1531387644542170356
1.1529825219986273854
1.152821207090557909
1.15264922205775866
1.1524626127341854875
1.1522610938162827221
1.1520465980068375078
1.1518230560680737806
1.1515973994618722287
1.1513771866018251977
1.1511659770435169747
1.1509675758929971412
1.1507883200876309893
1.1506368444205519186
1.1505275942468178307
1.1504694160731976371
1.1504682556896002055
1.1505210225756168363
1.1506132865384448571
1.1507219369890628879
1.150822173940091675
1.1508930700600545904
1.1509277609044290536
1.1509242126820413699
1.1508840793013084269
1.1508144837816189909
1.150721485545881162
1.1506089098750320598
1.1504843625653022876
1.15035908994770808
1.1502481053360233965
1.1501662499397911077
1.150123174576702878
1.1501201283761093297
1.1501478059059773162
1.1501904741609627614
1.1502300671327265746
1.1502504941642626157
1.1502405268639370739
1.1501941081454152283
1.1501092060173807585
1.1499874857985628029
1.1498332980471006604
1.1496565732815697825
1.1494732262551985436
1.1493074911746665734
1.1491894340208659298
1.1491493106300258997
1.1492095625478906396
1.1493769005692173746
1.1496379259723619182
1.1499598004976143706
1.15029499357384557
1.1505934388517236044
1.1508167673091449501
1.1509477614559606717
1.1509928485407929788
1.1509777536415670696
1.1509343822685422776
1.1508868827318770034
1.1508447741646250506
1.1508009483946106677
1.1507396757890839822
1.1506458663033343193
1.1505124973397626853
1.1503453729430896946
1.1501611972760432678
1.1499810841602922107
1.1498231835927001931
1.1496967249518481591
1.149602454257168116
1.149537455971072708
1.1495003153784282279
1.149501331315917696
1.1495546977818078549
1.1496795806585191624
1.1498849562406183722
1.1501680367984823405
1.1505017223977815899
1.1508438966400547088
1.1511473876950824025
1.1513709791097177515
1.1514878265812116265
1.151492218573225923
1.1514003907337253541
1.1512383762125495412
1.1510341807037709483
1.1508142374925927065
1.1505984485674256579
1.1503991042409000833
1.1502242728318674558
1.1500801040708370504
1.149972205007175674
1.14990396880266732
1.1498756800519154275
1.1498828783562180522
1.1499155723993872424
1.1499600819951345532
1.1500020662946208727
1.1500300678328048143
1.1500368317130493789
1.1500202658260487709
1.1499853627262821565
1.1499414967724663761
1.1498998071722079661
1.1498688431798615994
1.1498572839245135846
1.149869514426084427
1.1499060435842312078
1.1499632410520195247
1.1500347136148563187
1.1501108824196988323
1.1501784178553045024
1.1502242737787609084
1.1502346661341402712
1.1501995837096532505
1.150117205276134591
1.1499950426144422977
1.1498472255664502484
1.1496935071595009159
1.1495536830751993396
1.1494460917561004631
1.1493799711952474851
1.1493520429391201887
1.1493502082585058677
1.1493579571089620472
1.1493580880237126429
1.1493383158551664369
1.1492951928100145764
1.1492314196854171993
1.1491546747054743882
1.1490752346453667609
1.149002853440027172
1.1489427653804988871
1.1488925660367939052
1.1488454132526890739
1.1487954662726178601
1.1487384185670661552
1.1486751801614620838
1.1486070730793900285
1.148538027927698657
1.1484743047508638725
1.1484228893416004169
1.148389250499808778
1.1483756651748944222
1.1483810031867880408
1.148401844384811632
1.1484365579365998222
1.1484840865330008253
1.1485426872890407424
1.1486099633173840751
1.1486822625376984508
1.1487538198098188325
1.1488169087313713224
1.1488622851000633851
1.1488801587274415361
1.1488607179607237541
1.1487968781988819877
1.1486868261981055817
1.1485341981757444252
1.1483482558491451275
1.14814135594553135
1.1479269039633128724
1.1477192856791036402
1.1475317971497003278
1.1473753907545578556
1.1472576960365841181
1.1471823956223874408
1.1471493563214878453
1.1471556159158349253
1.1471948709184744963
1.1505958711061246014
1.1523912632477344431
1.1537349915100356679
1.154400889659140006
1.1536395036871627262
1.1530804941800558705
1.1526865847481968519
1.15254651172625322
1.1523651648440984552
1.1524459216640041692
1.1531552566696832152
1.1536566460553214775
1.1535586598430189742
1.1532322838864175196
1.1530145753638163519
1.1531085249194972242
1.1531639412021386093
1.1528690915347985513
1.1529593483724343006
1.1535825721626944418
1.1538920644172705465
1.1535431098602721978
1.153153670548342502
1.1532800411026900012
1.153648373969900387
1.1536436192401195999
1.1532805377819776993
1.1530122146713275288
1.1530366943540788505
1.1532252547517638508
1.1533915369391272154
1.1534519910289777744
1.1533697947901258019
1.153143799717451401
1.1528029960295644862
1.1525881543710974064
1.1527056341691130914
1.1529839772085466176
1.1531381820716297693
1.1531440165382318419
1.1530722130242199164
1.1529198266191689193
1.1526385597583841403
1.1523479093749924296
1.1523213359130488609
1.1526921751860021992
1.1532680825526295809
1.1537464860550084023
1.1539707090570627823
1.1540001200467651099
1.153853318919797033
1.1534963699801126236
1.1530047346719385359
1.1525595232652412481
1.1522848582169702425
1.1522346900852200591
1.1524452045073982909
1.1529017140040276335
1.1534398737115443279
1.1537395146458111483
1.1536733249674178126
1.1533820104064465006
1.153156707948784776
1.1531355589868212963
1.1531796438004289218
1.1531023821100037097
1.152843060717853918
1.1525126523085074126
1.152258045411787668
1.152070207839966498
1.1518997460499678098
1.1517417049993923239
1.1516722212184833385
1.151765845694866508
1.1520355686723815491
1.1524293601238961848
1.1528445066161989718
1.1531823426207088445
1.1534051025638747401
1.1535158460515937406
1.1535296130934176162
1.1534615281365983019
1.1533583024164102415
1.1533252230970207908
1.153464087874581212
1.1537591081265174964
1.1540485781455329661
1.1542125919896075725
1.1542863208385203411
1.1543380943078791478
1.1543201021962752328
1.1541046717728200566
1.1536747227099508617
1.1532069578248349551
1.152932158936480711
1.1529099039612979993
1.1530551349148638884
1.1532092161938587438
1.1533125653423084156
1.1533635743054202472
1.1534016408557967726
1.1534599810473196158
1.1535744514843617736
1.1537603466969017507
1.153983413304795036
1.15418061864954824
1.1543304644424849936
1.1544509733881791469
1.1545269844879606502
1.1545001354796453619
1.1543087428073655065
1.1539563310181164546
1.1535534365410755608
1.1532637016984572664
1.1532178758500863935
1.1534275164677572079
1.1537724472178558788
1.1540582567693939975
1.1541644220730362669
1.1540970106775814141
1.1539752582483171484
1.1539131901912287326
1.1539516591914658061
1.1540368216310417093
1.1541273733894890086
1.1542272232619943395
1.1543522188308408261
1.1544837207480864727
1.1545982806013541655
1.1546737853888939807
1.1546998223908637726
1.1546669852821860314
1.1545608128497104605
1.15441540631446804
1.1543314809430500478
1.154401736823883029
1.1546124475542884902
1.1548245023785181917
1.1548915868195153145
1.1547824952679748289
1.1546072063696690702
1.1545127017380480972
1.154581771667162915
1.1547742775055040987
1.1549967443578688098
1.1551821220005922264
1.1553133731547164942
1.1554036489055035108
1.1554625321063265453
1.1554875633781662714
1.1554713201266695322
1.1554298203818993418
1.1553944747769198109
1.1554103163141764554
1.1555087217883461825
1.1556780179573438172
1.15587421571014759
1.156050194582168622
1.156182760028802381
1.1562718704668637493
1.1563248945632784714
1.156338998778855931
1.1563011216700955774
1.1562157235177867864
1.1561239824360840522
1.156101502727824748
1.1562074971399984857
1.1564436892878409147
1.156733569297606623
1.1569620340059088015
1.1570430318491708999
1.1569729269315507381
1.1568286628812891603
1.156717348507325438
1.1567196338173055814
1.1568426465993062457
1.1570114852323520882
1.1571151907332617448
1.157081388196871119
1.1569353528694059641
1.156780041782176971
1.1567345832174482645
1.1568644370457383808
1.1571353121118765905
1.1574327599877136663
1.1576348250052628241
1.1576687609904128262
1.1575396183407846706
1.1573136595233439738
1.1568175063617982534
1.1567202127918942978
1.156632314471510492
1.1565352599690743585
1.1564000220332286695
1.1562099664198255411
1.1559774075955164818
1.1557462280461987536
1.1555766893219390212
1.155511856614565902
1.1555557693650126971
1.155673526000826179
1.1558102867111681444
1.1559115166223461468
1.1559427145066538678
1.1558960292432252093
1.1557838844271004497
1.1556273943188943853
1.1554539751288117611
1.1552997712614609949
1.1551944759814722907
1.1551593882561754789
1.1552040468422100084
1.1553056711722569094
1.1554240867788700964
1.1555225161103277465
1.1555750191738067834
1.1555708200818999298
1.1555145222748617329
1.1554165592450413858
1.1552867750064248487
1.1551353517428457618
1.154980834423773306
1.1548537898398265611
1.1547897087185601261
1.1548159110272293582
1.1549395355110463335
1.155138799630405444
1.1553665432333173335
1.1555676444347269261
1.1556979667069271489
1.1557402944548862411
1.155708266157977171
1.1556367070553896781
1.1555635347372503752
1.1555204445780460354
1.1555175995329516336
1.1555485271401300107
1.1555900440436022159
1.1556153685159125111
1.1556016659404484415
1.1555377957872554617
1.1554298654089187881
1.1553023812408333981
1.1551878937588662133
1.15511170141753583
1.1550811171850454695
1.1550814287236976785
1.1550797096273994757
1.1550412523811905974
1.1549473276845663161
1.1548039300547923158
1.1546409161628523599
1.1544955931523785964
1.1543996437860974957
1.1543635038315782637
1.1543786035016798674
1.1544199168351119145
1.1544561564615720695
1.1544649428734654606
1.1544378801095402931
1.1543837197967885544
1.1543172054029438023
1.1542582791148552346
1.1542139579591823573
1.1541858424613913314
1.1541573131777744798
1.154107528813593575
1.154015726079999915
1.1538727625666440613
1.1536876294433355827
1.1534801955474554003
1.1532741479585197908
1.1530898340237925037
1.1529382189239143486
1.1528147434358320123
1.1527033457147608519
1.1525856182119369464
1.1524466245828626221
1.1522801829384952121
1.1520856171802558165
1.1518685323202193516
1.1516358372552644163
1.1513978761475862633
1.151161128331190886
1.1509313844891932987
1.1507205811154306296
1.1505424822872862833
1.1504182934270124061
1.1503609642462675478
1.1503795804607301889
1.1504674963510281849
1.1506070447943459456
1.1507727144528490104
1.1509296489960487708
1.1510538691491760677
1.1511274485648110844
1.1511430239071152037
1.151103826209469938
1.1510181461476138853
1.1508949563585075815
1.150745880060837445
1.1505879065517337079
1.1504395193627561245
1.1503208029383091837
1.1502480476067502568
1.1502303788863015299
1.150264562006646063
1.1503356877070289865
1.1504192451762846883
1.1504891220860136158
1.1505228219077281437
1.1505080412729220551
1.1504406841083885116
1.1503255023216671926
1.1501714670339020508
1.149992768358915729
1.1498055323399534178
1.1496295904084665729
1.1494896418200786226
1.1494112773980496023
1.1494175017555054996
1.1495203277240890749
1.1497163588965089165
1.1499842675276081838
1.1502873099976522742
1.150580482280133765
1.1508218844158653038
1.1509832617028927793
1.1510595232668652255
1.1510661240846202791
1.1510310977312239178
1.1509834872289004259
1.1509429442463841031
1.1509133241796807301
1.1508825466851613228
1.1508312569357435073
1.1507443948951923129
1.1506178188188671552
1.1504589964419729142
1.1502824957657173943
1.1501068322910972253
1.1499471820050761739
1.1498109838673316041
1.1496996822364442536
1.1496114812957538565
1.1495494220347326486
1.1495264333957453395
1.1495602568618075168
1.1496704874830714349
1.1498659613357622433
1.150137214368016414
1.1504533484855736791
1.1507670033117922692
1.1510275679668666715
1.151195307364881959
1.1512507963276359391
1.1511990902956426019
1.1510640464718771003
1.1508812017032610253
1.1506826979743429717
1.1504937436705082732
1.1503292026101745726
1.1501939650762524892
1.1500877160265079446
1.1500084316675596163
1.1499545347649797744
1.1499245343839314959
1.1499165150223424892
1.149927489104466849
1.1499498263804228682
1.1499747436918172916
1.149992704374080521
1.1499969708090993503
1.1499851281213653298
1.1499580761461041245
1.1499209395662406408
1.1498816791715016361
1.149850772423050671
1.149837264381650126
1.1498465695016570898
1.1498802249785895491
1.1499360995499456894
1.1500078699672025007
1.1500858769579327401
1.150157031011547426
1.1502091790506345781
1.1502296619124325883
1.1502097254532297477
1.150145230722280365
1.1500390027457814135
1.1499012716994037042
1.149748856817483178
1.1496014008082138247
1.1494761056003681698
1.1493841202301278148
1.1493292286385452527
1.1493044961916498714
1.1492961127666088128
1.1492876172441075511
1.1492630658698146373
1.1492142857809166667
1.1491426134924109803
1.1490565541774431235
1.1489696053292990374
1.1488944795751168115
1.1488395102108597268
1.1488069735083570322
1.1487932578331037092
1.1487905085475620393
1.1487861573584337016
1.1487710953769405542
1.148739836860583674
1.1486930622464963658
1.1486348266688535258
1.1485705344526193628
1.1485061009314010416
1.1484480221229771413
1.1484023758828645345
1.1483743853467094365
1.1483663988697361269
1.1483778895956746613
1.1484067885606725756
1.1484511765323031085
1.1485078333753793167
1.1485720432242658706
1.1486362037378716749
1.1486917083273864293
1.1487275871291497964
1.1487337837795581486
1.1487017813691733359
1.1486260706652702268
1.1485066633692404547
1.1483494156492199956
1.1481649783970548917
1.147965989368652906
1.1477666699413862084
1.1475800815766015184
1.1474168378393558854
1.1472851881515886419
1.147190245503615591
1.1471346246365756727
1.1471176455138758499
1.1471363744902365323
1.1471853202444992625
1.1472559168944500563
1.1526766252138289648
1.1529589250399043809
1.1534641699968912754
1.1524154095298100309
1.1521594863150614874
1.1521153822159255764
1.1522170452378333039
1.1533123742976416626
1.1535232390103058453