/*--------------------------------*- C++ -*----------------------------------*\
  =========                 |
  \\      /  F ield         | OpenFOAM: The Open Source CFD Toolbox
   \\    /   O peration     | Website:  https://openfoam.org
    \\  /    A nd           | Version:  12
     \\/     M anipulation  |
\*---------------------------------------------------------------------------*/
FoamFile
{
    format      ascii;
    class       volScalarField;
    location    "0.0155";
    object      T;
}
// * * * * * * * * * * * * * * * * * * * * * * * * * * * * * * * * * * * * * //

dimensions      [0 0 0 1 0 0 0];

internalField   nonuniform List<scalar> 
75962
(
300.04947177022114602
300.03592531689815814
299.95166481718240448
299.90769106828548729
300.0868813577631613
300.16434880085847681
300.07933741034173636
299.97243038124804571
299.85090963901529904
299.77256072018053601
299.80492443612757825
299.90746973930930608
299.97513228727405021
299.95127182379775377
299.87392106429871319
299.81521114547615525
299.79184686426719963
299.81034652971965215
299.91589018932683075
300.04864836905966285
300.05709943289633657
299.9136448054953803
299.74641293503066208
299.65508306383065928
299.60986739078327901
299.58479732355004899
299.60384300955388426
299.66524723571802724
299.7097793087999662
299.69433733032553846
299.62558496813142028
299.53334089966273268
299.46452556410372381
299.45659659597288282
299.51644815805883582
299.62053807993800092
299.72379254046472852
299.75434047863637943
299.66016867257360445
299.46820081364336374
299.27847461046098942
299.18550885706594045
299.20440193648266813
299.28903254809569034
299.37444891880375053
299.39834341813133278
299.33163921762496784
299.21063846832072386
299.11895378448986094
299.09983357671956128
299.13947814630290623
299.20632067562212342
299.28379978560741392
299.35851062037261272
299.40291341396942926
299.3971816269156534
299.35627771855075707
299.31089785490314625
299.27705515190353935
299.244639748962868
299.20031373811724507
299.14822438259898263
299.09944333093659452
299.05368789158984555
299.00044695189063759
298.93185624162396152
298.86062394303877454
298.81626926385257548
298.82629808498887769
298.89470812376163167
298.99586952898391701
299.09701599354036716
299.17482563419480357
299.21640669533661594
299.22014917371717502
299.19502307097275207
299.15577865242232747
299.11051710079948407
299.06243460510177101
299.01566881402231957
298.97988058064692041
298.96738279935755145
298.98182562650083582
299.01104324547543456
299.03183649039613101
299.02096285294106792
298.97549386587974141
298.92015149470859114
298.89434674438103912
298.92483349601184273
299.00387443851923308
299.09753981051630944
299.17203023330057476
299.21052056256132801
299.21070429385736134
299.17522339596257552
299.11100519539144216
299.03541131502743156
298.97109110345132876
298.93371191654227914
298.92826665320814072
298.94708979829556483
298.97780290816592697
299.00659146719084447
299.02251593957112163
299.02173265461783558
299.01440113515303665
299.01431195481734449
299.03248786384045843
299.0682906899373279
299.11092465413958053
299.14788612816448676
299.17105894571591307
299.17632747249314207
299.16055424535517204
299.12074829348398453
299.05648786312985976
298.97840159434787211
298.90825106579927706
298.86965185048916283
298.87727307831369217
298.92690074558612423
298.99708254570384725
299.05699774353064413
299.08081640190266626
299.06142969558425193
299.01039002258863775
298.94943125767986203
298.89614329952519256
298.85631941033375369
298.82726196569137755
298.80366879424099125
298.78335139507493068
298.76819906540413285
298.76181141468788383
298.76532051924613143
298.77422991180060308
298.77961013044921401
298.77587059402640079
298.76612800491318467
298.76093392397513071
298.76700904645065293
298.780628009087593
298.78735705592816885
298.77289795458727895
298.73246570645125075
298.67318686705272057
298.60978693656363703
298.5555771867515773
298.51641221633121859
298.4908963023058277
298.47358081125395302
298.46151562279044356
298.45506661565525519
298.45474354083279422
298.45817470335020971
298.4605576956536197
298.45672096313285238
298.44459858669779351
298.426695896754552
298.40813887689563444
298.39221668772802332
298.37755394763928507
298.35957567831616188
298.33439255493146902
298.3023048214749906
298.26798870473459147
298.23617667892330019
298.2081573602661706
298.18100532880100673
298.15125842139144652
298.11886282446863561
298.08923397420403489
298.07094943076049276
298.07090991824003368
298.08959338095081648
298.11896602198464734
298.14664939337143323
298.16320412648451565
298.16794911070479657
298.16876845860883805
298.1767425643175784
298.19813538240134676
298.22966739831991845
298.26070415336295127
298.27895792770624439
298.2771627437162465
298.25664672841378433
298.41516237460808725
298.42521667356379567
298.43865946340736173
298.45713762132936608
298.47847206932226527
298.49826776297419428
298.51213367319519421
298.51751018296738494
298.51458051911549774
298.5056677210302496
298.4945067536251031
298.48464061278235704
298.47922943003436558
298.47985460325190843
298.48734704260340322
298.50000953159491246
298.51396803752328424
298.52496241439752112
298.52824486284566774
298.522284155269233
298.50941496812868081
298.49451398031897043
298.48396919890393519
298.48300219439823877
298.49425349962785958
298.51775447446703993
298.55118233974911846
298.59041761639468859
298.63055127869898797
298.66677404871046519
298.69572232945836276
298.71651510562998055
298.73078360227634676
298.7417507060627031
298.75287312196945777
298.76637663095948483
298.78251631828055679
298.79992694896537841
298.81672833880656981
298.83187305780552379
298.84501561611097031
298.85699682186969994
298.86852782575061838
298.88015983472496373
298.89160012938236832
298.90194520628466535
298.90999252014967169
298.91483070996247307
298.91607125943136225
298.91446760802779181
298.91226508078392499
298.91326243013497788
298.92221878506234134
298.94362368100735239
298.98019071159734494
299.0313322592194254
299.09245581022202032
299.15559578277998298
299.21161513657784781
299.25314173022593423
299.27654844393771327
299.28272241570095957
299.27628073383607443
299.26372744570369377
299.25165743007767105
299.24553695575576739
299.24867717465957639
299.26233621743051572
299.28575470207874787
299.31620011673015824
299.34897617735367703
299.37835749422390563
299.3985677902446696
299.40610488221972219
299.40036885285582002
299.38479397517625102
299.36575212604418539
299.35111094634822848
299.34800034653449075
299.36109470358542239
299.39211586215509442
299.43924411387854434
299.49787308989522217
299.56162436260115101
299.62338248538742391
299.67633062935829003
299.7148973683011377
299.73585524222028198
299.73883362976459921
299.72625262658073098
299.70286709422299509
299.67490939996906718
299.64846806904853338
299.62858400479768761
299.61834842811674662
299.61823820441560429
299.62697235363265236
299.64158109845283207
299.65849021712620015
299.67348185516055992
299.6834888565308006
299.68562211626209546
299.67847503732201631
299.66344962575539057
299.6432433169031242
299.62308155368367579
299.60855171924021079
299.60422706752541444
299.61282902149952179
299.63467549499506504
299.66761961459479835
299.70740898319428425
299.74868159529171407
299.78606004831112841
299.81502093241351758
299.83218248452152466
299.83563519797297658
299.8253219851624749
299.80314565515470804
299.7726879089904628
299.7386540412412046
299.70607003435475235
299.67933499959735855
299.66134476686801236
299.65303561801579235
299.65341401823275191
299.66023195663217393
299.67076579424650618
299.68270058040411641
299.69463896273413184
299.70634991499616717
299.71860233122879436
299.73234857120820607
299.7481109208063117
299.76536213151359789
299.78262303727507287
299.7980757224470949
299.81044695416318291
299.81956030379330969
299.82671754303061107
299.83418244553752174
299.84405859466744459
299.8572515602172075
299.87302134437214818
299.88912369826374515
299.90271981346643315
299.91154376558353079
299.914882612587121
299.91419218278377912
299.91258039629951782
299.91395656311448192
299.92143384885150681
299.93660255011059235
299.95905923292053785
299.98661193165327177
300.01594902038874579
300.0438564748309318
300.06782397368311877
300.08576130829470685
300.09656949818310068
300.09930117274046779
300.0932862206526579
300.07831348494642043
300.05495297091232487
300.02508272372284637
299.99220779589779795
299.96090778569424629
299.93643356669696232
299.92331137649500761
299.92436833923397899
299.9400479465243734
299.96825745694422949
300.00510170630707307
300.04567582763291966
300.08522661744774496
300.11998996724213384
300.14766836047903098
300.16780520398572207
300.18137791875795983
300.19043732052159612
300.19780205741864165
300.20626484275078383
300.2180281394740291
300.23434946921076971
300.25522493811723734
300.27929327904894308
300.30400741197274783
300.32584394421911611
300.34118592081711085
300.34672171787968864
300.34060686757129588
300.32271344590560602
300.2949219124064939
300.26075514170588576
300.22484313814584311
300.19209641968075175
300.16685563884180965
300.15230685954861656
300.15011398962394651
300.16018520440144357
300.18118228175347895
300.21049985167547902
300.24493347626696504
300.28126655159820757
300.31667038489268862
300.34877707603266117
300.37612222469311973
300.39842445963034834
300.4169320114135644
300.43401604222003698
300.45255778921102774
300.47558020340682106
300.50553101363561836
300.54343182656089084
300.58841410718832776
300.63761215352536738
300.68639385957868626
300.72945743280541819
300.7617470571051399
300.77976883593731827
300.78189075035180622
300.76867601378114614
300.74298177190479464
300.70930134163813818
300.67290004450916285
300.63877568824182163
300.61091181253266313
300.59194874843029766
300.58320003801833309
300.58462176385364728
300.59498027134924314
300.61228491705918486
300.63420077129433139
300.65853750465527128
300.68355760561308898
300.70811326604064107
300.73174813636643421
300.75453259351519364
300.77706774017713087
300.80044011012586225
300.8260444181161688
300.85522489547054192
300.88883101134473463
300.92690755125397573
300.96864363996820657
301.01267161378245873
301.05703263817292736
301.09933917150937077
301.13718849072279227
301.16864177861856433
301.19263502812469824
301.2090374007463538
301.21863181793213471
301.22267813257809621
300.17427101831896152
299.95727168387600159
299.97531243907496901
300.1743845746462398
300.3388168930036386
300.30285546844629607
300.12997035059487416
299.96261320267103656
299.86112265895616247
299.90054684053791334
300.03791222853067211
300.1130226882140164
300.0758941933955839
299.98973200601005829
299.9020477189912981
299.82944562693938906
299.78537417447290636
299.79689875767570584
299.90414166623423853
300.05676818507726011
300.0897570139827053
299.96438859392424092
299.79871800775367774
299.68602799621493205
299.62739075236731878
299.60607980473275802
299.63304423800275345
299.69478522734368653
299.73900720336098402
299.72161939124464425
299.63950189692911863
299.5299972191339748
299.44849312899503957
299.4420587994823677
299.5165473855644791
299.63832724374117333
299.74832461614283829
299.76734460890241962
299.65132168090758569
299.44682776823532322
299.26443326181077964
299.18089027289653359
299.19845812190970946
299.2742363831654302
299.35568901755675597
299.3912010477490071
299.35182305274207692
299.26040091178134617
299.17615632724908892
299.14638540643557008
299.17662139548377809
299.23995046186280433
299.30975707655949236
299.36677861372476173
299.391753939156672
299.37351395715671742
299.32735797490028062
299.28165325893337467
299.25183262785475335
299.23058814793080273
299.20339479898945001
299.17133208216193907
299.14301665974295474
299.11401176988897532
299.06619544764845386
298.99024738680094515
298.90370363007747301
298.84378876025323279
298.83837201204988787
298.88745906972320654
298.96654380272980234
299.0477448984726152
299.11680934365784879
299.1671923727739113
299.1926628531099368
299.19017458005498611
299.16292477112978077
299.11739926386957222
299.06503126209361199
299.01886757233864955
298.99251751147869527
298.99301379884786911
299.01749405552936878
299.05217682713805516
299.07495654850094979
299.06462394026999618
299.01746454448948498
298.95562132254190146
298.92000688299759759
298.94124396110635189
299.01344957070449482
299.10079169621542405
299.16710047459963562
299.19694956055411694
299.18975271827611095
299.15312453492498435
299.09464537807536999
299.02678853185551588
298.9679167177545196
298.93467597787042678
298.93328771260473786
298.96030989409825906
299.0032878300441439
299.04681881436260937
299.0721061130074645
299.07095331335654009
299.04969505461838253
299.02701815251606376
299.02201852867790421
299.0412482313092255
299.07776369695136509
299.11846932568113289
299.15086874682924645
299.1664533724017474
299.15975543853471663
299.12800207889159765
299.07205306980421256
299.00075950591241281
298.93207551968635016
298.88929255947334696
298.88929235578467569
298.93237744296448
298.99996467491496333
299.06167434886123146
299.0917269182419318
299.08103100343072356
299.03814543160791573
298.97929124400678802
298.9202793572274004
298.87040089590323078
298.83368609930056436
298.80871479464121876
298.79053275326486983
298.77651064642839174
298.76893876389971183
298.77089468787477244
298.78064309455839975
298.78898866817553426
298.78706958090134549
298.7750125390587641
298.76370563183019158
298.76338209556246284
298.77408479911014183
298.78312448383064748
298.77532587930215868
298.74410224022932425
298.69295396748259463
298.6329197859231499
298.57514298511370043
298.52602199801032157
298.4873296862801908
298.45913236205763042
298.44145945925339447
298.43540767889697918
298.440349373803258
298.45084980025768573
298.45912514770498092
298.4592319420087847
298.44976337411117129
298.43383339756252326
298.41609335169869155
298.39899629222969679
298.38051677158165376
298.35706238654034905
298.32742650965161602
298.29485074073778605
298.26439964523694925
298.23854851178504077
298.21434653988103491
298.18612132477568366
298.15014018446248656
298.10971820972224577
298.07393409305927889
298.05434942520656705
298.05788305891451273
298.08310037909041057
298.11926859373750176
298.15082419114759205
298.16729326807751477
298.16874777207948455
298.16432636679610368
298.16662697824193629
298.18345766843862066
298.21219985174894873
298.24199994014804815
298.26046820480570432
298.25993182197805709
298.24179004657349878
298.2142504034982835
298.41611732781029787
298.42086016269320226
298.42673005012721887
298.43731102741975292
298.45287760713210901
298.47042957016674336
298.48612710742992249
298.49720465702836236
298.50263451119695901
298.50297325874333865
298.49982866608263521
298.49499215069886304
298.49019099380882381
298.48773943868542347
298.48972499659009827
298.4972601301842019
298.51010470075181047
298.52558180378707675
298.53886467072834421
298.54554733220237495
298.54340581375311103
298.53323755112467097
298.51914261487775093
298.50650165723953933
298.49985748085987325
298.50275289636476828
298.51746716150574912
298.5440720210518748
298.58013933787486849
298.62110766373507431
298.66136906547575336
298.69584607999024684
298.72182599879369036
298.73953080760583134
298.75160310923382667
298.76180706109755647
298.7731719600869269
298.78677151385130628
298.80182169968566086
298.81643156920910087
298.82910418533015218
298.84007775176200994
298.85071262016185756
298.86297410097932925
298.87810730714323881
298.89569876476059562
298.91420382593872773
298.93139186460388146
298.94451430183204366
298.9520770369155116
298.95402552078201097
298.95239862486528182
298.95140317094490001
298.95650948812567549
298.97302651562836218
299.00440912674110905
299.05048130164482245
299.10671172940277529
299.16488721234441073
299.21563666567516293
299.25139421055621369
299.26857385042086435
299.2685373238270472
299.25650772720871373
299.23974500709385893
299.2256126731437007
299.21974218911850585
299.2255527492238798
299.24365810945283783
299.27232761851075793
299.30783394912765516
299.34530031082664436
299.37896457672161432
299.40386096512713721
299.41654922926267091
299.41638320377785476
299.40538346760411059
299.38802635939839547
299.37050276799214998
299.35945074310797054
299.36075915552140714
299.37849239224658504
299.41363341289371647
299.46390341224901022
299.52413369563060996
299.58680115435572588
299.64348193877242466
299.68679206936923265
299.71194710863488808
299.71771699093034158
299.70631082550875135
299.68271750652712626
299.65367482269107313
299.62608146409610299
299.60526875719892814
299.59454410866783292
299.59499855301004345
299.60560692211373635
299.6241253843757022
299.64676934767618377
299.66946473562012443
299.68818759868088364
299.69945296331547979
299.70102027115666488
299.69268963784088555
299.67655683196136351
299.6573809165614648
299.64065296971961061
299.63140576071066334
299.63348634904991741
299.64822865566583232
299.67412216538787106
299.70771340016699469
299.74429434488598645
299.77892847813825483
299.80717328261374632
299.8255976669206575
299.83216858032227492
299.82632647953442984
299.80923767677927572
299.7836362577721161
299.75343964528326524
299.72312179998749571
299.696862036293453
299.67773976729790775
299.66727964798400308
299.66526256972696274
299.67025938252919559
299.68016508906333684
299.69309350069329412
299.70782894393511242
299.72389392092338767
299.74123034768632579
299.75970666052330671
299.77872939936003149
299.79714546704195755
299.81334422372492554
299.82594237789368208
299.83460603580135739
299.84040648610221069
299.84559634198598133
299.85292338538340573
299.86432701256757127
299.87984766654869873
299.8975035098205808
299.91377756470001259
299.92506143993205114
299.92901002088154883
299.925445482097075
299.91670699616832962
299.9070198429731704
299.90122163850674042
299.90332051005719904
299.9152572980392506
299.93649601296624496
299.96440451851657372
299.99507892908042095
300.02502024585140816
300.05113037617553573
300.07166274647147475
300.08528685755931065
300.09135666197425962
300.08870728314019516
300.07647305839856244
300.05478237054688861
300.02535332806337465
299.99169403155559621
299.95903486200677435
299.93364657966435516
299.92086051671577707
299.92377749032664269
299.94274451117524904
299.97515274858687917
300.01604522991345902
300.05946704655985968
300.09980728068092048
300.13292151418744425
300.15665310837709967
300.1710374571737816
300.17796449774414214
300.18051992342867607
300.18230294464285635
300.18673525482722653
300.19645108301358505
300.21267438039842546
300.23493428981964826
300.2613487249838613
300.28884664383849668
300.31367625318176806
300.33188858584134096
300.34050603506011612
300.33776135745898728
300.3235381965232591
300.29942428666117848
300.26861139188196148
300.23532855723203738
300.20406214880586049
300.17914884943184006
300.16381981346245311
300.15997023020787537
300.16814388494321975
300.18751476479548046
300.21585027771061505
300.2500268980379019
300.28635900824775717
300.32151587956519734
300.35269537386812999
300.37794112147435044
300.39675845464671511
300.41032215961587326
300.42121055717348099
300.43303816481864033
300.44977283386390354
300.47453092066342606
300.50885027109114844
300.55223149026085139
300.60206063058802783
300.65385841122377997
300.70186685414347494
300.7403392150136483
300.76492315243103803
300.77326348971803327
300.7656067269552409
300.74415196022948749
300.71287328537243866
300.67689254046007363
300.64161903653496211
300.61186078857866733
300.59112108952149356
300.58123198488868866
300.58236061038644493
300.59354423716848714
300.61286969219230514
300.63780116758562144
300.66568692718732336
300.69420181966575001
300.72165430836878386
300.74719131167705655
300.77083847953679197
300.79338655952102499
300.81604590284786127
300.84021018114276558
300.86723080207929115
300.89804396193403591
300.93296221148085579
300.97142489301529622
301.01200013796767507
301.05277666038654161
301.09163633116270375
301.12660641553156893
301.15613452059147903
301.17927479280075431
301.1957776065401049
301.20613881370246645
301.21131732951744198
299.86932957624048868
300.07545750348600677
300.21787010673318719
300.32535995996539668
300.27473293682913891
300.19634247497214119
300.07435691088772955
299.95595318312996369
299.87468918926242623
299.89438457409175953
300.03145652381033415
300.1442903642932265
300.14312001453970424
300.04682366138382577
299.90918504710765546
299.80791802501232723
299.77046825831041588
299.78972524033639502
299.90651924253279503
300.06095228302552869
300.09785774386045887
299.96552861531938561
299.76648236083218535
299.62437072331886156
299.57106132706229573
299.57293981141657468
299.61827135265195921
299.69984963232099062
299.76644187612521364
299.75556965883401972
299.65446956885915597
299.51786635366363498
299.42618103887696179
299.43281142477411549
299.52880433016059669
299.66684052400870542
299.77642094835414355
299.77942860136516856
299.65128075094315818
299.45696514194816018
299.29429397266858359
299.2245358225372911
299.24288618372804649
299.30602113868440028
299.36791144695337152
299.3930642195737164
299.36166065164229622
299.28625138546590279
299.21005115378773098
299.182781853338156
299.21533731555240365
299.27974070175696397
299.3415585284452618
299.37867587819204118
299.37856399015976194
299.34306928389764835
299.29255691078583368
299.25443239811329477
299.24076599150879474
299.23530360641410653
299.22286764462802466
299.19953432599697862
299.17157437623205851
299.137394770921901
299.0831044289737406
299.00527311069328107
298.92021000466070291
298.85846022157454627
298.8440776831159269
298.87371457586789347
298.93190174178539564
299.0035841294969714
299.08000957421512567
299.15100054960942089
299.2013811109030712
299.21625414215594674
299.18877268486323828
299.12810689994427094
299.06030683463433206
299.01404948619966717
299.00447207018379459
299.02544142402649641
299.05683781859028159
299.07972325594380436
299.08398059347445042
299.06541500466687467
299.02342954879753734
298.97369923807889336
298.94838113741951702
298.97160108770390252
299.03688723548447115
299.11151256082825967
299.16393079707484048
299.18344853004430206
299.17545311551850773
299.14342525635697712
299.09180645385077923
299.02836248054063617
298.97336484578426052
298.94555126787264498
298.95358394612998154
298.99029471316686113
299.03886981927547595
299.07956709496380654
299.09557197956968366
299.08067900445149689
299.04661337289860512
299.01741582260154928
299.01265970676678307
299.03712914008349344
299.0795955506895325
299.12107054765561998
299.1463992607975797
299.14870043752085849
299.12905510059715652
299.09180997580000394
299.04210623491513843
298.98589384634840371
298.93639868340818566
298.9106399941830432
298.92229674441739462
298.96929242055983877
299.03249153458233422
299.08251443006736281
299.09930531409600007
299.07996915126619797
299.03437758930226664
298.97567309090908338
298.91753688422738833
298.86971905172333663
298.83621486449982285
298.81413900799020666
298.79548240398429471
298.77633775249864811
298.76197103624235751
298.76052464729224312
298.77218251053562881
298.78545899886410098
298.78758828675591985
298.77579229063343291
298.75944171523389059
298.74972546785227223
298.75028582299324853
298.75267561593568644
298.74501279583029145
298.72095790781622782
298.68203779112945995
298.63471700207054482
298.58572374624992563
298.53992639650709862
298.5000280046286889
298.46870804457523718
298.44760789718526439
298.43766253343653716
298.43742524341524813
298.44148554238358884
298.44284320702701052
298.43661220920824917
298.42256777621275887
298.40399344690638372
298.38457305230764405
298.36528441762141028
298.34382840896699918
298.31776057528554702
298.28753945767834921
298.25771180453165243
298.23292613429418907
298.21434568109572183
298.19742319939888375
298.17516740807985798
298.14390419235871832
298.10750725790518345
298.0761875026424832
298.06085060021320032
298.06747180124398255
298.09301080685690977
298.12563997941714433
298.15054156954062137
298.15825387197287455
298.1508640227504543
298.13951110480309126
298.13740120425842406
298.15210094121596285
298.18058412431440729
298.21136605512907636
298.23226910023373648
298.236356355677799
298.22464761997986216
298.20407802475199333
298.42470513629695006
298.42430199587852258
298.42862706949546237
298.43959060568460018
298.45570301180777051
298.47349562442059323
298.48935897076364654
298.50110593292401973
298.50847223666551145
298.51181970753867745
298.51137874832278385
298.50759172464631774
298.50204017022826974
298.49744187927296935
298.4971686059469107
298.50378281035477812
298.51733655956348912
298.53454432051688627
298.55026916170220375
298.56016260663233197
298.56157029212477028
298.55483628745037095
298.54348449232719531
298.53130048497018834
298.52228301945206113
298.52081927237367154
298.53052170346217054
298.55323742081526461
298.58843569040863031
298.6324975418295935
298.67916837464809987
298.72134496825259475
298.75371982124539727
298.77460709991441945
298.78593637014131446
298.79183930295170057
298.79671141525352596
298.80326177970499657
298.81179351220276885
298.82113324971288648
298.82998167705625292
298.83825468363613709
298.84745529091696881
298.85982372648720684
298.87680528489414655
298.89856567696381262
298.92296343646205514
298.94667135316086615
298.96565438974261042
298.9769627337192901
298.9796335608224922
298.97535988646552596
298.96862857809531988
298.96613383847966361
298.97480846127689347
298.99930328165152105
299.04014337278312041
299.09303581822172191
299.14959680402489539
299.20002949297065697
299.23636240732128044
299.25478111818353
299.2565979412124193
299.24696957067283165
299.23321587947162925
299.22223334759718227
299.21938017732566095
299.22726463083034787
299.24559610639636276
299.27203017553415521
299.30271223946800774
299.33336853159579505
299.35950678403457914
299.37792999032097896
299.3862917082898889
299.3847585596117824
299.37475338074784759
299.35978301391241985
299.34470547407386221
299.33546050526030058
299.33829645817473875
299.35783037131858464
299.39564317934673454
299.44954981516065118
299.51371660636641536
299.57937071942501461
299.63691308879231201
299.67848423793469692
299.69970756929421896
299.70060563696125655
299.68485660370498636
299.65883972546748737
299.62974922167416025
299.60446185026978583
299.58767781630007221
299.58160316628101327
299.58649118456634142
299.60055883783138597
299.62132325790685172
299.64499223406488682
299.66800373396876012
299.68669270209369415
299.69839638558221395
299.70199266174762442
299.69750515729367635
299.68758515413162513
299.67614605634258851
299.66779103463346701
299.66682524523855591
299.67584677083664246
299.69482081038563592
299.72133301391016857
299.75146526388596158
299.78045524338830319
299.80400354458532775
299.8189385089272605
299.82372851834634275
299.81826813679521138
299.80375394891893848
299.78226259448302926
299.7567195619764675
299.73049733607314238
299.70724352169992244
299.68998117627398869
299.68075427620783557
299.67999233864912867
299.68675839416044937
299.69883900107765839
299.71360854812604657
299.72896468949613791
299.74369990446410839
299.75776094498388602
299.7716900390564092
299.7861651073647522
299.80143555702244385
299.81705720214728217
299.83199521659292941
299.84518090821671876
299.85607257018295968
299.86527483442671382
299.87413767194414049
299.88407356994821384
299.8957497746688432
299.90855012314835903
299.92049478050222433
299.92875444242173444
299.93090373862912656
299.92626089574832804
299.916404341130999
299.90480278727534369
299.8957611059129249
299.89344622505939242
299.90054896579249544
299.91745920940053338
299.94233911630647071
299.97157395984828554
300.00103444729091962
300.02722619477998478
300.04756358087257695
300.06091231337541103
300.06697318795590945
300.0658649043115247
300.05774957203885833
300.042826984748217
300.02191046475923031
299.99698777635074975
299.9713785158011774
299.94957502965974072
299.93620613668031183
299.93513577679993887
299.94784932551067413
299.97331090564620126
300.00805407855898466
300.04692773244147475
300.08445342949693213
300.11606280171884009
300.13902120436387122
300.15275453369952174
300.15874230887055774
300.16000531938021822
300.16002210586668753
300.16223108948537401
300.16923667984201529
300.18253248752859008
300.20227124089490189
300.22706175727984146
300.25427739861538612
300.28041852245416976
300.30184168832153091
300.31522511038207313
300.31821595118634605
300.3100562548638095
300.29187277170092329
300.2664653916192492
300.23782178332436388
300.21027470326856701
300.18803446650360911
300.17419687664744288
300.17059029961228589
300.17748598930904791
300.19380828953387663
300.21744502316232683
300.24570299841280985
300.27567684243433632
300.30456686144418654
300.33010550900843327
300.35102819193394907
300.36700207677546359
300.37890633508953897
300.38874126505959339
300.39911917839668831
300.41307490501401389
300.43343441349622935
300.46204365108815182
300.49938198190415051
300.54416890989688227
300.59346553364844112
300.64308750243418444
300.68822779518188781
300.72419931291841522
300.74691239690440625
300.75416456391531028
300.74589189618950513
300.72442399959425074
300.69388743295587574
300.65940768990520837
300.6262830201479801
300.59923861971844872
300.58172486313873151
300.57554132707605277
300.58061008979723283
300.59525087148756484
300.61681034301602722
300.64243515858140654
300.66950990607597305
300.69609128076484694
300.72102580142694706
300.74420246761985709
300.76619189976389634
300.78820788702813616
300.81163586224482742
300.83768264670277404
300.86720971559464033
300.90051282072516869
300.93718717003457641
300.9760549819247899
301.0155098700361691
301.05367708982220165
301.08872039833448753
301.11919218753894256
301.14413494239437341
301.16323192654755303
301.1766701453336168
301.18514124700180901
301.18965558943978067
301.19128364425176869
300.04926664260761981
300.08672845509175886
300.17339242138484678
300.13577702579004836
300.14113667905803595
300.09174224549553855
299.99850030114419042
300.01546601982903439
300.00041870137403066