/*--------------------------------*- C++ -*----------------------------------*\
  =========                 |
  \\      /  F ield         | OpenFOAM: The Open Source CFD Toolbox
   \\    /   O peration     | Website:  https://openfoam.org
    \\  /    A nd           | Version:  12
     \\/     M anipulation  |
\*---------------------------------------------------------------------------*/
FoamFile
{
    format      ascii;
    class       volScalarField;
    location    "0.012";
    object      k_0;
}
// * * * * * * * * * * * * * * * * * * * * * * * * * * * * * * * * * * * * * //

dimensions      [0 2 -2 0 0 0 0];

internalField   nonuniform List<scalar> 
106891
(
0.028791317129744926906
0.028793376135695946533
0.028794829050799580772
0.028793771779619250356
0.028790411651862107822
0.028780629048295491151
0.028767517084874173056
0.028755211805201071756
0.028745436709145272963
0.028738375840612565698
0.028732362603647747246
0.019621384110758748054
0.01973781247067530123
0.019824512608272282232
0.019879968235479085481
0.019907436845893432265
0.019914486777916729637
0.019913413497828481163
0.019909190594364720855
0.019909270718605012046
0.019921145392471389934
0.019969991732611328678
0.020023897628681525812
0.020053285562028559663
0.020065183440641513185
0.020069601916693761978
0.020077534620291034861
0.020098338145329467525
0.020156639953497427348
0.020327851655334634728
0.020773402527858458172
0.021311883317813209993
0.021830058051981977157
0.02230592406868035435
0.022731070521914493315
0.023106103867235824184
0.023428478083986851305
0.023685748225516608384
0.023860302303479064695
0.023946994714169510948
0.023965987444124505629
0.023954630063578039728
0.023877442153792657886
0.023587753481536119504
0.023218916757153651442
0.022980624499376302305
0.022857970723326168083
0.022815626026091696821
0.022812034105315962679
0.030130892152678129953
0.03017055486797471861
0.030202061484013182496
0.030226295389587133633
0.030245026231242762293
0.030258693968343755576
0.030267904532236152709
0.03027402574421632353
0.030277982227047934433
0.030280471568058308501
0.03027999717942012059
0.030277533934048309755
0.030269502711705045805
0.030250621730835758338
0.030232392379793970871
0.03021652206330645643
0.030201546440170985719
0.030189522697215989688
0.030180765481705167097
0.030172642094762829046
0.020827827611217649556
0.020862165916304038077
0.020875176508005764686
0.020876186864576991298
0.020873693316815020854
0.020864698397446788253
0.020851238427878518444
0.020843080366662807695
0.020839748753197061965
0.02084044482963383349
0.020841768464891542029
0.020841409954260713827
0.020839819510967548533
0.020840173611290216393
0.020848754422897661925
0.020885744731367998639
0.02100806579084234238
0.021374812088459909515
0.021931664284998545617
0.02248916760350365418
0.023018782727395353804
0.023497961805067375113
0.023914642135171366999
0.02426876291911585562
0.024557692540677408116
0.024775740804501379666
0.024914409123019391756
0.024977920591940139944
0.024987597470742556327
0.024972440550721133889
0.0248827254993105422
0.024575491604522978206
0.024234650816233101883
0.024026549799526553813
0.023931684066266552952
0.023910939289532220225
0.031708911598177638713
0.031731270304990885633
0.031748500083191182053
0.031761290634003104538
0.031770068630209487293
0.031776082656260529191
0.031780180627760563905
0.031783087420739708495
0.031783263043325939157
0.031782005787083046633
0.031777669481203911495
0.031769743187457039069
0.031763155507078949524
0.031758184057683727652
0.031753808096381612447
0.031750213664678339498
0.031747751734924604949
0.031747362247896759868
0.031747623588415957441
0.031749413479224213031
0.022003592098894696888
0.022027015831585328859
0.022030903817505706477
0.022028290856355523669
0.022018822553652044743
0.021986663422373757537
0.021930899198954443424
0.021890454706519235639
0.021867877317726991393
0.021858547355515022675
0.021858441679304511235
0.021866397653548492325
0.021904785259453454782
0.0220064323984690835
0.022158186157043069375
0.022377611979265441683
0.022677379436145568559
0.023054979235179195313
0.023486325754492106549
0.023950125369320871688
0.024423370269858864223
0.024895114688862178542
0.025351735647273741792
0.025779039351891675641
0.0261497134880028341
0.026432439525398324087
0.02660284344415167132
0.026669366883881016894
0.026671929002743118703
0.02662941575835207908
0.026416163031972694775
0.025936572397243222443
0.025587918886485094827
0.025405482323953655632
0.025348500500239498634
0.025350746091006643584
0.033363404447583198953
0.033358129540271924673
0.033354123168944406486
0.033350962165930440884
0.033349556062166128834
0.033349419359802408291
0.033349978901318799718
0.033351202386143925793
0.033354029346035728165
0.033360040532221975351
0.033367967448727678392
0.033376297456960080101
0.033385242842188952994
0.033394023918011946084
0.033402705279831579332
0.033410438153365980274
0.033418163643569406829
0.033422682652473292841
0.033428270061844747585
0.023079310271411246358
0.023111983797682197211
0.023122095427269034884
0.023122962082615459989
0.023121214377900170533
0.023118430753696728869
0.023120411052463311907
0.023134092305548765306
0.023182568003939411916
0.023227569704688220964
0.023246783643190979673
0.023252344537630861149
0.023258114548537576344
0.02327352484058735349
0.023317516555320154381
0.023443562118167490804
0.023759297312834430638
0.024161497745773620471
0.024593444409458799227
0.025058805966312835273
0.025562059666029434551
0.026109145210588640545
0.026686179319285102673
0.027258967832679743132
0.027768535635626333258
0.028155056648113251788
0.02838540993356604078
0.0284752637893591308
0.02848105458391449879
0.028438258624949201009
0.028217652710076642636
0.02769705630812540828
0.027301779226908441667
0.027082840360860498119
0.035008618858904272386
0.034997504708099667903
0.034991099575508742558
0.034989348552681681648
0.034989872320803014349
0.034991800497059077912
0.034996548737917111682
0.035010050364059415451
0.035043414903565314744
0.035078109922156062994
0.035107762226856797927
0.035133696762830395055
0.03515506914249954401
0.035171325182033780221
0.035184302385243886035
0.035194438115622901642
0.035201674624984746753
0.035206979168534789648
0.035209747425935314369
0.03520879891478572582
0.024108856249907668901
0.024177816376773623996
0.0242629050852214527
0.024350109851605111072
0.024424842337294715156
0.024474763494094421701
0.024498243360439677513
0.02450305567191891909
0.024502050839947057265
0.024493585574826011453
0.02448235023616189554
0.02447677033193750365
0.024477077466072669903
0.024493974014868458849
0.024571965797144539045
0.024840728599376176583
0.025354367656857595276
0.025867786918133874735
0.026351775285496346207
0.026796349414524814336
0.027209521911306638192
0.027608095237313209913
0.028006152315263335706
0.02840410280645085106
0.028775949725025978809
0.029078736163453342001
0.02927875694529832179
0.029368894456026542472
0.029383019395929951822
0.029363319393632649618
0.029245370345555452007
0.028892107388121677364
0.028581851887787654287
0.036893322659544591779
0.036872222192718753786
0.036856021726347817924
0.036843889986195726971
0.036835875593836886477
0.036832230039163416091
0.036831250030071940871
0.036831927439758299636
0.036833455334127532255
0.036836832647317928335
0.03684704402880586982
0.036869694762153952527
0.036890447396915763967
0.036907111270323901542
0.03691882348042758305
0.036927753294095193304
0.036933408255515158547
0.036938119688002757357
0.036940176645579664294
0.025652551522011540763
0.025645724333753776303
0.025631880327111639106
0.025593797391693005883
0.025537162596143275772
0.025482503533871256329
0.025434284774653703742
0.025394831533708261267
0.025368129304860539269
0.025356472157682517776
0.025355980842289703447
0.025379096304783011623
0.025494858923889893859
0.025906013392877787899
0.026654265505484307092
0.027367443468772470472
0.028008283413690653052
0.028553991692312413048
0.028996132867009201395
0.029339434028278595784
0.029601890542495682551
0.02980726435882345704
0.029970313603992437823
0.03009201735300232744
0.030171325102059387557
0.030208044427073837968
0.030213495977051290503
0.030200111086285615775
0.030121837424209652045
0.029874471004175704586
0.029634550023372008276
0.029505630571976554366
0.038737128145304361437
0.038717813755242240503
0.038702601650689297252
0.038692854109220353731
0.038688499772447516867
0.038687516173187032342
0.038688475569962826883
0.038691144433615057285
0.038696444372323168803
0.038709500146024804212
0.038735940652768315051
0.038760111015900725051
0.038778911244878519482
0.038791886306387565742
0.038800504051144553419
0.03880582598774950237
0.038808507914390701077
0.038810905798845891923
0.03880990017195206504
0.027038201088924847942
0.027032306296804815837
0.027014417210541732256
0.026957966382083864421
0.026879306053165050866
0.026811828085218689099
0.02675759479700487789
0.026721603296736146094
0.026705642264372025929
0.026703413392279228694
0.026723679208674657598
0.026831309823397389569
0.027209724369637450225
0.027844572256608572658
0.028454084603382369389
0.029031059260048515391
0.029572314567458964085
0.030084347728709357611
0.030572661840846480225
0.031037683785450295021
0.031465563942388051488
0.031826950926661851105
0.032089608223935750519
0.032243368410952856495
0.032303065682392877178
0.032308358881615012459
0.032277177073754610703
0.032110290844754495188
0.031638187187768139486
0.031214018834246685247
0.040598498323982656899
0.040578142431527811085
0.040566586971480828039
0.040561572037341703245
0.040560858144427641703
0.040562610628590858863
0.040567651322319021878
0.040578614432839700543
0.040606182242875876742
0.04063876825589268077
0.040665814399716081196
0.040685796408012099568
0.040698981405023079705
0.040707176534768386988
0.040711950183048212226
0.040713853472689916224
0.040716004602799039935
0.040714759484360152353
0.028290995649218907138
0.028272733632542953325
0.02827002661447847523
0.028276009833236082081
0.028301367592163905601
0.028324531443143046577
0.028328241139505279389
0.028325838047192679336
0.028325581217078961427
0.028340696069487920916
0.028413074408598908149
0.028659967114530206234
0.029088028564389710462
0.029519245983355656832
0.029954615533389683524
0.030395757344820667489
0.030849143872782393977
0.031331544742608248566
0.031851140603184682765
0.032399372824559145856
0.03294533518475881162
0.033436289344768256593
0.033812224287966395619
0.034043904831988144877
0.034141138593100653353
0.034155313433890832631
0.034130497877693011244
0.033984298836303390712
0.042684088687275731355
0.042681591005563214447
0.042682135387411009042
0.042686839966582276751
0.042701444547987243983
0.042742049300352143171
0.042791561911988088007
0.042833340779280637545
0.042864671885749147662
0.042885840480620898707
0.042898614761711625909
0.042904841904458437818
0.04290622478493070352
0.042905298707156404314
0.042902763307694900818
0.042898704187932817922
0.042894464163418362379
0.042884607845090329248
0.029571287663784528998
0.029579764210453482476
0.029582078565707641687
0.02958094320419279652
0.029575951486378398991
0.029570782771764253516
0.029571993358074699643
0.029599071571024905547
0.029732407661100097168
0.030158441685366021989
0.030717409807064686988
0.031210742798234013262
0.031598262374444893719
0.031849070108581838123
0.031989476660343900416
0.032093455179682893463
0.032245274189000867893
0.032500407048833099277
0.032870687309965403167
0.033331710951478195348
0.033830554855464219088
0.034296902234823595235
0.034659558704693664566
0.034879842847735716138
0.034966959092266512721
0.034975775643868396714
0.034946001480195325317
0.044540048991471709039
0.044509018499242061773
0.044480859021494963124
0.044454683136609260408
0.044434743261880571552
0.044414508690387793921
0.044398945915288715036
0.04438004254492585593
0.044365743107537020107
0.044345266056894941387
0.044329373463012140821
0.044311090421957799457
0.044295573418076904237
0.044281203212450853668
0.044265255672040253188
0.044250965688985156865
0.044231770246147411596
0.029906968555103548985
0.030171770164427222372
0.030447121176938284071
0.03073763878568765151
0.031033868789225350915
0.03131524043748729752
0.031571035134686925572
0.031811907432530095452
0.032060796485035049364
0.03232823622857283058
0.032579221030626777378
0.03276742702091667292
0.032871468981160174849
0.032905132937899227163
0.03289820483987264399
0.032816607367232339398
0.032486611535384499194
0.032089387893071204261
0.031866431136931529233
0.031791907097674508564
0.031795758155077825935
0.031884382876726076461
0.032302763473601808775
0.03344806908911313742
0.034539408563028471677
0.035295083764508100588
0.035734638354620450185
0.044489648883688462377
0.044390517182332216162
0.04428144969689584709
0.04419507714774205398
0.044103263374557874488
0.044035606649883658748
0.043963169480319523597
0.043913776107249044567
0.043855658646981966753
0.04381923959614852232
0.043770701933375413817
0.0437422872123490597
0.043699700004866393055
0.043676193278646191498
0.043619275875631524642
0.043652412815969508786
0.023783750106584240769
0.023946979772944628623
0.024332510962416724343
0.024932887890917663359
0.025624053543912235498
0.026319749903509503247
0.026932642812160591944
0.027396633389817882931
0.027688840876060133445
0.027829249068793596167
0.027869100052936610773
0.02786637747786132116
0.027833720951234350999
0.027704055214896029791
0.027336260094515337643
0.026927475717353956813
0.026595922576112780017
0.026346750034572111177
0.026185354625158009656
0.026107914728634024071
0.026088959388396507771
0.026094794979210789859
0.026138276581093699419
0.026316221835158287029
0.026931635016189066356
0.028207658715826994938
0.029429547327207952051
0.030468522570086045698
0.035497521005933750649
0.035426477294120933825
0.03536734934498968197
0.035312847880880668394
0.035272343727952445991
0.035235541614161834667
0.035208843630158005722
0.035180475560790673561
0.035159910856504383858
0.03513611445168319386
0.035121039125605803266
0.035102799413044796784
0.035092440564297985861
0.035067700648623918724
0.035114455870654759373
0.023361942711823721619
0.023410790769725697141
0.023441888105051340158
0.023480358001361386483
0.023554406350739399284
0.023726467633767515247
0.024075119669435290914
0.024488623467082554219
0.024916332057381810478
0.025312363813058180728
0.025632779141658477984
0.02585009631500017821
0.025959823528357652694
0.025992052717355332986
0.025990039611039524037
0.025954930541926980042
0.025805386875938085556
0.025605422712630648147
0.025484845271118945764
0.025434260086964362996
0.025426154148992550358
0.025434680671010529568
0.025482212407214242106
0.025658998927403094126
0.026179781925061498815
0.026839543936111567163
0.0274257945123170567
0.033697043946209655207
0.033677415505608411517
0.033656820661373008929
0.033642093823605438707
0.033625691745638425223
0.033612747757603166077
0.033596237487469052252
0.033584173550432264155
0.033569021380617548866
0.03355947102965486234
0.033546768467461227092
0.033538900907444310628
0.033518259658361998499
0.033527846354010154561
0.022372018739241390783
0.022398935074321675576
0.022434424965755827425
0.022505150312816846886
0.022678737847083515339
0.023017205010372791818
0.023397018187105014103
0.023768733567439935539
0.024091628055439896078
0.024328481860082712407
0.024465043270168424644
0.024517684885251730953
0.024522559757730558183
0.024504985988145447373
0.024414720191542532701
0.02428161619509422442
0.024210400028492055913
0.024190345773082606862
0.024195039334335546877
0.024241170021085212821
0.024427889032781941597
0.024788012681858328373
0.025130381525508973389
0.025450170004195419443
0.025758630375343948005
0.026051293761835819796
0.032571253381401966964
0.032532193212668418514
0.032505666273110273012
0.032461465535018704798
0.032434275932184793156
0.032389532371588203308
0.032363546030200057713
0.032320122789792779527
0.032296659156796782286
0.032255185725996324275
0.032233788091805493092
0.032182680899517278339
0.032182546883736257159
0.021654738237846450633
0.021846915859075166644
0.022044203409385721565
0.022241413852078128349
0.022434110699882655465
0.022622430711451386315
0.022799477050570296499
0.022955769365851197428
0.023072998778735177849
0.023141117346159860435
0.023166425830067172154
0.023167511849743135238
0.023155105138867697334
0.023111198386397933946
0.023080819979153784777
0.023075217939961784053
0.023088682243316938775
0.023171469572316388819
0.023435025332697791145
0.023752444296100308496
0.024046811426266617023
0.02433175485748850439
0.024605750219492513592
0.024871019679742364245
0.025120136463334313132
0.03130661061465771916
0.03129203081906775652
0.031259551453589107251
0.031240547384566393074
0.031200617551061286814
0.031177727332792386228
0.031131072475269815775
0.031105677855713997904
0.031055488914786214677
0.031029337867115033139
0.030968702144607458682
0.03096039865653156184
0.021034934349498563694
0.021227900451815752414
0.021432754316184517845
0.021639061788692199456
0.02184128174880335671
0.022031246990064347335
0.022198964815611288426
0.022327403665980790487
0.022406718517392301693
0.022440505963306569409
0.022444960680961488497
0.022437254136698683848
0.022394997983509336292
0.022323547773020965823
0.022283482025332954773
0.022272205439461265769
0.022275067730437782265
0.022307180550257585394
0.022439437186404571911
0.022788701201114095612
0.023179602093176109728
0.023554868844630268143
0.023907182219819484575
0.024212611506146317769
0.020614577248093977901
0.020811985873201179625
0.021005356494072792428
0.021185792321595533355
0.021344397700687193359
0.021466683815323274465
0.021543150745383730926
0.02157594709768799468
0.021580625571221982023
0.021571688330719731436
0.021520579077678490126
0.02143416629664446349
0.021386113915801599483
0.021371678901392660022
0.021374071994860847912
0.021408554646369343244
0.021552853979627237258
0.021832126313634882264
0.022111424728115256638
0.022396556808461625526
0.022684485385870339913
0.02296499586835721099
0.023221452973841951589
0.020389594996220544026
0.020534723058962808112
0.020630780234007991408
0.02068721942955359383
0.020714822756975101448
0.020722569283133113888
0.02072223111912291707
0.020710943215162629788
0.020662367186359293508
0.020603438052018988036
0.020574588415118617857
0.020567989134461679701
0.020576894445271144696
0.020639950024672032436
0.020883588307150546121
0.021264020059402550383
0.021588303528169826978
0.021862798637630798115
0.022097886095293600012
0.022303514367987869321
0.022485819524146303389
0.02006148120651462391
0.020077701517464161679
0.020082172477742223082
0.020081913254159550891
0.020075290621621538073
0.020046689593183231182
0.02000734055657025709
0.019986254763167850268
0.019979848421477441195
0.019981724430769877421
0.020004064383164169016
0.020096869336259686606
0.020365300076223835646
0.020709578983555652909
0.021062283718889227013
0.021409192517069599443
0.021721545410605735266
0.019847415642497159838
0.019829830330578616243
0.019749004834864341412
0.019624982532891389886
0.019544073000535282236
0.01950169609893144182
0.019488068279398321203
0.019487684886631440051
0.019499687496570355938
0.019558287119145263688
0.019767743318082082321
0.020159471208005867726
0.020520228965572883534
0.018893755122197441326
0.018757283582671622352
0.018642941112983497237
0.01857760400710593493
0.018551744158548794106
0.018547597455436819203
0.018554446632087228525
0.018595497007817179957
0.018742875599999892638
0.01900028311496808342
0.019261506122228044813
0.019518687578986931158
0.012908621106779358256
0.012777454808812696227
0.012385426010283164672
0.012044871291852615389
0.011863892739264874157
0.011800771891650959494
0.011798270404954515692
0.01182435073656513784
0.01195027588957192112
0.012250908169566024006
0.012475998859423744272
0.012598583705906239716
0.01265218478412589824
0.012687947443875097903
0.012750721994482124705
0.012900232420993085203
0.013336213915540795494
0.014027427181289268618
0.014625351043581015509
0.015057813260182946122
0.031273204567160275968
0.031192901561462291898
0.030787481541511320382
0.029780452099555473899
0.028964990113929948296
0.028473975997604965976
0.0282478543800820589
0.028175770019588330245
0.028181055428230437215
0.02820812009254332689
0.028268973013443186859
0.028306011585627916666
0.028331606212493597868
0.028365764314959199255
0.028438723796492478696
0.028630538901921239597
0.029200467744980695972
0.030553828986012721014
0.031868323996084885197
0.032834374715697514646
0.03341868300027796973
0.033681155217230029919
0.09450017149303850672
0.094597116610546164162
0.094546301513039138209
0.094314233612205339297
0.094266804475100524074
0.094327754332927907233
0.094544565362381580154
0.095086438345745788459
0.096405994205978506884
0.097817328475755666028
0.098923515107230131083
0.099773481986292864021
0.10040637363030247009
0.10085348447337258437
0.10127006661783542751
0.10192013539327583749
0.10333843626109195935
0.10601364839228066828
0.10887177861501978748
0.11126686581516857799
0.11291525596478536875
0.11377300317170979671
0.11403351347357464085
0.11401933505514028067
0.11386210105862097641
0.11337054319372144584
0.46988711999369414674
0.4713903000937635368
0.47239581528435192759
0.47347756537827595524
0.47531942997233661563
0.47939489673957064175
0.48718225145641091967
0.49641886926562106552
0.5056569617529428351
0.51402540722008616125
0.52087849913208927877
0.52631258154075832856
0.53089035710203780205
0.53568646705057254565
0.54157266574484708155
0.5489480671923007149
0.55783423824521793932
0.56748929539334447281
0.57671635911434282473
0.58448466398220266793
0.59015080447024026444
0.59361071506255447261
0.59531990549448254857
0.59591653105842545823
0.59603484696521757957
0.59611732809548256817
0.59642601890052815428
0.5973568773535837817
2.0055565226505001064
2.0085219597130450353
2.0118431920275776648
2.016719558202360485
2.0237550693717123451
2.0331566255287722988
2.0441773348389111753
2.0559062431219126132
2.0671286017801122625
2.0771425212880894051
2.0856045958123723416
2.0931092999813709632
2.1001742178042892562
2.1076286166222830687
2.1159806209865923421
2.124948300498519238
2.1340183951216729064
2.1420113878696871446
2.1478639931835816768
2.151264618068062795
2.1523188662349888034
2.1522509032259415918
2.1517283477826851801
2.150536327070171172
2.1498833009971280994
2.1497772749560404293
2.1506697480703129699
2.1543634092122987411
2.1589562278928093875
2.1631350289935853404
4.3872457441625378749
4.376968002307640937
4.3681221228528981371
4.3599706351229752244
4.3517103449769640733
4.3426933009636918825
4.3325665113740114975
4.3212740839020744588
4.3089916909613954488
4.2960580772389507231
4.2829495805824810972
4.2702710742493756868
4.258532611317452421
4.2479270018911439166
4.2381869410006718368
4.2286131267048734372
4.2183543774749825417
4.2068229496673597012
4.19396355161165868
4.1802397416475383096
4.1664453930407310267
4.1533239090506164359
4.1412827385462573915
4.1303309598424187143
4.1201600796827992923
4.1103948417250020242
4.1006235171140561491
4.0905797478483529872
4.0800194995106116025
4.0688668538694621191
4.0571545910741262375
4.0451529366772414065
6.1499260684593348714
6.1204537018855367236
6.0912475951729314616
6.0620650409911398526
6.0328356502809423745
6.0037644616145176002
5.9752024214715326877
5.9473732678380226702
5.9201618863264622306
5.8931558330361282216
5.8659811646492050485
5.8385988889936424329
5.8113304090286970194
5.784564848103707746
5.7584009364532402486
5.7326365529920186859
5.7069547164479184076
5.6812103189051539331
5.6556024124350328108
5.6305491443972863763
5.606433457848133628
5.58334305562922939
5.5609975233976243203
5.538920253030098273
5.5167186272983705919
5.4942732107231702088
5.4717237651050014691
5.449236114363813499
5.4269066803677636912
5.4046992962972240093
5.3826392960911118024
5.3607975076585692165
5.3394058906203571979
10.59186548179685694
10.491134752262853524
10.394393434572362978
10.29842686073341973
10.201718003273011703
10.105697106522548268
7.2430255565884635871
7.2065330462356875785
7.1705999891663880774
7.1348019021089301717
7.0990015422129886247
7.06342636967184756
7.028511683827316503
6.9945153344863024714
6.9612060513803770689
6.9280640450881536552
6.8947776384027772423
6.8614445516532436287
6.8286032820552451383
6.7967731085371321242
6.7660879573259888886
6.7361899110080072361
6.7065461185474317674
6.6769250946061458052
6.6476486000659846809
6.6193029938554683866
6.5922468231349142798
6.5663728181756573221
6.5411561186578124349
6.5159874655776546248
6.490587957689556653
6.4650207222805846641
6.4395408002292260363
6.414329318996091267
6.3893841091699705714
6.3646749140104850184
6.3403297594332093112
6.316614118653388843
6.2938708639811817847
6.2721027840185783475
10.221307311431486298
10.113770983104531709
10.012149044523061647
9.9106931985203807756
9.8064322228951930072
9.7014863774327331214
9.6001782547506699927
6.8551091245627961968
6.8201718011921705909
6.7840851049950314788
6.7470239309689441498
6.7098030175804161956
6.6731608006615950046
6.6372380501827228372
6.6015194727635160277
6.5653214097013234962
6.5284493241524428342
6.4916363628559814458
6.4562334532340672766
6.4233340696798864045
6.3930847224039881738
6.3647314020041259042
6.3372264658630212963
6.3101839111576527586
6.2841791281999794805
6.260053670009475546
6.238073073547638181
6.2175644987522167284
6.1972390131925108037
6.1758493920817167933
6.1529195052019094447
6.1288643736818695373
6.1045838930807976297
6.0809645725204743982
6.0585673002683693156
6.0375952607879792566
6.0181570358282598932
6.0003707967439829929
5.9842611454291647632
5.969377844200634442
5.9547638965409106504
5.9392313885040799448
7.4599333233265642789e-05
7.4633884183815114551e-05
7.4736931802965432146e-05
7.4905948202084681972e-05
7.5231128982148311114e-05
7.5439988201029585264e-05
7.5768887322495451719e-05
7.5952674346420264188e-05
7.6243098567799696291e-05
7.6380029566845483312e-05
7.6723242583694455272e-05
7.9431512121541102719e-05
7.9504275219052114132e-05
8.0294782981820710436e-05
8.3550026321234306843e-05
8.7808047726679118753e-05
9.0221477188235149809e-05
9.1131482645299085091e-05
9.1231824081692894086e-05
9.1114595995745833708e-05
9.0627521465868869795e-05
9.0104106177266770489e-05
8.9888833334342087668e-05
8.9855573114880395451e-05
8.9909440421709406303e-05
9.0277846920313139416e-05
9.1849847956097544432e-05
9.7624467267290723012e-05
0.00011392009502921471536
0.00013122200475318218042
0.00014362170561718802389
0.00015050623097454180529
0.00015299080373089182869
0.00015343197864838069256
0.00015388021159783447965
0.00015634882140269954843
0.00016872943901224780948
0.00021414960645695492545
0.00027158404055164885168
0.00030675710409228671479
0.00032123778918797027794
0.00032328504887179645381
0.00032062217282997646645
0.00030647419186926330931
0.00028653936952993241255
0.00027544893881946430365
0.0002708750320131091344
7.7691230617346317415e-05
7.7246849125799308387e-05
7.6636937056040159845e-05
7.6108131195675956431e-05
7.568083654975598794e-05
7.5364245151828015393e-05
7.5156192890850410829e-05
7.5038699188974969183e-05
7.4990831242833380448e-05
7.4981200018641439757e-05
7.4981075134259957864e-05
7.4977035340631487245e-05
7.4959717159705968105e-05
7.4916983696799037992e-05
7.4858689307758476323e-05
7.4784939293256666708e-05
7.4721374294269099991e-05
7.4662008067487525853e-05
7.4623286110939201013e-05
7.4598897124397589727e-05
7.4598060460072515348e-05
7.75750037774016653e-05
7.8050969702768860999e-05
8.0197079883026020793e-05
8.4982716478501616505e-05
8.8588475229775019508e-05
9.0580795905997958163e-05
9.1316076249351875557e-05
9.1366617469781894498e-05
9.1202030678023610142e-05
9.0456674199458986046e-05
8.9487282979687837931e-05
8.8997948375979353346e-05
8.8831372224506199246e-05
8.8819055482255811402e-05
8.8950427536471524202e-05
8.9782979052779456433e-05
9.3309276576335032998e-05
0.00010553419067007910044
0.00012236649830809376315
0.00013427077731387263839
0.00014071618663358847925
0.0001430364138230460385
0.00014369117678049621051
0.00014472273792666325715
0.00014855545660825685028
0.00016441101208143342363
0.0002162402556653111093
0.00027533126143592680495
0.00031301173954030841583
0.00033026005033564100923
0.00033401627619764691531
0.00033281728680854881595
0.00032413986114533248654
0.00030375334671205438813
0.00028978170352551152478
0.00028259033564480181807
7.6492565298281803006e-05
7.6482220353329635363e-05
7.6401077036471280171e-05
7.6207774059655467892e-05
7.6059797110103344472e-05
7.596930035685743154e-05
7.5931362842037166089e-05
7.5924274773520546481e-05
7.5929658849403349548e-05
7.5943524618351325429e-05
7.5953683006635023612e-05
7.5958895028581854673e-05
7.5959627582969434061e-05
7.596027292694823769e-05
7.5954957958635795339e-05
7.5952535098061652171e-05
7.5953477296485696598e-05
7.5977564581901189814e-05
7.6012344844003643368e-05
7.6130596201596275729e-05
7.6102767734613903329e-05
7.7057041624255695911e-05
7.7566795974199349135e-05
7.9263378673075009792e-05
8.0916270628289806784e-05
8.1756121372771406257e-05
8.200185764519588613e-05
8.1991275913096889403e-05
8.1819468983176536618e-05
8.1165311962141204892e-05
8.0477927625903291644e-05
8.0146880705113873202e-05
8.0048749807820626461e-05
8.0046767292838219825e-05
8.0154887821054702601e-05
8.0815717881686311222e-05
8.3608732662415521908e-05
9.3741844710229168831e-05
0.00011045212667948132296
0.00012320462413510538217
0.00013086260768880984438
0.00013435087894435922967
0.00013605837483040986516
0.00013863785683741918007
0.00014514724545461034312
0.00016627515252493556925
0.00022197891967430874861
0.00027599412561948519218
0.00031166589307242485545
0.00032868372963197313658
0.00033275478027717825692
0.00033183357806862591845
0.00032420151455428528357
0.00030434789691921658276
0.00029011748222026941283
8.2747879988331754855e-05
8.2686773083170668572e-05
8.2538631111952359166e-05
8.2426619079317106934e-05
8.2370802359768550038e-05
8.2349505622051924979e-05
8.2350473908065035373e-05
8.2357241844069426634e-05
8.2378258977759637031e-05