/*--------------------------------*- C++ -*----------------------------------*\
  =========                 |
  \\      /  F ield         | OpenFOAM: The Open Source CFD Toolbox
   \\    /   O peration     | Website:  https://openfoam.org
    \\  /    A nd           | Version:  12
     \\/     M anipulation  |
\*---------------------------------------------------------------------------*/
FoamFile
{
    format      ascii;
    class       volScalarField;
    location    "0.012";
    object      p;
}
// * * * * * * * * * * * * * * * * * * * * * * * * * * * * * * * * * * * * * //

dimensions      [1 -1 -2 0 0 0 0];

internalField   nonuniform List<scalar> 
106891
(
100633.05032261055021
100631.03553550224751
100631.66199475633039
100636.46879145769344
100646.45054230536334
100661.83745127546717
100682.10494057605683
100706.06242644497252
100731.90747677210311
100757.52393623435637
100780.61297479603672
100686.49223403126234
100676.27963289021864
100667.19076620100532
100655.4685249197646
100639.28971214471676
100619.63063726227847
100600.29082619216933
100585.7246777536493
100578.99617155405576
100579.52266973207588
100582.39596741575224
100580.64697088525281
100569.36957796967181
100548.84156612804509
100525.16600164596457
100507.37107336126792
100502.36573281409801
100510.77014525796403
100527.16230421350338
100544.12258176051546
100557.16772576091171
100567.13183235871838
100577.76225380749383
100590.57751831442874
100603.25766775496595
100610.91469473592588
100609.59413403829967
100599.47426949777582
100584.53282878820028
100569.88348050457716
100559.35065813723486
100554.35344820587488
100554.71118041647424
100559.45718205856974
100567.62401332973968
100577.30229142581811
100585.78683886716317
100590.88836679709493
100657.24375701356621
100658.73706076365488
100661.46826986520318
100664.844316266448
100668.09848078977666
100670.45581719918118
100671.31624511520204
100670.46609580595396
100668.23571619544236
100665.52184430955094
100663.68690938982763
100664.32289272360504
100668.84978170694376
100678.11990162334405
100692.19604564478504
100710.3491561862611
100731.24358998723619
100753.16784448093676
100774.36181935414788
100793.10601071524434
100652.31020053115208
100632.54704646590108
100611.52209131808195
100590.28371435847657
100570.96001601044554
100556.35972044842492
100548.81756218259397
100549.07327070417523
100554.67411337130761
100560.14496180498099
100558.82360525066906
100546.66149342420977
100525.35542682046071
100501.89356830596807
100485.5102873910073
100482.56489968960523
100493.0474079932319
100510.56259824290464
100527.43229026078188
100539.23329853641917
100547.31319040380185
100555.90264244578429
100567.68651956203394
100581.11534377197677
100590.99289336359652
100592.66153724756441
100584.76094180881046
100570.27912648863276
100554.22901013605588
100541.02913338439248
100533.25698789260059
100531.40263637452153
100535.32245219219476
100544.39654420439911
100556.76742446339631
100569.50070524006151
100685.41835424439341
100688.88674762945448
100693.48247495098622
100698.56507063269964
100703.35541905062564
100707.08757682521536
100709.16778987180442
100709.35702724206203
100707.95417717541568
100705.82148867291107
100704.21279367883108
100704.52681585785467
100707.99815871208557
100715.34512730281858
100726.54133653317695
100740.83065474778414
100756.92988395997963
100773.32156871449843
100788.5700767149101
100801.51273011701414
100629.26075858421973
100595.95890783464711
100564.53003195230849
100539.24341139913304
100522.74858551524812
100515.47973705861659
100516.55274533545889
100523.28962063840299
100531.42890369107772
100535.49981024830777
100531.1897540964419
100516.93904121374362
100496.12414234090829
100475.92704858984507
100463.98187557440542
100464.73261140497925
100476.92841017182218
100494.1148372268508
100509.38096141751157
100519.07559849580866
100525.03061477570736
100531.14869515923783
100540.53427300360636
100552.62491747573949
100563.36686904510134
100567.71391972682613
100563.43948757449107
100551.91875087290828
100537.35538549938065
100524.05422547488706
100515.1620013868087
100511.81361034409201
100514.78007246257039
100523.95309952023672
100538.02199169078085
100553.64758860114671
100721.1924604971282
100727.12675156786281
100733.69216419044824
100740.17341124861559
100745.79215190488321
100749.89615055527247
100752.11756313589285
100752.50398575000872
100751.61745347746182
100750.41228138690349
100749.97746450208069
100751.34262149744609
100755.23536388577486
100761.79058929128223
100770.47916922226432
100780.30398750661698
100790.07529511675239
100798.71659650153015
100805.52529229673382
100561.34861764259404
100520.1810292841983
100492.24232468901027
100480.064283216896
100481.23101449785463
100490.94162653839157
100502.70074322208529
100510.51391460419109
100509.86779310091515
100499.11025315847655
100481.12386322773818
100461.11710323438456
100445.88461095743696
100440.56963021426054
100446.41949502409261
100460.22846125965589
100476.3015001333988
100489.3204236877209
100496.94779876798566
100500.31112187840336
100503.32671358701191
100509.3342727880663
100518.72442885418423
100529.00620772755065
100536.32951174025948
100537.37672347083571
100531.50963773524563
100521.09486138628563
100509.71509346269886
100500.83394417232194
100496.58901596692158
100498.58988167157804
100507.10098451102385
100520.86276833059674
100747.16149691658211
100751.95753115740081
100758.10674694289628
100765.35678399821336
100773.16965338699811
100780.81679986826202
100787.52780922927195
100792.63444640455418
100795.70739143253013
100796.71879637241364
100796.07447030242474
100794.47907976941497
100792.78494585810404
100791.80187972339627
100792.0682374065218
100793.68058563691739
100796.26748579612467
100799.14751525509928
100801.65540952808806
100803.43700259603793
100533.6689814956917
100485.46023615106242
100456.31567750936665
100448.35234992328333
100456.85155434728949
100472.93161991082889
100487.43726477320888
100492.40278384667181
100484.84483764282777
100466.38971093768487
100443.10548101300083
100422.7519132255693
100411.81334030235303
100412.76645370536426
100423.49883049154596
100439.2693879941362
100454.83240340479824
100466.12566543303546
100472.23423084181559
100473.66822183984914
100473.5797344318853
100475.66558159067063
100481.99068657567841
100491.9913508596801
100502.5915871803445
100509.75290293421131
100510.59836305299541
100505.26491901979898
100496.70402855667635
100488.88577554188669
100484.67373578960542
100485.54015414403693
100492.07173971662996
100779.98509415012086
100784.83286762222997
100791.35050586670695
100799.33923588016478
100808.24696431795019
100817.22895138055901
100825.25745327347249
100831.28407275359496
100834.47493012985797
100834.4790259161382
100831.51504580765322
100826.25111794973782
100819.65975709722261
100812.81430498203554
100806.61452684825053
100801.6084935352992
100797.93998025213659
100795.39571900996089
100793.81489719098317
100467.09799289642251
100438.29900589128374
100432.89968742022756
100444.82660207318258
100463.05243241650169
100476.23910825929488
100476.73423456825549
100461.99939636763884
100436.22510318431887
100407.45858078158926
100385.11238985649834
100375.50726587025565
100379.5050246828323
100393.32337528627249
100410.88704938851879
100426.95055098517332
100438.70799960830482
100444.74118084301881
100445.67592709984456
100444.15431995618565
100443.8811733237817
100448.22250420076307
100458.47818800497043
100472.06154540691932
100483.99167152642622
100490.13129582624242
100489.35884539451217
100483.783685999093
100477.00442017249588
100472.53928848450596
100472.19871799262182
100476.11021473183064
100804.12621731453692
100806.436600928384
100810.85146982232982
100817.60405707816244
100826.41422886220971
100836.44182356490637
100846.3901873032155
100854.70531367177318
100859.85659642027167
100860.70444767485606
100856.83149840791884
100848.64086999015126
100837.20311508869054
100824.00492048733577
100810.67289373808308
100798.68812597921351
100789.13811447581975
100782.52008332427067
100778.93058120962814
100440.74872807672364
100436.18890824598202
100446.49137229895859
100460.81643319572322
100468.50514227282838
100462.87189615215175
100442.59944025463483
100411.9920660413045
100379.45722799737996
100354.1551234943181
100341.80513156455709
100343.63969492500473
100356.50807136476215
100374.28764576767571
100391.71043931817985
100405.23805962559709
100413.36653991659114
100416.67334071555524
100417.03104526807147
100417.81341523799347
100423.0726797022362
100434.05565711550298
100448.50490354358044
100461.93967734451871
100470.29050711308082
100471.64037973605446
100467.5313911876583
100461.26478415292513
100456.62674972567766
100454.86733464573626
100821.99314101551136
100823.26616273667605
100827.37961987550079
100834.39354384834587
100843.68472097614722
100853.95926767487254
100863.44014189920563
100870.17485170526197
100872.4300856574846
100869.13232479013095
100860.1633053033438
100846.39430757853552
100829.51467863861762
100811.63891063044139
100794.87296564529242
100781.00648224892211
100771.27584879874485
100766.28439789089316
100453.15390488349658
100457.55063005578995
100463.05240783204499
100461.99822083773324
100450.56211291761429
100428.10918126729666
100397.40771540674905
100364.07594255685399
100335.81835375470109
100318.24709128144605
100313.62421681807609
100320.57979282893939
100335.05701841053087
100351.97156285107485
100367.27573563126498
100379.02756071653857
100387.10559787666716
100393.41112220988725
100399.99099662613298
100409.1327696506487
100421.3792699285259
100434.59494900520076
100445.71273806031968
100451.53288982501545
100450.85099747614004
100445.70273191849992
100439.32717688102275
100433.8794887947879
100830.11968939546205
100827.81075599003816
100828.53517392091453
100832.73186428121699
100840.08458290695853
100849.48161554102262
100859.17093438396114
100867.08627151082328
100871.24690978150466
100870.1388083982747
100863.06246201122121
100850.37512873280502
100833.4702170046512
100814.48758855463529
100795.87849553837441
100779.90932431869442
100768.27635549061233
100762.06583100957505
100466.69104803496157
100463.24930721428245
100455.62239601717738
100441.4399043789017
100420.82576643727953
100394.37955661516753
100364.3431420900306
100335.27981255271879
100312.6127418607648
100300.04034635705466
100297.85323413644801
100303.87978470601956
100315.30012353198254
100329.30102812348923
100344.10475836091791
100358.80284841223329
100373.82432289175631
100389.17513850958494
100404.22712970228167
100417.55642888582952
100427.67387297652022
100432.70358633396972
100431.74705664056819
100425.96276301340549
100417.95314018735371
100409.80498906694993
100403.09421156406461
100824.8954932440538
100823.11140891964897
100825.23856444015109
100831.09368787810672
100839.70827040995937
100849.47425918631779
100858.40975440361944
100864.49874849585467
100866.06466917149373
100862.09616258855385
100852.47719731320103
100838.10727068460255
100820.77977707248647
100802.85280256747501
100786.79722677805694
100774.63457565719727
100767.77327133702056
100468.74518752924632
100461.41932765272213
100455.37207339679298
100448.29601872144849
100437.80377289532044
100422.06509400396317
100400.94009408152488
100376.67196841909026
100351.42685040578363
100328.01630582421785
100309.07899708350305
100296.36432954546763
100290.6747700269043
100292.0666409983387
100300.35852146206889
100315.01447865016235
100335.31173209608824
100357.6092469633586
100379.64503739999782
100398.7207616733649
100412.46064471364662
100419.40217691109865
100418.93640105998202
100411.93313855894667
100401.08000055998855
100389.07339499324735
100378.43642763748358
100813.93310683836171
100816.28843988997687
100822.57760314746702
100831.68516642514442
100841.97289573616581
100851.56656246440252
100858.64985563435766
100861.72832334016857
100859.88051576139696
100852.9326335270307
100841.53468345150759
100827.09874497988494
100811.59445211425191
100797.20438447047491
100785.86863973055733
100779.12359919706068
100442.61987933507771
100439.60357461715466
100439.69096509896917
100439.78379389541806
100435.51599538924347
100424.30392116107396
100407.56892455425987
100388.49096888006898
100370.08368557257927
100352.93173605800257
100335.67791532549018
100318.23534798482433
100303.14745163437328
100294.41840171537478
100295.12379529733153
100306.07455874880543
100324.22520222925232
100345.41230654783431
100365.99676859965257
100383.65261887000815
100397.21829208846611
100404.71407032517891
100404.85920263228763
100397.93188514758367
100385.97202900337288
100371.75595313000667
100358.72224416874815
100348.4357877287548
100810.48615491203964
100818.82847188254527
100829.42085536508239
100840.37675731937634
100849.74324654508382
100855.88212434314482
100857.7652578050911
100855.09345253359061
100848.19579719904868
100837.92442033808038
100825.57208006791188
100812.73124500867561
100801.09260173221992
100792.07839681519545
100786.82447029155446
100413.33417284343159
100421.86197661831102
100428.99702394593623
100429.42745300629758
100421.07116483710706
100407.64167920741602
100394.15916515495337
100383.28878172580153
100373.83344543125713
100361.97586753311043
100345.43271162200836
100327.07734566203726
100312.67698912028573
100307.39419937244384
100312.30673770746216
100323.59961427250528
100337.78178887930699
100352.05626616958762
100365.61845626142167
100377.98047157903784
100387.12845822080271
100390.49285906969453
100386.98697069010814
100377.22888829318981
100363.71004717724281
100349.70564404464676
100338.22778243750508
100817.66773849081073
100829.37099673734338
100840.3912954126281
100848.74293657109956
100853.04473303408304
100852.77082328412507
100848.20852127221588
100840.22218703382532
100830.04411627132504
100819.03654852343607
100808.47030493088823
100799.44440722008585
100792.70439840195468
100788.86753741621214
100402.53572340335813
100415.20842004155566
100418.18895599599637
100411.73590122276801
100401.44960445328616
100393.87036344435182
100391.16127937774581
100390.07446884717501
100385.28858168063744
100373.55310949514387
100357.07673373122816
100341.40783248854859
100331.69027602643473
100328.8811730692687
100330.47309760478674
100334.13150709198089
100339.11364207837323
100346.58613624279678
100356.56095506814017
100367.17304706656432
100374.81901288774679
100376.57945641891274
100371.27104488965415
100360.55803635304619
100347.6118375914084
100336.31557768442144
100829.04182203207165
100839.3785527619475
100846.17512598984467
100848.31774250917078
100845.68267184392607
100839.03180368534231
100829.73589452146553
100819.4015394950984
100809.4493614446983
100800.85948537876538
100794.1600961071963
100789.45807949565642
100786.85153035937401
100397.79597565405129
100401.34527594380779
100396.45523268861871
100390.18030778347747
100388.74823947633558
100393.58657056163065
100400.21557349787327
100402.45233769538754
100397.1696029848099
100385.87655934916984
100372.66330747657048
100361.08310310977686
100351.89245492166083
100344.04161449606181
100336.98630427307216
100332.06470211839769
100332.06860649403825
100338.13786876705126
100348.61481888435083
100359.32269248759258
100365.94177926129487
100365.9023797432892
100359.68908751891286
100349.91001630840765
100340.79084310405597
100836.13439590515918
100841.20783187432971
100841.44782597878657
100836.9958931182191
100828.90306553700066
100818.83952002624574
100808.60070640505
100799.5982672872633
100792.60713632892293
100787.78835439268732
100784.79183828017267
100783.20149008336011
100380.94458742793358
100377.92809753466281
100376.00131779523508
100380.31635309773264
100391.11697366071166
100403.85616770893103
100412.38805868159398
100413.46973879467987
100407.90787909404025
100398.70778036529373
100388.00268006473198
100375.68522303448117
100361.69846263888758
100346.54783401118766
100333.31988349398307
100325.96961149126582
100326.71488002724072
100334.79982201017265
100346.1917431357142
100355.97792851635313
100360.43701288642478
100359.08160417681211
100353.87773188162828
100348.70886401254393
100359.7664964338328
100361.48135279085545
100369.95612549553334
100384.73662310313375
100401.49999412731268
100414.91734359231486
100421.55754986774991
100421.15350203946582
100415.8327692981984
100407.36108445878199
100395.60252917325124
100380.01757797978644
100361.34477642051934
100342.83738146905671
100329.33466369155212
100324.29376674303785
100328.03158884664299
100337.57099090154225
100347.96011700226518
100355.2088747772068
100358.09280677883362
100357.80043856376142
100357.66823910821404
100358.63623726778314
100375.11843346017122
100394.34901828152942
100411.24977909711015
100422.07403532376338
100425.66566989528656
100423.73066834146448
100418.35061344108544
100409.47839125320024
100396.17828586981341
100378.23817466097535
100358.3213256286981
100340.93476759183977
100330.64063131318835
100329.24647695382009
100335.08663555563544
100343.64235863160866
100351.42779310962942
100356.65792495649657
100360.33469719685672
100365.43808920234733
100416.801335975455
100423.14826772203378
100423.7463264085236
100421.35650516832538
100416.70747351624595
100408.28148820436036
100394.41612589092983
100376.31065027561272
100357.80027609494573
100344.01011395457317
100337.9722766403429
100339.2979654041992
100344.59296994195029
100350.65781425211753
100356.13639091605728
100362.45625721868419
100371.4522815989767
100418.35576344856236
100415.81871314813907
100407.92376496612269
100393.97875473297609
100377.03258059741347
100362.05379545652249
100352.88088547429652
100350.04196849127766
100351.39094404842763
100354.41665498680959
100358.47567273360619
100365.06456077516486
100376.04206094355322
100418.25266306297272
100416.77620222981204
100408.66401113414031
100395.51707427795918
100381.86585521732923
100371.60934012092184
100365.82933969254373
100363.45572619617451
100363.02583572738513
100364.41229091852438
100369.30482624004071
100379.61062051757472
100611.60539148550015
100622.3670909179782
100632.63455899522523
100632.65989718509081
100617.58748003296205
100591.79266109784658
100565.32435530239309
100545.78068630438065
100533.68413979807519
100524.48627974459669
100512.96505234166398
100497.46244620069047
100481.2325862753205
100469.75053666158055
100467.59491877473192
100476.55701811159088
100494.7074248593417
100516.14199505336001
100532.31342768309696
100535.60727252349898
100616.46980328930658
100617.32097554815118
100626.24695366564265
100635.64959231918328
100634.95907143424847
100618.38228121939756
100589.82640026777517
100560.11000453747693
100538.36191617383156
100525.69499274312693
100516.59430214908207
100504.46606999641517
100487.45256205477926
100469.8718957126257
100459.00629308246425
100460.39062561695755
100474.67644872143865
100497.57483597956889
100521.13455469810287
100536.78484873766138
100538.75762684566143
100526.22533453800133
100637.70426197927736
100631.91256299449014
100623.91546809268766
100622.51560693906504
100629.7544044329843
100638.41194760464714
100637.04356850583281
100618.95404334100022
100587.6734880215663
100554.87253145220166
100531.12949526889133
100518.20030709299317
100509.57236901616852
100497.20640057319542
100478.94903538578365
100460.04244576816563
100449.57796433701878
100454.06258376101323
100473.17005651570798
100500.3157707790524
100525.64666890157969
100540.61047914554365
100541.18407212417515
100528.20149724614748
100506.53055336821126
100482.667620716893
100641.70317595229426
100646.67187399239629
100640.34831267135451
100630.52509539395396
100627.03339467410115
100632.86449958414596
100640.98751447023824
100639.10754036340222
100619.60387985524721
100585.78532855882077
100550.03351820122043
100524.42734897497576
100511.44917832715146
100503.65834236782393
100491.30315203494683
100471.87736247213616
100451.65650332374207
100441.37691440695198
100448.55937843180436
100471.9823665003496
100502.87324143953447
100529.68294198675721
100543.88240079440584
100543.07597675030411
100529.71788247923541
100508.80515516904416
100485.35513572087802
100463.66014433970849
100631.85527642047964
100648.93928150404827
100654.48544459848199
100647.57602851986303
100636.11723979697854
100630.76248703108286
100635.53287271328736
100643.35917498113122
100641.16032381879631
100620.20195254175633
100583.88928935487638
100545.39573473004566
100518.19508815855079
100505.41929275705479
100498.69325493559882
100486.61093082233856
100466.08483104416518
100444.54030466754921
100434.29088789199886
100443.77087100253266
100471.03329565837339
100505.22688409226248
100533.25806241483951
100546.66980266940664
100544.53302610370156
100530.85886283464788
100510.75166471481498
100487.82275810952706
100465.05318179329333
100446.31748395759496
100614.29744503373513
100636.67827816601493
100655.16147497830389
100661.05870825135207
100653.52474882394017
100640.60204282013001
100633.61766932702449
100637.67098928151245
100645.4849826101854
100643.1749272285233
100620.95493418705883
100582.2943830366421
100541.40219264737971
100512.77702773513738
100500.33503878349438
100494.74930182432581
100483.10135661030654
100461.50198433888727
100438.60494181775721
100428.27958732085244
100439.67875846281822
100470.30308964491996
100507.38629443298851
100536.41864864229865
100549.07483626961766
100545.68996096496994
100531.73105679583387
100512.34138045935833
100489.94174689655483
100466.21839499736961
100445.25530037502176
100434.14458493229176
100616.39542081431136
100640.28861526882974
100660.0530566596135
100666.28625771937368
100658.07873470887716
100643.86917085340247
100635.61255802279629
100639.19275065041438
100647.30065654253121
100644.86885168874869
100621.80129867955111
100580.9212308836286
100537.7780529839365
100508.19494263493107
100496.27618413581513
100491.84305616024358
100480.71155984362122
100458.21557939574996
100434.02954716657405
100423.56348093574343
100436.41711951195612
100469.75709218994598
100509.22881353256525
100539.04285354378226
100551.04011533416633
100546.59102472303493
100532.37352870473114
100513.58740373479668
100491.65768062749703
100467.22035915227025
100444.38542086907546
100431.37972568252007
100436.21938625731855
100595.90292506686819
100612.04444742320629
100659.2402895760024
100681.02273855372914
100651.816970136686
100596.05232715621241
100617.64913677847653
100642.73091113386909
100663.43426762419404
100669.93854407819163
100661.22057748695079
100645.9424805616145
100636.84802874554589
100640.17339338459715
100648.66301871385076
100646.28989668075519
100622.42522281037236
100579.96586874348577
100535.4264446758898
100505.10594314409536
100493.55861843685852
100490.05556733983394
100479.29889685644594
100456.0952137177228
100430.77909578625986
100420.1267093696224
100434.03002365825523
100469.37274916011665
100510.64094196647056
100541.0087843407091
100552.48260736260272
100547.21835785244184
100532.78249218950805
100514.43530302130966
100492.82937512367789
100467.87210575371864
100443.66925274611276
100429.28931822106824
100433.8139567450562
100458.09517199189577
100639.01175805382081
100591.40410391830665
100610.90187158144545
100662.67499837883224
100685.4641477837431
100654.09442531799141
100594.81899202195928
100618.2541428161494
100643.94118969536794
100665.29096105099597
100671.73971053923015
100662.69445559209271
100646.91972325378447
100637.44416811913834
100640.66391804516024
100649.42397426917159
100647.12912096342188
100622.67638605495449
100579.41985691236914
100534.0606593528355
100503.41434709291207
100492.16567899056827
100489.266826704712
100478.67399330913031
100455.0506157977652
100429.00419182115002
100418.23407958769531
100432.79577396226523
100469.23162439691077
100511.51594249391928
100542.15428528255143
100553.29700302063429
100547.56653893097246
100532.99757137557026
100514.88930164603516
100493.45355825846491
100468.21628557934309
100443.25428745296085
100428.12600153859239
100432.55791197896178
100457.61807012578356
100490.51807048504998
100627.56399925673031
100619.90799785137642
100608.34601458802354
100594.37072563885886
100580.02627238324203
100567.55669762741309
100559.04894862048968
100556.15373286273098
100559.80752606972237
100570.34496346133528
100587.03372037321969
100556.47097635350656
100546.67956797519582
100535.26181486375572
100525.99623206500837
100520.60929882200435
100517.97415159542288
100515.33440031330974
100511.22319408068142
100505.40671280202514
100499.91147721139714
100495.76134733716026
100492.20267691815388
100487.58409160873271
100481.81364303715236
100476.77800421720895
100474.98550189759408
100477.55344822634652
100481.99381489194639
100482.80543179635424
100475.5215569017455
100461.15717516606674
100445.65748652754701
100437.53842157871986
100443.84694132128789
100465.32148189673899
100496.91659709626401
100529.87972955437726
100555.4469344655954
100567.95612033942598
100566.72323486905952
100555.16837939625839
100539.76239879228524
100526.91798846966412
100521.18737490747299
100524.48162458476145
100535.52615526253066
100566.25204336701427
100570.05021187046077
100576.68915797019145
100585.83929189246555
100596.89541426347569
100608.9810678234353
100620.9411330067378
100631.39115955495799
100638.87267721068929
100642.13924219243927
100640.4170425637858
100633.59232687902113
100622.35232167069626
100608.21189160757058
100593.37746189627796
100580.40939459140645
100571.79475513081707
100569.53430486723664
100574.72855602311029
100587.65212127230188
100607.33024540553743
100510.03364634214086
100505.6999171449861
100506.96219373124768
100513.81635212237597
100523.48391666352109
100530.75407585497305
100530.92814908716537
100522.32986762833025
100508.32211953350634
100493.89670164746349
100482.37799637645367
100473.67753602702578
100465.61943004684872
100456.65257736571948
100447.92131569974299
100442.54435887729051
100442.76171063794754
100448.0105097994965
100454.01187351763656
100455.87364740461635
100452.08150617989304
100444.96230383151851
100440.2351509728469
100443.62275749990658
100457.12739985086955
100478.60594635595044
100502.47442474671698
100522.12593110107991
100532.19327092677122
100531.06076481280616
100520.86823008854117
100507.06345483959012
100495.83695237539359
100492.15802344772965
100497.91176592330157
100511.50879775053181
100594.35684408720408
100594.7838862726785
100597.75884970194602
100603.38753421136062
100611.46383265256009
100621.38949593645521
100632.15967400063528
100642.40485961028025
100650.51839987991843
100654.95462136779679
100654.59997471301176
100649.08283755411685
100638.96305965739884
100625.74457110835647
100611.68981033202726
100599.45639109780313
100591.66278578943457
100590.44366543741489
100597.01549759291811
100611.63165023627516
100633.13955882258597
100475.32477632569498
100489.25297035522817
100510.6729750710947
100532.36153843910142
100545.81653526435548
100545.14250573760364
100530.13564716516703
100506.6780692448956
100482.74454278136545
100463.805398578319
100450.49903844423534
100440.01269343048625
100429.48674415409914
100418.91760829050327
100411.39041595444723
100409.89659373842005
100415.50308753737772
100426.2853943627706
100437.36354960536119
100444.12826629124174
100445.2716013030149
100442.99113394113374
100441.19422637774551
100443.74360377833364
100452.06730438150407
100464.47009828692535
100477.03545246116119
100484.89812126041215
100484.84044508810621
100477.56533576079528
100466.90977214374288
100458.70919873160892
100457.83855390935787
100466.09454930605716
100624.19684969462105
100623.50561995145108
100625.36409862141591
100629.96742222830653
100637.03280289673421
100645.74144966877066
100654.81001407247095
100662.66931082605151
100667.7661627359048
100668.90106168332568
100665.52630324325582
100657.96314770569734
100647.45975884821382
100636.04720232334512
100626.20418704357871
100620.43807735112205
100620.80193947385123
100628.48005666704557
100643.6802051487175
100665.25052361705457
100459.91012024100928
100483.44130913812842
100513.97287131042685
100540.67716426964034
100553.64349498637603
100548.27338947959652
100525.99352348125831
100494.57917047958472
100463.41500166592596
100439.11654227148392
100423.0059204546269
100412.24313408485614
100402.73022661043797
100393.08038482120901
100385.28752615890699
100382.89168800238986
100388.15239561109047
100400.72241511632456
100416.95466418092838
100430.97486475286132
100438.45548031087674
100438.09349885341362
100431.81134354695678
100424.47557723819045
100420.58847261552
100422.21469298901502
100427.85532890410104
100433.37329341455188
100434.46081056819821
100430.17877004244656
100423.04465589456959
100418.20074722119898
100419.97631573550461
100430.07753532429342
100657.22665469355707
100653.02341270417674
100650.96035867450701
100651.53562346368562
100654.79772981166025
100660.25914467094117
100666.92606427414285
100673.49310207096278
100678.6199328428338
100681.22004636796191
100680.69608727801824
100677.09993277641479
100671.21588851643901
100664.4928082251281
100658.83491868260899
100656.31859877142415
100658.72360838134773
100667.13136518443935
100681.76818624591397
100701.70037020044401
100487.79233617497084
100516.9428400194156
100538.08153839508304
100543.87329301766295
100531.77963231230387
100505.12370848115825
100470.75903778968495
100437.12180816590262
100410.85025486505765
100393.80989857607346
100384.02138637956523
100377.24001172774297
100370.86246089522319
100365.20064540593012
100362.68302482488798
100366.2291246415698
100376.626811434704
100391.8822096183867
100407.72807400963211
100418.37084039975889
100420.4045221835986
100413.4851407357346
100401.67272299311298
100390.51084260643984
100384.55997805741208
100384.15893167557078
100386.38166518684011
100387.28260455348936
100384.87467357017158
100380.67927175509976
100378.37995297089219
100381.70659394048562
100687.64147122731083
100681.77849799922842
100677.78503925075347
100676.0964193053951
100676.73006772031658
100679.29130543599604
100683.04674064934079
100687.05927085265284
100690.42402372969082
100692.5037788420741
100693.05728701030603
100692.32206834490353
100691.04457721387735