/*--------------------------------*- C++ -*----------------------------------*\
  =========                 |
  \\      /  F ield         | OpenFOAM: The Open Source CFD Toolbox
   \\    /   O peration     | Website:  https://openfoam.org
    \\  /    A nd           | Version:  12
     \\/     M anipulation  |
\*---------------------------------------------------------------------------*/
FoamFile
{
    format      ascii;
    class       volScalarField;
    location    "0.012";
    object      p_0;
}
// * * * * * * * * * * * * * * * * * * * * * * * * * * * * * * * * * * * * * //

dimensions      [1 -1 -2 0 0 0 0];

internalField   nonuniform List<scalar> 
106891
(
100632.87818638338649
100630.96421687546535
100631.78616271936335
100636.85909070287016
100647.14036673912778
100662.81677845868398
100683.31994983360346
100707.4201391977258
100733.28788143255224
100758.79918949086277
100781.66596122844203
100686.23045743712282
100676.18970489647472
100667.10564753836661
100655.2456178872817
100638.89968920948741
100619.16596076195128
100599.9280754334759
100585.62773366988404
100579.2189630533685
100579.9538142135425
100582.78335847699782
100580.73012311386992
100569.04987394587079
100548.24441698729061
100524.61293279053643
100507.18121359280485
100502.69172652780253
100511.50757657521171
100528.03173506018356
100544.8808689465659
100557.75866776626208
100567.67134671926033
100578.35880842935876
100591.22320485983801
100603.78825443444657
100611.12674651188718
100609.40886119000788
100598.9785240067431
100583.92923895247804
100569.36694918651483
100559.02760061289882
100554.2385784037906
100554.78091006526665
100559.66466473351466
100567.91307978075929
100577.58449982450111
100585.96568441695126
100590.90936630076612
100657.56803065855638
100659.14863744533795
100661.92675462391344
100665.29210220788082
100668.47251039373805
100670.70420587441185
100671.41436587767384
100670.42651344700425
100668.10914021618373
100665.3899970043858
100663.64726014755433
100664.4659331254079
100669.23675261743483
100678.77075483973022
100693.08812286159082
100711.4231586457754
100732.4112542092771
100754.32209237314237
100775.39412384772731
100793.92367926632869
100651.90972683462314
100632.12237507861573
100611.06367582351959
100589.84974710307142
100570.64894094275951
100556.28847990010399
100549.05766891113308
100549.5988673048123
100555.31957883518771
100560.65426400599245
100558.95255327138875
100546.35644393428811
100524.78455371722521
100501.38844943331787
100485.39614395452372
100482.97094758991443
100493.84288047069276
100511.45161300656036
100528.16240020521218
100539.74756329595402
100547.7572881183296
100556.42331348877633
100568.29699244888616
100581.66964202962117
100591.26907126646256
100592.5322480515315
100584.27995427438873
100569.61889228678774
100553.60763532952114
100540.58185072639026
100533.04251077371009
100531.41082784098398
100535.53084204885818
100544.75849699464743
100557.18770220749138
100569.84370726218913
100685.77868129160197
100689.3460829610558
100693.99656347972632
100699.0736007567757
100703.79317012167303
100707.40129515327862
100709.33254191633023
100709.38463576966024
100707.89179380207497
100705.74171161428967
100704.19867288194655
100704.65532546040777
100708.32201863487717
100715.87794422954903
100727.25506066877278
100741.66544374615478
100757.80798810622946
100774.15747138728329
100789.28210470480553
100802.03661978741002
100628.38721861472004
100595.0835329049296
100563.81542853704013
100538.82545239696628
100522.69602765279706
100515.79340118457912
100517.1583964436868
100524.05341897459584
100532.15050239901757
100535.97723858324753
100531.28673714824254
100516.66736558296543
100495.68906227682601
100475.62417261996598
100464.05823925026925
100465.25750125753984
100477.75135507360392
100494.96606585445988
100510.05163101255312
100519.52011928301363
100525.38239806427737
100531.5708071704139
100541.06412271785666
100553.1446680156514
100563.69248873433389
100567.69612468800915
100563.07642553144251
100551.35633028174925
100536.77187027872424
100523.5990218410152
100514.90523895369552
100511.78785968151351
100514.98148506690632
100524.35482470174611
100538.53320884353889
100554.09365513551165
100721.57905775499239
100727.57532066576823
100734.15380247446592
100740.59155716624809
100746.11450477929611
100750.09016174425778
100752.18056794513541
100752.46676173787273
100751.53562019442325
100750.34871829755139
100749.98974695947254
100751.47435456023959
100755.50416162256442
100762.17940543568693
100770.94109616953938
100780.77822112587455
100790.50165468940395
100799.04377223263145
100805.71715402461996
100560.00434831077291
100519.24191671331937
100491.89636242896086
100480.32488058193121
100481.94361572401249
100491.86884983578057
100503.59834109824442
100511.1799831341923
100510.16602449270431
100499.0567294586217
100480.86033241088444
100460.87179751037911
100445.88030417500704
100440.92469292001624
100447.10503175081976
100461.07961433437595
100477.09941025484295
100489.91713675807114
100497.33973243774381
100500.58136824489338
100503.63111128727905
100509.74460968346102
100519.18959352638922
100529.39290460184566
100536.49588808028784
100537.2604656516778
100531.17161626627785
100520.66509305723594
100509.32216393772978
100500.58960518920503
100496.546578863592
100498.77256100751401
100507.48233894180157
100521.35144062041945
100747.3298543607234
100752.21119811284007
100758.42801067986875
100765.71351387740287
100773.51840661332244
100781.11052846847451
100787.72648984874832
100792.71456476012827
100795.66839192798943
100796.58310311831883
100795.87820489125443
100794.26140018449223
100792.58242581241939
100791.64320450743253
100791.96590516919969
100793.625275972503
100796.23251000342134
100799.10163576505147
100801.57346330057771
100803.30172868314548
100531.97206322629063
100484.37979152922344
100456.06389166918234
100448.86922711254738
100457.8661087903165
100474.072606339716
100488.35659732790373
100492.89839924105036
100484.8779991955671
100466.10988980266848
100442.77190102313762
100422.63351786944258
100412.06825174248661
100413.38735885624192
100424.35154866967059
100440.17242197395535
100455.61449050944066
100466.7033227160864
100472.59470988412795
100473.88354420875839
100473.7763582856569
100475.95875988979242
100482.41307794449676
100492.47791580768535
100502.99715013199602
100509.95651100868417
100510.54818751654238
100505.0293416602799
100496.42958200264547
100488.6978509449691
100484.63730740449682
100485.67822408104257
100492.36356473265914
100780.07758199577802
100784.99455036966538
100791.57561170011468
100799.607005476224
100808.52022282934922
100817.45736310527718
100825.3889662601141
100831.27633858962508
100834.30443601452862
100834.14666667270649
100831.04164565201791
100825.66966106898326
100819.01397768965398
100812.15544241774478
100805.98830664037087
100801.04250444704667
100797.4426375394396
100794.96338128657953
100793.43518656764354
100466.00800868091756
100438.1349956534832
100433.55182062333915
100445.95102591587056
100464.21448600261647
100477.05227255706268
100476.9929771124298
100461.73894090401882
100435.68830376835831
100406.9806736716564
100384.98320095006784
100375.85772374692897
100380.27258280405658
100394.30668407089252
100411.86717507128196
100427.78882552357391
100439.33673237211769
100445.1440955788712
100445.89999120225548
100444.3133499937976
100444.12968047909089
100448.65066254802514
100459.0692467684421
100472.68194074332132
100484.45050838806492
100490.32611572572205
100489.31390280472988
100483.62429749852163
100476.85281275004672
100472.48830635067134
100472.27287202270236
100476.26215556987154
100804.02267952205148
100806.40141900980962
100810.90850241688895
100817.75884967044112
100826.64596460011671
100836.69979163157404
100846.5976832495362
100854.77682255690161
100859.72002975935175
100860.31664037672454
100856.18683443608461
100847.77205171360401
100836.17256412637653
100822.89544895988365
100809.57765774162544
100797.69392349659756
100788.30575540517748
100781.87503912602551
100778.46423770928232
100440.66612730003544
100436.82130007223168
100447.48994137138652
100461.75743119887193
100469.05684806675708
100462.86436435917858
100442.09987601768808
100411.24345121640363
100378.7983597391285
100353.87207297318673
100342.03024654477485
100344.33633613343409
100357.48627794801723
100375.33922102818906
100392.66382472658006
100405.98645287351974
100413.88903090222448
100417.02187660332129
100417.30622012967069
100418.15067919655121
100423.58133541555435
100434.7302610585466
100449.21722649199364
100462.51968441136705
100470.60953928563686
100471.69605442257307
100467.41721612524998
100461.12328069702198
100456.54719261341961
100454.83875365894346
100821.72140130172193
100823.10252455518639
100827.35984314476082
100834.51680134127673
100843.90679232352704
100854.19693584404013
100863.58555502870877
100870.11932021674875
100872.09066908890964
100868.47237547830446
100859.20068225912109
100845.19635744593688
100828.18535953649553
100810.30076839050162
100793.64742567179201
100779.9949975911295
100770.54163531459926
100765.83985099219717
100453.62200829340145
100458.21153789681557
100463.58520564791979
100462.19225787500909
100450.32893420101027
100427.48643479247403
100396.55552920963964
100363.25380846745975
100335.29076487004932
100318.17931821424281
100314.0340289628075
100321.3688238790055
100336.04220835833985
100352.97636667487677
100368.16345002634625
100379.74697315183585
100387.68853487935849
100393.94519993827271
100400.56322405309766
100409.7960553100711
100422.10839426908933
100435.27653776481748
100446.2119526554161
100451.76450403479976
100450.82909171406936
100445.53995712698088
100439.13779352554411
100433.71269891978591
100829.6179611763946
100827.41811337694526
100828.31280671726563
100832.70678305465844
100840.23285116444458
100849.72702381233103
100859.3990280052094
100867.17095421391423
100871.08006190448941
100869.65319249854656
100862.24595442316786
100849.27558208011033
100832.18636117063579
100813.14941107096092
100794.62427108193515
100778.86324045729998
100767.53109406359727
100761.66785161723965
100466.98339397679956
100463.41942665113311
100455.55921839801886
100441.10848378679657
100420.24048856968875
100393.57988839065365
100363.46458206263196
100334.52587873638549
100312.19097443461942
100300.04197926876077
100298.24439033814997
100304.55272048826737
100316.14344222408545
100330.2079418819776
100345.01774068434315
100359.71543364413083
100374.73141672265774
100390.06850365801074
100405.07153139990987
100418.26863603229867
100428.1780409073981
100432.9346237644786
100431.69875735067762
100425.72219442487403
100417.634009265239
100409.49157546673086
100402.81389187522291
100824.3423462947394
100822.75343942367181
100825.11164630387793
100831.188694013239
100839.96439135115361
100849.78798320749775
100858.65564329228073
100864.55648121942068
100865.84590257686796
100861.5627544784511
100851.64789251505863
100837.05485229949409
100819.61882585156127
100801.72057233871601
100785.8301223282906
100773.94566582980042
100767.43473385993275
100468.85307907385868
100461.55100989915081
100455.47432040434796
100448.2731507991266
100437.58416792782373
100421.59591223479947
100400.26983686181484
100375.88996808546653
100350.64197126147337
100327.34824882405519
100308.63838918540569
100296.21539092526655
100290.82916197583836
100292.51153692725347
100301.08847307527321
100315.99899837592966
100336.45632420061156
100358.78909440516145
100380.7563543147262
100399.64039910222345
100413.0942973382771
100419.68752363785461
100418.86881507901126
100411.59306916451897
100400.58458427735604
100388.54844996515021
100377.97411602050124
100813.6003437620966
100816.20652445474116
100822.71955928165698
100831.98633923320449
100842.33863643590303
100851.88602989068022
100858.81637628148019
100861.66066743603733
100859.53947557690844
100852.32806308820727
100840.72295804822352
100826.17296374938451
100810.66851457531448
100796.39636568204151
100785.28597012300452
100778.84774998192734
100442.85586916384636
100439.92733382865845
100440.03920312570699
100440.01151591665985
100435.4645475056459
100423.95367646310478
100407.01444099615037
100387.87814939912641
100369.50616149173584
100352.3702160500834
100335.10709955342463
100317.7177570884669
100302.82054462049564
100294.4283901049057
100295.55200724166934
100306.85716708489053
100325.23086679207336
100346.46929279442702
100366.9729694591224
100384.47375102492515
100397.79462948560831
100404.96437269847956
100404.74469475822116
100397.50920613981725
100385.35636413606699
100371.09007464120805
100358.12054826659732
100347.96652167316643
100810.57926470582606
100819.11018454584701
100829.79969850300404
100840.74880202091299
100850.00696825473278
100855.95616555365268
100857.60424802089983
100854.69328912375204
100847.58969193602388
100837.17659287818242
100824.76779437722871
100811.96376471192343
100800.45079435149091
100791.6363774635538
100786.63304948728182
100413.96123198333953
100422.50719865311112
100429.44154486771731
100429.49923293293978
100420.803892920012
100407.23040944662353
100393.77279661974171
100382.97927321944735
100373.50168839120306
100361.49813430247013
100344.81655208083976
100326.51261318854813
100312.39094165019924
100307.49743368005147
100312.75577684282325
100324.23445859193453
100338.47646328332485
100352.73123426589882
100366.24754058473627
100378.50048253999557
100387.42776700750983
100390.48350019175268
100386.64860587962903
100376.63755943441356
100363.00766043760814
100349.02678155362082
100337.70168795935751
100818.07125638262369
100829.80211290965963
100840.73377076354518
100848.90558532506111
100852.97493475137162
100852.45895880796888
100847.68322160831303
100839.54319659805333
100829.29125486116391
100818.29373038468475
100807.81240137165878
100798.92865211729077
100792.36722070297401
100788.727772129394
100403.46084853999491
100415.79489412417752
100418.33526690980943
100411.55626715580001
100401.20856880980136
100393.7584620059788
100391.16812724707415
100390.03570280541317
100385.0327062709548
100373.04954168843688
100356.48015252333425
100340.94682517822366
100331.48575336976501
100328.89525821540155
100330.59957545649377
100334.31303455118905
100339.36976538796443
100346.95462207857054
100356.99490383526427
100367.54194880789146
100374.97807715709496
100376.42728668295604
100370.82380811574694
100359.92395699628105
100346.94736146161449
100335.77494197165652
100829.49923740274971
100839.67942161644169
100846.2374565154023
100848.11394126070081
100845.23482724983478
100838.39926519345318
100829.00243939869688
100818.65699994350143
100808.77070781703515
100800.30078950746974
100793.74951766242157
100789.20286502857925
100786.74603737176221
100398.4372564592195
100401.52607455957332
100396.39149517139595
100390.15180017660896
100388.92553049128037
100393.91273795661982
100400.47188273491338
100402.45839053551026
100396.88883589724719
100385.41073758108541
100372.16709562164033
100360.64475331568974
100351.49794509782805
100343.66076238612004
100336.64944263713551
100331.87400662625441
100332.12466877403494
100338.42840715391503
100349.00291375332745
100359.62097293269471
100365.99219992489088
100365.65728674884303
100359.21241649972217
100349.34627623981214
100340.31400643377856
100836.40642620122526
100841.2109278102871
100841.1715291763976
100836.48499773506774
100828.23919401589956
100818.12017922995437
100807.91596711830061
100799.0135296976805
100792.15744656707102
100787.4814011737617
100784.61400281701935
100783.1258679812745
100381.1710341146827
100378.01058827618544
100376.20345455275674
100380.75828564082622
100391.70791982802621
100404.37631045577291
100412.64618947832787
100413.42178856172541
100407.62641875325062
100398.27966850079247
100387.4668682130141
100375.03558961152157
100360.94626754120691
100345.79506414291973
100332.73244547205104
100325.69214669363282
100326.78180452165543
100335.10925568078528
100346.54337358329212
100356.1760767857777
100360.38947853271384
100358.80269448667241
100353.47625827064621
100348.36806474674086
100359.99623120183242
100361.87563966414018
100370.59593713855429
100385.51040721521713
100402.21229101777135
100415.39136547381349
100421.72389290308638
100421.04648362883017
100415.51280725211836
100406.85631294356426
100394.89092822597013
100379.11862212567939
100360.3591054865974
100341.95937052000954
100328.74727589888789
100324.09199000739318
100328.16186773612571
100337.86156250887143
100348.21550035463588
100355.2957875176362
100357.98582358285785
100357.60838512699411
100357.50338708853815
100359.36811972677242
100376.0007575617492
100395.19899523886852
100411.88963482604595
100422.41173901516595
100425.70658034844382
100423.54011448353413
100417.96553705402766
100408.87890344134939
100395.34101673695841
100377.22583374733222
100357.30202332498448
100340.11574124010804
100330.17382530821487
100329.14093767417944
100335.21730856774957
100343.83779824986414
100351.55250386599801
100356.68201847696037
100360.31468759944255
100365.47664166877803
100417.2639894674503
100423.30615111778025
100423.69228179911443
100421.15594826453889
100416.33597394767276
100407.66088638632209
100393.53993159322999
100375.3022822762432
100356.86250393994851
100343.33610189732281
100337.63378349535924
100339.22272170418
100344.64352891832823
100350.72889228876738
100356.19999523584556
100362.55714810782229
100371.6556552387774
100418.25776370485255
100415.50479953689501
100407.3021184814279
100393.11237333522877
100376.10940821739496
100361.27732413796184
100352.36514129534771
100349.76415450019704
100351.25765970618522
100354.35353021000628
100358.48920693430409
100365.19821346869867
100376.33418025344145
100418.25192908887402
100416.4756640199339
100408.04657673818292
100394.73336795762589
100381.10797817644197
100371.00467363568896
100365.39194611014682
100363.13644933799515
100362.79612970468588
100364.30494360970624
100369.37266451407049
100379.89551791880513
100611.90527598428889
100622.75154768003267
100632.80395650383434
100632.38269717426738
100616.89186412503477
100590.98629058038932
100564.74724456763943
100545.58370946365176
100533.75576276089123
100524.62760145637731
100513.02044754604867
100497.44932233639702
100481.30137284290686
100470.08122021130112
100468.31200686811644
100477.68691067503823
100496.12856822152389
100517.60307697571989
100533.52398537260888
100536.38132931762084
100616.42151336734241
100617.47227722719254
100626.50743031215097
100635.71650477334333
100634.5727489090059
100617.54564501221466
100588.85160713309597
100559.38335036166245
100538.08325723337475
100525.7473166633863
100516.72085060451354
100504.48997821410012
100487.39703938027378
100469.94271807537007
100459.43516172913951
100461.29408020952542
100476.01189083048666
100499.14008500310592
100522.63931015340495
100537.97841568395961
100539.52908377889253
100526.63362204754958
100637.87073391026934
100631.74911412336223
100623.73862863870454
100622.53302825662831
100629.90489366129623
100638.38916176838393
100636.55467761649925
100617.98445250227815
100586.53954060458636
100554.01221316230658
100530.7793765287206
100518.24582701471809
100509.69887510349508
100497.20780627187924
100478.85808266968525
100460.10995500403806
100450.09066123509547
100455.13396768749226
100474.69131318826112
100502.00467113511695
100527.1792834327498
100541.77773253114719
100541.94529342930764
100528.65410857058305
100506.85241308750119
100483.03492587339133
100642.35108377448341
100646.82328940540901
100640.10962402074074
100630.22935909945227
100626.93443924526218
100632.92355130794749
100640.89206021660357
100638.5261737958499
100618.51386187311437
100584.50344118120847
100549.04925766011002
100524.01327368544298
100511.49879083204723
100503.80287389925797
100491.28633172364789
100471.74874143874331
100451.71384543189197
100441.960933618946
100449.78172571430332
100473.67060870405112
100504.66707413241966
100531.23343809208018
100545.01735469470441
100543.82277091260767
100530.20829732222774
100509.18652636012121
100485.7409886384994
100464.13336333597545
100632.8530258123792
100649.61625886462571
100654.62268127981224
100647.27077516267309
100635.71688964878558
100630.56535302834527
100635.51971653895453
100643.20893681296729
100640.5015980147582
100618.99826528412814
100582.47595118288882
100544.30383560493647
100517.7377489181672
100505.48151861348015
100498.86408131959615
100486.58134243779932
100465.91869769460754
100444.58536003803601
100434.93178465745586
100445.12652365479153
100472.86782699754986
100507.11160222103354
100534.81913770150277
100547.77025550811959
100545.2620127054397
100531.38071705908806
100511.18755485344445
100488.222524551893
100465.474864287331
100446.89095335891761
100615.30986012759968
100637.74094743232126
100655.85787914950924
100661.17616177580203
100653.16435967678262
100640.1162107418204
100633.34319287812104
100637.61050647449156
100645.29372670791054
100642.46027591954044
100619.64296223592828
100580.77007555158343
100540.20994011071161
100512.28426991059678
100500.41634094886831
100494.9526228869363
100483.06470220122719
100461.29604618762096
100438.63553860639513
100428.96560112925363
100441.1475172113569
100472.26571790664457
100509.34770374344953
100537.98558883242367
100550.14128742380126
100546.3990612229245
100532.27965295297327
100512.82209887249337
100490.35154089563002
100466.58782882796368
100445.74620791253983
100435.00322641663661
100617.46576538820227
100641.39895828392764
100660.77760218863841
100666.38392036258301
100657.67119961172284
100643.31107185065048
100635.28088448506605
100639.10702131516882
100647.08535588689847
100644.11298534291564
100620.41259947424987
100579.27771287120413
100536.51438964754925
100507.68027981187333
100496.38371006674424
100492.0766606797697
100480.67053225841664
100457.9692370754492
100434.04145115625579
100424.28280911159527
100437.97371616424061
100471.82493576365232
100511.25187554000877
100540.61197429490858
100552.07612469432934
100547.28008000207774
100532.9419856970344
100514.10290120246646
100492.07405873820244
100467.54387629588018
100444.80719786121335
100432.19235821826442
100437.59402332326863
100595.64204044014332
100613.46797442782554
100660.5349330726167
100680.67811084690038
100649.84012741810875
100593.88384728870005
100618.76423426247493
100643.87843326071743
100664.174358063814
100670.03408759870217
100660.76728527156229
100645.34402987279464
100636.48196767021727
100640.07391351515253
100648.43959863881173
100645.50604117495823
100620.9715597711911
100578.26047722618387
100534.1137397178245
100504.57454938319279
100493.68947756980197
100490.31097005294578
100479.25189686000522
100455.81255928844621
100430.76890868648479
100420.868563994125
100435.64883813362394
100471.51835132128326
100512.70899699912115
100542.57702029046777
100553.49329387245234
100547.88991913716018
100533.36254146631109
100514.97378917786409
100493.2476350350189
100468.16231051215436
100444.03981949514127
100430.07098010426853
100435.21034766722005
100459.89431455440354
100636.65133737228462
100591.19383842647949
100612.47487960652506
100664.07948366140772
100685.0767354388372
100652.01614979559963
100592.53055309523188
100619.38763593303156
100645.11194995173719
100666.0410118609143
100671.81795685009274
100662.22663998948701
100646.30318933566741
100637.06156762497267
100640.56070783104224
100649.20120643326663
100646.32430996831681
100621.19147607234481
100577.6826056408463
100532.72165085418965
100502.88013394478185
100492.31169530456827
100489.5333191226091
100478.6198773207725
100454.74458320908889
100428.97787972049264
100418.99011456564767
100434.44993226557563
100471.41985348843446
100513.60861884360202
100543.71947387658292
100554.29172824528359
100548.22706012379786
100533.58241316663043
100515.4388815224811
100493.87213210563641
100468.48864392934775
100443.59542809090635
100428.89260236575501
100433.96699849970173
100459.46178356790915
100492.17659110797103
100627.10242952492263
100619.17525352830125
100607.41638792502636
100593.34651621014928
100579.02747661119793
100566.70984759775456
100558.47238598507829
100555.93779300508322
100559.99896776751848
100570.9410183152213
100587.98192580197065
100556.17342840654601
100546.39285825003753
100535.12838418871979
100526.12522620343952
100520.98577458932414
100518.48986981401686
100515.87627838560729
100511.72449792946281
100505.89225484229974
100500.42657652492926
100496.29706083580095
100492.71107501779625
100488.01871007485897
100482.18688217378804
100477.17713518637174
100475.48875040998973
100478.14846241517807
100482.50866096800019
100483.06124243786326
100475.4471118113288
100460.91211936698528
100445.52784925037122
100437.85687761779991
100444.74775412035524
100466.69113318441669
100498.45425126350892
100531.21636925327766
100556.28706085949671
100568.18987955489138
100566.43365741189336
100554.58600022588507
100539.15730250124761
100526.52206849714275
100521.1217695693922
100524.74482253330643
100535.98855152656324
100566.69919663442124
100570.63684858185297
100577.38821364019532
100586.61217417719308
100597.69448340666713
100609.74963731323078
100621.61279986867157
100631.89303478290094
100639.1336855499394
100642.1030203623377
100640.05810096986534
100632.9312065517006
100621.46142242485075
100607.20686266288976
100592.397994326966
100579.59867598967685
100571.2833114577079
100569.42334501341975
100575.07209356520616
100588.44363132519356
100608.49757598720316
100509.90186687634559
100505.89732535708754
100507.5187608806591
100514.68326242253534
100524.47031362849521
100531.60494423010095
100531.47619115072303
100522.59160715772305
100508.44737193154288
100494.04341399119585
100482.6092583926802
100473.94138601546001
100465.83823149990349
100456.81239337367879
100448.10380195319885
100442.87176824707421
100443.29060392684187
100448.63376217134646
100454.55265658536518
100456.19795999958296
100452.20345431118039
100445.03019054752076
100440.47910942962335
100444.18546674470417
100457.99805081376689
100479.62511599190475
100503.39657250740856
100522.7115446798125
100532.3146258409688
100530.75501454230107
100520.30463891425461
100506.49177662433067
100495.48958896807744
100492.16100646967243
100498.25780590636714
100512.05187220683729
100594.5795576141245
100595.13509883839288
100598.234181634587
100603.97218285624695
100612.12897462699038
100622.08897152988357
100632.82773825577169
100642.96048144444649
100650.87748459260911
100655.04795668083534
100654.39010163034254
100648.57640371746675
100638.21927482234605
100624.87344383425079
100610.8359433166479
100598.77330101229018
100591.28853269851243
100590.48081075910886
100597.51389257599658
100612.57615609079949
100634.4469169912918
100476.02269817596243
100490.45105223383871
100512.14175307852565
100533.75225835971651
100546.78719059111609
100545.52112293397659
100530.02617631340399
100506.34458588302368
100482.46738347076462
100463.70867452085076
100450.53425699319632
100440.05800110724522
100429.48241919545399
100418.93766984035028
100411.56562731605663
100410.33791361621115
100416.1939276549092
100427.07275126661989
100438.05932268232573
100444.59141646219359
100445.49345662383712
100443.07095825605211
100441.29378940201423
100443.98021950382099
100452.44866237587121
100464.90157702034048
100477.35172694493667
100484.94914550376416
100484.58869711971784
100477.10104414416128
100466.4422006347595
100458.45610204992408
100457.93071531021269
100466.51694102988404
100624.2210153908527
100623.65046907699434
100625.63856710548862
100630.36676240083762
100637.5315716334735
100646.28829100767325
100655.32937091450731
100663.07244691198866
100667.97291878818942
100668.86209423297259
100665.2363632357592
100657.46568548963114
100646.84410190496419
100635.43813803249213
100625.74245142001018
100620.25377435647533
100620.9909497655317
100629.08667462080484
100644.68503116079955
100666.56951572929393
100460.99238190622418
100485.06555893544282
100515.72856312179647
100542.11575610583532
100554.42479140627256
100548.30702799931169
100525.45618923878646
100493.81991894442763
100462.7766368958255
100438.74887992588629
100422.87452782073524
100412.21074283479538
100402.67555711575551
100393.02434521105897
100385.35187972288986
100383.21079009746609
100388.80650541603973
100401.59257621610595
100417.84817293396918
100431.65140399860684
100438.76914182293694
100438.02618285172503
100431.5069564293517
100424.15223118946597
100420.4085648321925
100422.21537003407138
100427.94568477821304
100433.38520995652652
100434.28406286280369
100429.84463581319142
100422.70722540940915
100418.05392373322684
100420.14184762629156
100430.53761212901736
100656.89132844760024
100652.7836072378559
100650.84511370108521
100651.56126301070617
100654.96228860282281
100660.5375078603538
100667.26895648431673
100673.83169689874921
100678.87999230706191
100681.34201474628935
100680.65230660175439
100676.9039192677883
100670.92230528533401
100664.19043947430328
100658.63210031345079
100656.32144472896471
100659.01327199357911
100667.74614629204734
100682.69245688257797
100702.86465000594035
100489.41985824261792
100518.46598748826364
100539.10383908373478
100544.21873371336551
100531.42313157937315
100504.28574000748631
100469.7575475601916
100436.26965146187285
100410.30914232667419
100393.58707211863657
100383.97209636915068
100377.20672509142605
100370.8156619137153
100365.2052205541404
100362.85222294200503
100366.68501193153497
100377.34363374950772
100392.71313821991498
100408.43691164017946
100418.73958009709895
100420.32378245057771
100413.02797373349313
100401.06624011401436
100389.99838712395285
100384.27328038218548
100384.07193397441006
100386.33763350504159
100387.15737232145329
100384.65773366326175
100380.4653224011272
100378.31646930375427
100381.88965710742923
100687.04863733798265
100681.27236338227522
100677.40214955457486
100675.86082436240395
100676.65122893001535
100679.35760558012407
100683.22264619330235
100687.2905237875093
100690.65024646151869
100692.67612430070585
100693.15284367364075
100692.349536119611
100691.04432644523331
100690.4392264373455
100691.96635655505816