/*--------------------------------*- C++ -*----------------------------------*\
  =========                 |
  \\      /  F ield         | OpenFOAM: The Open Source CFD Toolbox
   \\    /   O peration     | Website:  https://openfoam.org
    \\  /    A nd           | Version:  12
     \\/     M anipulation  |
\*---------------------------------------------------------------------------*/
FoamFile
{
    format      ascii;
    class       volScalarField;
    location    "0.012";
    object      pPrime2Mean;
}
// * * * * * * * * * * * * * * * * * * * * * * * * * * * * * * * * * * * * * //

dimensions      [2 -2 -4 0 0 0 0];

internalField   nonuniform List<scalar> 
106891
(
850887.82991218566895
850096.04700660705566
849298.81224822998047
848497.08636856079102
847695.81975936889648
846898.8343334197998
846111.90442848205566
845334.06333541870117
844566.8722095489502
843807.04715538024902
843048.39365577697754
1208946.3576850891113
1207675.7356948852539
1206408.6184310913086
1205146.1195831298828
1203891.0367431640625
1202643.2737655639648
1201397.8719749450684
1200146.4995250701904
1198882.5565509796143
1197605.6763172149658
1196320.3809795379639
1195033.4248390197754
1193752.2517261505127
1192483.2874851226807
1191227.5570945739746
1189977.5302352905273
1188721.8033561706543
1187452.2967281341553
1186168.3527736663818
1184878.545238494873
1183596.9565582275391
1182333.3881034851074
1181087.6748714447021
1179852.9655284881592
1178624.0208950042725
1177402.0155353546143
1176192.6836414337158
1175000.5223140716553
1173825.1837310791016
1172660.8964347839355
1171497.1239814758301
1170323.5594520568848
1169136.0062732696533
1167938.3806343078613
1166737.4563827514648
1165538.4809074401855
1164343.97216796875
1163154.5865783691406
857670.11976051330566
856785.6735668182373
855911.93146514892578
855050.08942604064941
854202.40031051635742
853371.19253730773926
852557.21882247924805
851758.30551338195801
850968.9846248626709
850181.99837493896484
849390.54475593566895
848591.32837677001953
847784.58772277832031
846974.94944763183594
846166.54104614257812
845365.62363624572754
844572.58331680297852
843790.0358943939209
843016.17363357543945
842245.05184555053711
1207640.342845916748
1206369.4881610870361
1205109.8564128875732
1203862.0946807861328
1202624.7960777282715
1201392.0209827423096
1200154.3157329559326
1198903.9586277008057
1197639.6318912506104
1196366.2874145507812
1195092.1464080810547
1193825.903995513916
1192574.9776878356934
1191339.4800281524658
1190109.3983821868896
1188870.6368579864502
1187614.3054580688477
1186341.6185264587402
1185064.0102195739746
1183795.7967262268066
1182545.50856590271
1181311.7763786315918
1180087.501880645752
1178867.5375576019287
1177651.885009765625
1176444.2131633758545
1175248.2973690032959
1174064.5074558258057
1172888.3207302093506
1171709.6825790405273
1170517.4270801544189
1169305.1706409454346
1168076.0184593200684
1166839.6269512176514
1165605.783239364624
1164380.2231750488281
857028.34402847290039
856139.3477954864502
855257.75131034851074
854384.43730163574219
853522.62344169616699
852676.42106628417969
851848.40532493591309
851037.64130210876465
850239.15872001647949
849445.65928840637207
848650.00965309143066
847848.20257377624512
847039.51441955566406
846227.29902076721191
845414.69656181335449
844607.35483741760254
843806.11581802368164
843014.38223457336426
842231.88627433776855
841454.65765380859375
1207738.9547290802002
1206451.5041370391846
1205180.218692779541
1203923.617992401123
1202679.0354537963867
1201440.6072025299072
1200199.177453994751
1198947.080436706543
1197683.943660736084
1196415.8661994934082
1195150.6073131561279
1193895.7690410614014
1192658.0092849731445
1191437.4284038543701
1190223.9558544158936
1189002.4853935241699
1187763.5421695709229
1186509.5524158477783
1185252.5095481872559
1184005.0621109008789
1182773.6079597473145
1181555.8496513366699
1180345.1801567077637
1179136.4497718811035
1177928.0214653015137
1176721.0660171508789
1175518.2213478088379
1174320.179557800293
1173123.6740036010742
1171922.02197265625
1170705.8411407470703
1169467.6668910980225
1168208.3790092468262
1166938.4055252075195
1165670.84912109375
1164413.9726390838623
855494.794921875
854609.08869934082031
853730.95539855957031
852862.04008865356445
852005.35729789733887
851163.24050712585449
850335.61638641357422
849519.34241104125977
848709.16386795043945
847899.67180061340332
847087.63394165039062
846272.44732284545898
845456.65021514892578
844642.69766616821289
843834.84586334228516
843033.91079902648926
842241.91560363769531
841459.41151809692383
840680.15472793579102
1206703.4532299041748
1205406.8256893157959
1204125.2491111755371
1202855.7271976470947
1201593.9725589752197
1200332.6803951263428
1199065.6261501312256
1197793.6362628936768
1196523.3377628326416
1195261.9598655700684
1194015.6738891601562
1192788.4167919158936
1191578.7547874450684
1190377.3277130126953
1189170.9000720977783
1187951.4636859893799
1186721.4461078643799
1185490.4071369171143
1184267.4460792541504
1183056.154993057251
1181854.2991256713867
1180656.0194473266602
1179456.0647640228271
1178251.7018280029297
1177043.3206253051758
1175832.2199745178223
1174618.2657032012939
1173399.6542320251465
1172173.0114898681641
1170931.6831398010254
1169668.5771732330322
1168382.5384750366211
1167083.0109481811523
1165784.6892147064209
855827.08333206176758
854918.36176872253418
854022.88212585449219
853138.80235862731934
852265.49839210510254
851403.16174507141113
850551.92786026000977
849711.01895904541016
848878.25617980957031
848050.47530555725098
847224.57590103149414
846399.04500198364258
845574.20519638061523
844752.59692192077637
843936.46792411804199
843129.44171142578125
842332.46850204467773
841546.98334503173828
840773.95325660705566
840005.98758316040039
1207140.6001491546631
1205811.1970920562744
1204496.4086818695068
1203191.2541122436523
1201893.0618362426758
1200597.9217624664307
1199303.6670780181885
1198012.9892826080322
1196732.8064002990723
1195470.4461765289307
1194230.0768070220947
1193011.5677680969238
1191810.6865386962891
1190619.1074161529541
1189427.3093852996826
1188229.6087512969971
1187027.4914875030518
1185826.4459629058838
1184630.9241199493408
1183441.6185569763184
1182255.3031635284424
1181066.1094226837158
1179868.5307006835938
1178661.7469139099121
1177448.1653347015381
1176229.2104949951172
1175003.5540294647217
1173769.1133518218994
1172523.4778232574463
1171261.8573055267334
1169977.4636573791504
1168668.5166702270508
1167344.1050281524658
854515.40083885192871
853602.86420822143555
852705.58083724975586
851822.31473922729492
850951.41155815124512
850090.97561836242676
849239.14317321777344
848394.03207397460938
847553.83197784423828
846717.08250999450684
845883.6096076965332
845054.23878479003906
844231.48104667663574
843416.93036460876465
842613.83510971069336
841822.43691825866699
841044.61168098449707
840280.05160331726074
839522.75223922729492
1206384.6875743865967
1205031.010217666626
1203684.4007034301758
1202343.1840438842773
1201007.3037052154541
1199677.9207553863525
1198359.501070022583
1197060.2309608459473
1195788.7413463592529
1194548.9011898040771
1193337.0177536010742
1192144.3666534423828
1190961.973840713501
1189782.9978580474854
1188604.1120090484619
1187427.2511215209961
1186255.5096397399902
1185089.2714328765869
1183924.5241279602051
1182755.5284538269043
1181576.6399726867676
1180384.5046825408936
1179180.4327278137207
1177968.1790199279785
1176749.2192077636719
1175520.7062664031982
1174279.139720916748
1173021.6561222076416
1171744.689432144165
1170444.1162242889404
1169119.6210041046143
1167779.5101737976074
854326.86041259765625
853401.63963890075684
852492.61332130432129
851598.38716125488281
850716.81888008117676
849845.80473709106445
848983.85386657714844
848129.83641624450684
847282.66715240478516
846441.33845901489258
845605.90568161010742
844777.44928169250488
843958.3648567199707
843149.89740753173828
842354.23394775390625
841570.50123405456543
840798.96952629089355
840038.19689178466797
839281.1750431060791
1205579.0148601531982
1204184.6633853912354
1202795.8266906738281
1201416.6824626922607
1200051.1054363250732
1198703.2863826751709
1197379.9893589019775
1196089.5199012756348
1194836.8783531188965
1193619.0881652832031
1192426.2045555114746
1191248.0435752868652
1190078.8114280700684
1188917.1139717102051
1187763.7153091430664
1186618.4770431518555
1185477.5852756500244
1184333.6340141296387
1183180.1642818450928
1182014.1068954467773
1180835.8457641601562
1179646.7609996795654
1178448.0990791320801
1177239.2549667358398
1176016.7608833312988
1174776.5453128814697
1173516.2456817626953
1172234.3007488250732
1170929.2668952941895
1169602.5243968963623
853423.83730697631836
852506.58573532104492
851604.18632125854492
850715.36776542663574
849838.59029579162598
848972.29369163513184
848114.90771484375
847264.98470306396484
846421.59060096740723
845585.13638496398926
844757.2570972442627
843940.6246166229248
843136.87984657287598
842347.5571117401123
841571.73335838317871
840807.74411964416504
840053.92473030090332
839300.33639717102051
1204718.3464317321777
1203273.4412364959717
1201845.4865894317627
1200440.9485645294189
1199063.2623348236084
1197714.9005031585693
1196400.6171913146973
1195125.0141448974609
1193887.5568866729736
1192680.999267578125
1191497.2197360992432
1190330.9828319549561
1189179.6822338104248
1188041.4980621337891
1186913.3213958740234
1185788.2840061187744
1184657.3802032470703
1183515.0659885406494
1182361.6343727111816
1181199.0838661193848
1180027.7885341644287
1178846.0186595916748
1177650.3978042602539
1176437.0686340332031
1175202.5775604248047
1173945.558988571167
1172666.1000099182129
1171365.0928325653076
853711.71342277526855
852788.87993049621582
851881.29782104492188
850988.73842620849609
850110.02812576293945
849243.05585861206055
848385.05900192260742
847533.46234512329102
846686.87700080871582
845845.97823143005371
845013.20319938659668
844192.09576606750488
843385.16440391540527
842594.20371055603027
841818.48003387451172
841055.62038230895996
840303.60213661193848
839552.32559585571289
1203918.5767421722412
1202441.1581420898438
1200994.2665138244629
1199580.7164459228516
1198200.7819442749023
1196857.0339031219482
1195554.1836566925049
1194292.2979564666748
1193066.3666896820068
1191869.9343338012695
1190699.0320949554443
1189550.8221168518066
1188423.0510234832764
1187310.9936866760254
1186204.4237823486328
1185090.9621715545654
1183963.1389350891113
1182821.9037914276123
1181671.2432842254639
1180511.6229190826416
1179340.0963115692139
1178152.9575843811035
1176947.1673851013184
1175721.3085975646973
1174475.0714111328125
1173207.8559608459473
1171919.7656517028809
853397.01189804077148
852485.84201431274414
851590.50740623474121
850709.69146919250488
849840.07283782958984
848977.46682739257812
848118.46017074584961
847261.68577194213867
846408.56059265136719
845562.24995613098145
844726.89578628540039
843905.64261436462402
843100.82107734680176
842312.29154014587402
841537.85469627380371
840775.36087989807129
840015.36372375488281
1206220.4360675811768
1204683.2545185089111
1203169.1036357879639
1201685.8895053863525
1200240.120059967041
1198834.8440799713135
1197472.8177051544189
1196155.4628391265869
1194880.4784469604492
1193641.761589050293
1192433.4656200408936
1191252.2449283599854
1190098.5913639068604
1188973.5215873718262
1187873.8064136505127
1186787.5798397064209
1185698.193696975708
1184593.2610511779785
1183469.9117527008057
1182331.8484668731689
1181182.3222637176514
1180020.3772029876709
1178842.9121704101562
1177647.884880065918
1176434.6983203887939
1175202.4424495697021
1173949.4853515625
853430.68172645568848
852534.92485427856445
851650.02889442443848
850771.92774391174316
849896.7749080657959
849022.29736137390137
848148.36772537231445
847276.73466491699219
846410.04949378967285
845551.45683670043945
844703.7480354309082
843869.47901725769043
843050.35873794555664
842245.2110424041748
841453.6828670501709
840666.17123603820801
1206720.174934387207
1205183.6509265899658
1203669.0445671081543
1202180.0177898406982
1200722.9733428955078
1199306.1413726806641
1197935.6109008789062
1196614.0927715301514
1195337.0461273193359
1194093.330415725708
1192872.3903045654297
1191671.7033920288086
1190497.1903476715088
1189355.9138889312744
1188247.4140644073486
1187159.7618293762207
1186075.4023895263672
1184979.8881492614746
1183867.2464389801025
1182737.7208919525146
1181593.3253765106201
1180434.6936340332031
1179261.5516090393066
1178073.2263965606689
1176867.9086952209473
1175642.6246528625488
1174394.7296981811523
1173123.0651664733887
853460.46314430236816
852566.64391136169434
851675.91903495788574
850785.36886978149414
849893.86991691589355
849002.01419830322266
848111.59492111206055
847224.63163566589355
846343.53508377075195
845470.56718063354492
844608.44930076599121
843759.38246536254883
842923.38202476501465
842100.45424270629883
841282.97147178649902
1205723.7479877471924
1204221.5356330871582
1202740.5554141998291
1201286.1838111877441
1199868.2689743041992
1198495.8556442260742
1197171.4493579864502
1195888.3728523254395
1194632.8372287750244
1193392.4958438873291
1192165.4864845275879
1190961.1117267608643
1189790.0685958862305
1188654.3702926635742
1187544.7275733947754
1186445.2664680480957
1185341.8979625701904
1184226.5552234649658
1183096.4770374298096
1181951.2988262176514
1180791.4436988830566
1179616.9674377441406
1178426.7241458892822
1177217.6377220153809
1175986.8371906280518
1174732.463508605957
1173454.4082260131836
853662.12159156799316
852756.19064903259277
851850.12996864318848
850943.16582679748535
850035.79352188110352
849129.40725708007812
848225.42404556274414
847325.64827346801758
846431.58876419067383
845545.5500316619873
844669.5037784576416
843803.84812927246094
842948.38797950744629
842096.51169204711914
1204924.4147071838379
1203452.2811622619629
1202001.0373077392578
1200582.8010883331299
1199208.0277328491211
1197877.028959274292
1196580.2887420654297
1195303.6453266143799
1194035.8162384033203
1192775.8830261230469
1191533.5359935760498
1190320.4403457641602
1189141.2046394348145
1187990.8685932159424
1186858.1690769195557
1185731.0739879608154
1184600.4450740814209
1183460.2915153503418
1182307.0085926055908
1181138.5851974487305
1179953.9981689453125
1178751.8820171356201
1177530.1740531921387
1176286.5605716705322
1175020.0297470092773
1173731.4775505065918
854000.54471588134766
853076.25711822509766
852151.49120140075684
851226.32460975646973
850301.64031600952148
849378.62496948242188
848458.65719795227051
847542.77412605285645
846632.50976371765137
845729.67007255554199
844834.41536712646484
843947.75596809387207
843062.99073028564453
1204269.6775989532471
1202821.5832633972168
1201403.5232887268066
1200024.5985851287842
1198683.0985832214355
1197368.4487018585205
1196067.5870208740234
1194771.20143699646
1193478.9845085144043
1192199.394079208374
1190943.4175033569336
1189717.0660228729248
1188519.6078643798828
1187345.0680046081543
1186184.9131526947021
1185030.4787292480469
1183873.9001903533936
1182708.1458263397217
1181528.2280139923096
1180330.4342155456543
1179113.469217300415
1177877.643087387085
1176622.1384582519531
1175345.5173072814941
1174047.1568412780762
854470.32624435424805
853528.61707878112793
852585.98885917663574
851642.94553375244141
850700.5879077911377
849760.02524566650391
848821.76843643188477
847886.72929000854492
846956.56348991394043
846032.11581230163574
845115.6018238067627
844201.12101936340332
1203771.8016242980957
1202350.2303161621094
1200963.0518989562988
1199607.2195510864258
1198271.906717300415
1196946.0365180969238
1195622.7900905609131
1194301.994327545166
1192989.917163848877
1191695.4128246307373
1190425.3111038208008
1189182.1125164031982
1187964.5262546539307
1186768.7780723571777
1185587.9348449707031
1184412.4140148162842
1183231.9065437316895
1182038.1652526855469
1180826.563684463501
1179596.1403274536133
1178348.5987434387207
1177084.2399997711182
1175800.0539207458496
1174493.7544860839844
1203377.8101119995117
1201977.2717533111572
1200605.274227142334
1199252.2029457092285
1197907.0002841949463
1196562.9541473388672
1195219.2283248901367
1193880.4723262786865
1192553.8765068054199
1191245.6995315551758
1189960.4118900299072
1188701.1513710021973
1187468.4108619689941
1186258.0932331085205
1185060.4496002197266
1183863.2567157745361
1182656.1421718597412
1181433.4863548278809
1180194.2174892425537
1178939.2756252288818
1177668.1281700134277
1176376.7619113922119
1175062.1468067169189
1201720.7065315246582
1200347.5825576782227
1198981.8693103790283
1197615.6488437652588
1196247.4058799743652
1194881.3522682189941
1193523.9849452972412
1192181.4111595153809
1190859.2792510986328
1189562.3647651672363
1188293.3488540649414
1187050.3521537780762
1185825.1598644256592
1184605.8840999603271
1183382.0089893341064
1182147.6592903137207
1180900.607349395752
1179639.1776161193848
1178360.0488376617432
1177059.3404846191406
1175735.4616928100586
1197344.0830612182617
1195947.760648727417
1194558.983226776123
1193184.7377490997314
1191829.7145442962646
1190497.5588340759277
1189191.7340621948242
1187913.4500846862793
1186657.5255870819092
1185413.86669921875
1184172.5711097717285
1182926.8532295227051
1181671.1611251831055
1180399.6218528747559
1179107.1260013580322
1177791.5638256072998
1176454.8450050354004
1192841.7481384277344
1191480.0194931030273
1190140.2215423583984
1188825.1041984558105
1187534.2572975158691
1186261.7799777984619
1184998.9241504669189
1183736.5547351837158
1182466.4668960571289
1181180.9199848175049
1179874.1556644439697
1178544.9681510925293
1177197.3157939910889
1192464.0976428985596
1191096.3920078277588
1189751.1854667663574
1188431.1248149871826
1187132.6039752960205
1185847.2480144500732
1184564.9773921966553
1183276.5799140930176
1181974.2643909454346
1180653.0139446258545
1179312.5987243652344
1177957.4080924987793
1331752.1078624725342
1330436.6821594238281
1329136.7138633728027
1327836.6098365783691
1326532.1829452514648
1325224.0327587127686
1323907.9961929321289
1322572.8339824676514
1321206.036413192749
1319801.40602684021
1318360.6750526428223
1316890.001880645752
1315395.7909297943115
1313883.6959800720215
1312359.7520446777344
1310830.4582824707031
1309299.7996864318848
1307767.5919818878174
1306231.9116249084473
1304693.9174423217773
1334369.5269031524658
1333022.2246150970459
1331711.4309425354004
1330414.8634624481201
1329116.396520614624
1327811.9455165863037
1326502.5088481903076
1325183.7823181152344
1323842.6220226287842
1322463.9204711914062
1321040.0905017852783
1319574.7553844451904
1318077.5231533050537
1316558.4729461669922
1315025.2354888916016
1313483.8045234680176
1311938.7614898681641
1310392.0037422180176
1308842.7942924499512
1307290.4040489196777
1305737.4085006713867
1304192.2961196899414
1338386.8777561187744
1336947.0847263336182
1335554.2857303619385
1334210.6902294158936
1332903.0595226287842
1331608.4630966186523
1330310.1176700592041
1329004.2454738616943
1327692.0186462402344
1326368.6476497650146
1325019.6186428070068
1323627.6267166137695
1322184.3561401367188
1320694.3899173736572
1319170.3197956085205
1317625.8750610351562
1316071.4233131408691
1314512.5732955932617
1312951.8556385040283
1311389.5091648101807
1309824.6527938842773
1308258.0118598937988
1306694.0236759185791
1305141.5964908599854
1303612.7728481292725
1302117.7939128875732
1340936.5948638916016
1339462.2092418670654
1338025.4050693511963
1336634.0446224212646
1335291.4901523590088
1333984.2432518005371
1332688.5562324523926
1331387.5634136199951
1330077.4788837432861
1328759.8405055999756
1327430.2048091888428
1326072.4768123626709
1324667.1913719177246
1323205.2202281951904
1321692.5583629608154
1320144.9313793182373
1318579.035701751709
1317006.8073482513428
1315433.6495571136475
1313860.2937450408936
1312284.9831981658936
1310706.2612743377686
1309126.149299621582
1307550.8634853363037
1305990.5735130310059
1304457.4027423858643
1302960.653377532959
1301503.3155326843262
1343386.9828929901123
1341879.0721588134766
1340408.2139854431152
1338972.9109954833984
1337582.0743103027344
1336239.5957717895508
1334932.1698532104492
1333635.5591411590576
1332332.0478935241699
1331017.7756156921387
1329694.552885055542
1328358.0452613830566
1326991.3613510131836
1325573.4818820953369
1324094.2688446044922
1322560.6972064971924
1320990.7914867401123
1319404.3526363372803
1317815.2955875396729
1316229.0526008605957
1314644.7174072265625
1313058.3790855407715
1311468.3415870666504
1309878.0530490875244
1308295.3320732116699
1306730.6526031494141
1305195.0354747772217
1303696.7232646942139
1302238.0943622589111
1300816.6062355041504
1345731.260799407959
1344179.9267406463623
1342677.6641654968262
1341209.6267223358154
1339774.7016944885254
1338382.7648468017578
1337038.9580993652344
1335729.6145877838135
1334429.7058906555176
1333121.5560989379883
1331801.4098930358887
1330471.8408031463623
1329128.6888999938965
1327754.3960971832275
1326326.4583263397217
1324833.7815265655518
1323283.8557109832764
1321696.7339706420898
1320094.4473152160645
1318492.5394306182861
1316896.4606266021729
1315303.4884757995605
1313708.2161254882812
1312108.4838428497314
1310508.8701457977295
1308918.5234260559082
1307348.755802154541
1305810.5180854797363
1304310.7132472991943
1302851.1865177154541
1301429.7257995605469
1300042.8108291625977
1346350.5403614044189
1344805.6022644042969
1343306.8538627624512
1341840.1508655548096
1340405.2653713226318
1339012.7434310913086
1337667.952127456665
1336356.9935398101807
1335054.6727333068848
1333743.0828475952148
1332418.4937915802002
1331083.7212314605713
1329734.8841533660889
1328353.6941108703613
1326916.4254188537598
1325411.4992504119873
1323847.159309387207
1322245.3186569213867
1320630.117504119873
1319017.8406181335449
1317413.621509552002
1315813.8987579345703
1314211.9424819946289
1312605.4181385040283
1310999.7657203674316
1309405.1699905395508
1307832.9508094787598
1306293.3783111572266
1304792.8730201721191
1303332.9421920776367
1301911.6549453735352
1300525.9256935119629
1299175.5712947845459
1427508.7986259460449
1425356.6525764465332
1423192.1178684234619
1421041.5709095001221
1418949.0881996154785
1416956.2902412414551
1346781.4622955322266
1345240.700496673584
1343744.1294956207275
1342278.0789966583252
1340842.5909557342529
1339448.6738605499268
1338102.0660362243652
1336788.8477249145508
1335483.4468727111816
1334167.8682899475098
1332838.6805934906006
1331499.2321262359619
1330145.8316802978516
1328759.915843963623
1327316.9601573944092
1325804.7460479736328
1324231.8856048583984
1322621.2345142364502
1320997.9923667907715
1319379.0567054748535
1317769.628849029541
1316165.468900680542
1314559.0099182128906
1312947.6464385986328
1311337.4879589080811
1309739.319278717041
1308164.6902351379395
1306623.7787780761719
1305122.4533309936523
1303662.037446975708
1302240.8972320556641
1300856.3929824829102
1299508.2580585479736
1298200.416036605835
1430050.3169593811035
1427903.6657295227051
1425738.4841327667236
1423559.1545886993408
1421393.116138458252
1419287.1221504211426
1417283.9462871551514
1347006.8772258758545
1345467.9829025268555
1343972.3176937103271
1342506.3604640960693
1341070.5894012451172
1339676.2076778411865
1338328.8619728088379
1337014.647439956665
1335707.8725357055664
1334390.3652267456055
1333058.9052467346191
1331717.0567378997803
1330361.1080875396729
1328972.3089027404785
1327525.7713432312012
1326008.9807395935059
1324430.7874164581299
1322814.8728885650635
1321187.2292232513428
1319564.9144058227539
1317952.766019821167
1316346.3392868041992
1314737.7482395172119
1313124.1812744140625
1311512.0186290740967
1309912.4000988006592
1308337.0238952636719
1306795.7496547698975
1305294.2357959747314
1303833.8631267547607
1302412.9462070465088
1301029.0363349914551
1299681.8236980438232
1298374.8666515350342
1297110.4548110961914
834362.93202972412109
833501.61836242675781
832648.63815498352051
831808.24939918518066
830984.71267890930176
830178.00759696960449
829388.98513031005859
828612.24904441833496
827845.92895698547363
827085.1224365234375
826321.74485206604004
1197358.5849380493164
1196050.8967761993408
1194752.7186641693115
1193455.1125450134277
1192149.5543155670166
1190833.5431327819824
1189509.479944229126
1188181.0873279571533
1186850.5182971954346
1185517.1837596893311
1184179.7864265441895
1182840.4136486053467
1181504.2677249908447
1180175.8114280700684
1178857.3016757965088
1177548.8526935577393
1176248.0006618499756
1174952.0278625488281
1173662.4519653320312
1172386.8678665161133
1171134.6523914337158
1169910.3062953948975
1168709.527587890625
1167521.2486419677734
1166334.6816921234131
1165145.1006565093994
1163954.3622646331787
1162764.6388568878174
1161575.8308753967285
1160387.1256103515625
1159199.4427165985107
1158014.5973987579346
1156832.8302021026611
1155651.4575386047363
1154464.8631629943848
1153266.4423027038574
842532.08977508544922
841610.55899238586426
840696.2038459777832
839789.56383895874023
838891.93694686889648
838003.92509269714355
837124.55298233032227
836251.49677276611328
835382.21618843078613
834515.11342239379883
833650.43647575378418
832790.15740394592285
831937.80838584899902
831096.50256729125977
830269.2962532043457
829455.81435012817383
828656.96029853820801
827868.85087966918945
827090.85429191589355
826320.16606712341309
825549.36446952819824
1197551.4974746704102
1196242.839506149292
1194942.7471466064453
1193636.0879707336426
1192312.4577388763428
1190973.8055171966553
1189631.5038757324219
1188295.730447769165
1186968.9765949249268
1185645.4507808685303
1184318.2597713470459
1182987.6436882019043
1181661.7084522247314
1180349.3623714447021
1179055.1200523376465
1177777.9033527374268
1176510.8186912536621
1175245.4464244842529
1173978.9847412109375
1172717.2835121154785
1171471.1455345153809
1170248.0910549163818
1169046.2849044799805
1167854.6169281005859
1166661.1966514587402
1165460.9716796875
1164256.1413860321045
1163049.7556571960449
1161842.7297744750977
1160634.6860198974609
1159426.140941619873
1158217.7330665588379
1157008.6168270111084
1155795.8812007904053
1154574.2320327758789
1153337.961462020874
841878.51993370056152
840947.46938705444336
840024.93694496154785
839111.58876037597656
838208.92521667480469
837317.73823547363281
836437.23420906066895
835565.19681930541992
834698.96859550476074
833836.43036651611328
832976.8746452331543
832121.10188865661621
831271.37786102294922
830429.80109596252441
829598.65367698669434
828777.84456443786621
827969.04980278015137
827170.24037742614746
826382.01680183410645
825602.69532203674316
824824.13002395629883
1196603.2206401824951
1195297.8121013641357
1193976.9544506072998
1192630.2013244628906
1191267.156982421875
1189909.7509860992432
1188574.8780250549316
1187262.7861423492432
1185959.4818153381348
1184650.5691528320312
1183334.8486557006836
1182024.5143127441406
1180734.1684646606445
1179470.050895690918
1178227.9274063110352
1176995.6273975372314
1175759.6212215423584
1174513.0290775299072
1173260.4897689819336
1172015.4310626983643
1170789.4512710571289
1169583.3541584014893
1168385.6808261871338
1167182.0842723846436
1165965.6687488555908
1164738.1437110900879
1163505.1371440887451
1162270.685302734375
1161036.9532852172852
1159803.7972850799561
1158568.8625965118408
1157328.2431583404541
1156078.0638618469238
1154814.9326000213623
840309.39398002624512
839376.6190128326416
838455.18909454345703
837547.26189041137695
836654.06283187866211
835774.93959999084473
834907.46639060974121
834048.37944793701172
833194.49301147460938
832343.59621238708496
831494.79752922058105
830648.86212921142578
829807.24016571044922
828972.50531196594238
828145.8498363494873
827330.58074188232422
826526.50920486450195
825735.59260749816895
824956.4295768737793
824180.90902709960938
1197006.1252479553223
1195689.1222896575928
1194351.6187725067139
1192986.1558437347412
1191609.6622543334961
1190250.8984260559082
1188929.0036067962646
1187640.6947765350342
1186365.3718891143799
1185083.3716163635254
1183792.5484371185303
1182508.0979957580566
1181247.9631080627441
1180019.1123390197754
1178813.9630260467529
1177615.6338024139404
1176406.660005569458
1175177.8399314880371
1173934.7379493713379
1172693.9464588165283
1171470.2764949798584
1170264.6508083343506
1169063.6652431488037
1167850.4553279876709
1166616.5156002044678
1165364.3514804840088
1164103.0147647857666
1162840.8688259124756
1161581.5231418609619
1160322.467809677124
1159057.1805038452148
1157779.4592399597168
1156486.5316181182861
1155178.9636154174805
839731.28153800964355
838785.14444351196289
837853.47819328308105
836939.66036033630371
836045.43051528930664
835169.89532279968262
834309.77070426940918
833460.47977447509766
832617.30231857299805
831776.43766021728516
830935.53346633911133
830094.20791053771973
829253.38448143005371
828415.9410457611084
827584.60021781921387
826764.66726684570312
825958.109130859375
825167.95173835754395
824392.47951507568359
823622.52793121337891
1196060.5152606964111
1194699.3839664459229
1193317.7956199645996
1191937.1018142700195
1190585.2621746063232
1189277.9671268463135
1188009.1281299591064
1186757.0110263824463
1185502.0924339294434
1184242.1089153289795
1182991.510139465332
1181767.7130355834961
1180576.1415367126465
1179406.4173488616943
1178238.632926940918
1177053.2740383148193
1175841.5755767822266
1174611.6903858184814
1173383.1310596466064
1172170.6025676727295
1170971.9701118469238
1169770.8618602752686
1168549.0209197998047
1167298.6013317108154
1166024.9446258544922
1164740.4548244476318
1163455.7073593139648
1162173.156120300293
1160887.658992767334
1159591.0691986083984
1158278.298318862915
1156949.078332901001
838314.92290496826172
837370.98857688903809
836449.36383628845215
835552.60126304626465
834679.55085754394531
833825.78812980651855
832985.09593391418457
832151.16891860961914
831319.0146598815918
830485.66510391235352
829650.51708602905273
828814.57099533081055