/*--------------------------------*- C++ -*----------------------------------*\
  =========                 |
  \\      /  F ield         | OpenFOAM: The Open Source CFD Toolbox
   \\    /   O peration     | Website:  https://openfoam.org
    \\  /    A nd           | Version:  12
     \\/     M anipulation  |
\*---------------------------------------------------------------------------*/
FoamFile
{
    format      ascii;
    class       volScalarField;
    location    "0.012";
    object      rho;
}
// * * * * * * * * * * * * * * * * * * * * * * * * * * * * * * * * * * * * * //

dimensions      [1 -3 0 0 0 0 0];

internalField   nonuniform List<scalar> 
106891
(
1.1644771428128928292
1.164457192736458202
1.1644575924586308968
1.1644901718516036393
1.1645645427969377739
1.1646815806142531979
1.1648388121661843453
1.1650259336734518634
1.1652280164109527494
1.1654287705102737149
1.1656117391628577629
1.1626543602242598308
1.1624153179830449822
1.1621780314502925258
1.1619514128229946337
1.1617498641096424272
1.1615927722100118924
1.1615024104355358148
1.1614894074887254227
1.1615436637681804122
1.1616255693116419589
1.1616694787715731163
1.1616082712441657687
1.1614087342098073918
1.161093873564515766
1.1607414420378812103
1.1604521780041461287
1.1603018023510900392
1.1603028244963333737
1.1604060021405351311
1.1605364436286182972
1.1606397929254053114
1.1607088118936692567
1.1607697371469583025
1.1608428031542910031
1.1609269784183993135
1.1610040173910989303
1.1610584380326760545
1.1610957093737328538
1.1611351963068614612
1.1611892751876127239
1.1612496924593902481
1.1612882448788350853
1.1612738821990793436
1.1611874945827820316
1.1610323042695727125
1.1608246205434866738
1.1605881532773687503
1.1603540460163528358
1.1646720780060526579
1.1646837044121023386
1.1647070004951369793
1.1647368051734514616
1.1647661026901170445
1.1647882270801483973
1.1647972400382688996
1.164791354435413151
1.1647722253103620638
1.1647476807607464178
1.1647279878600447223
1.1647272841653801834
1.1647563594837306855
1.1648239407646805432
1.1649292045974251053
1.1650685131556834939
1.1652297660431993886
1.1653995242181287573
1.165563561716951968
1.1657110180795078325
1.1622590194766238003
1.1619393778396027717
1.161626225467958573
1.1613615646680186533
1.1611812900665170467
1.1611072651373475217
1.161138649501695097
1.1612487064870138376
1.1613810856008599526
1.1614614694087905811
1.1614206396662685172
1.1612290301030694373
1.160920212260612594
1.1605804989501404823
1.1603148918006771506
1.1601964803294018136
1.1602322749112470301
1.160362250887659652
1.1605052201938859113
1.1606034567687453229
1.1606517251974004523
1.160680073358543174
1.1607198170359647182
1.1607786414503522554
1.1608384866952519143
1.1608811746552480937
1.1609034126733273062
1.1609211185966032964
1.1609504604035971731
1.1609909296286891056
1.1610232446863999467
1.1610173306093236612
1.1609543593011055762
1.1608342473011858953
1.1606696858717007181
1.1604813306355705738
1.1649258365335459775
1.1649512774748140842
1.1649863845678645191
1.1650259004967298271
1.1650630466110394323
1.1650915210861763072
1.1651057575754772966
1.1651039854639215765
1.1650878002054347871
1.1650648565855479255
1.1650446127917188921
1.1650395319255983928
1.1650589572947802619
1.1651102610547101612
1.1651919563729777884
1.1652998733279678056
1.1654225069694883477
1.1655476821289818545
1.1656640332552135053
1.1657648471365860132
1.161966177384719856
1.161531581290121462
1.1611552829523728025
1.1608963287244848939
1.160781516629555421
1.1607999867196021615
1.1609154183153163054
1.1610706523502152265
1.1611990709865722682
1.1612358596688889811
1.1611420615943166545
1.1609177156464283165
1.1606151435580507325
1.160321809714126573
1.1601242020285336132
1.1600712047142882621
1.1601507585936448042
1.160295593400574532
1.1604277130083229252
1.1604966542105057403
1.160505622798401415
1.1604886920305303999
1.1604879259710996209
1.1605251406562759886
1.1605943145875121658
1.1606718909126521044
1.1607405406263902048
1.1607932933896076833
1.1608307888144147046
1.160847000613924207
1.1608291369361531942
1.1607605783419869816
1.1606418994515317333
1.1604896959165618142
1.1603309449105680962
1.1601872767300844824
1.1652096416746684504
1.165259392655962456
1.165314527636961861
1.1653685484591687072
1.1654148757580911067
1.1654473618572489535
1.1654632037291354774
1.1654619236747960631
1.1654489372012344361
1.1654312321869391145
1.1654190459977886718
1.1654199656580033206
1.1654418428023034515
1.1654842307104273935
1.1655453846670207341
1.1656156112127884494
1.1656861778417160203
1.1657480578426979712
1.1657982256366994367
1.1612591198659036884
1.1607883049991825075
1.1604974508517651444
1.1604168392363700679
1.1605124519964244989
1.1607122062079135993
1.1609218571402877274
1.1610550847872818103
1.1610517144859251459
1.1608946411328324722
1.1606230053997004248
1.1603082178497980959
1.1600388145439710641
1.1598846803127003113
1.1598717453177032066
1.1599741024236609466
1.1601308781270338599
1.1602743119978098374
1.1603585788066081985
1.1603725834001830108
1.1603423293071302158
1.160307078904285083
1.1602975794270318222
1.1603276207878352455
1.1603936194358808187
1.1604780059579666851
1.1605607824967896224
1.1606251171668042765
1.1606534398843133538
1.1606311170685346124
1.1605493701405913409
1.1604187348206416175
1.1602622736353020994
1.1601079767367137308
1.1654271431079576971
1.1654637927437272449
1.1655125158262804597
1.1655712236030557616
1.1656350876813970086
1.1656980305710948898
1.1657529198950626892
1.1657943860594182084
1.1658177587327342994
1.165823443983676766
1.165813461572872578
1.1657948029409539448
1.1657730327971844719
1.1657568901353039248
1.1657485162644871668
1.165752079435410149
1.1657618966372336189
1.165775116565610503
1.1657842596094893928
1.1657910460306040168
1.1610917941624265826
1.1605092643668206698
1.160142581920043936
1.160032558352798393
1.1601409422362196633
1.1603731960757599495
1.1606170879704515997
1.1607652894458104775
1.1607585784788685412
1.1605926760928326757
1.1603213294499108432
1.1600314153241191306
1.159810360637684834
1.1597125295749595164
1.1597438824230661414
1.159871260892582967
1.1600387607751352359
1.1601864047853309714
1.1602751555568486808
1.1602833710427107317
1.1602256887291018117
1.1601402494733938919
1.1600692467066990865
1.1600433266262153431
1.1600712071892458344
1.1601408398640904451
1.160228749522438596
1.1603138290432870594
1.1603815198393243602
1.1604198327512880162
1.1604145006013364405
1.1603571845929712136
1.1602548067839988377
1.1656755423413367456
1.1657090953789857046
1.1657589610854628415
1.1658232808243582657
1.1658973139415722553
1.1659732705323628821
1.1660423852610906081
1.1660946979009454427
1.1661232915633237273
1.1661238261442952169
1.1660984309237441003
1.1660513918909800601
1.1659917902723118122
1.16592699337986061
1.1658666792087575281
1.1658139503990971875
1.1657720959403097272
1.1657382470456874035
1.165715331231028884
1.1603541550921481207
1.1600060086301295925
1.1599249691634700987
1.1600587394299173294
1.1602953569580805038
1.1605079529644592995
1.160597597307732709
1.1605153981013427433
1.1602839834264770946
1.1599771503767219993
1.1596964171355061968
1.1595258470244380611
1.159501179877076904
1.1596063251318948772
1.1597873196873778046
1.1599792340396009038
1.1601269547100578894
1.160187679514201653
1.160147218472892261
1.1600268631563894761
1.1598764057676163031
1.1597570432754109593
1.1597173838635412846
1.1597674257942682807
1.1598816976418202529
1.1600209119655240375
1.160150199844256047
1.1602465453775994142
1.1602943786349086963
1.1602847995059009101
1.1602129800823293149
1.1600849837210205351
1.1659018338101743151
1.1659164239654364881
1.1659496420796933158
1.1660031514727031698
1.1660744663018700606
1.1661559962948198077
1.1662369279658364452
1.1663034454931924255
1.1663431596190652062
1.1663455736187731127
1.1663077976922178181
1.1662322790204393552
1.1661289344440615157
1.1660089593794784601
1.1658878203174860566
1.165776554048867375
1.1656863084002559994
1.1656199539124876274
1.1655817491715083634
1.1600154480767785881
1.1599657066962922869
1.1601072421968474657
1.1603219322161117955
1.1604844164819874131
1.1605048322064384081
1.1603506096278926041
1.1600543340640192547
1.1597010835274896845
1.1593948602493864275
1.1592143607979403797
1.1591940027040856798
1.1593169366441533619
1.1595235224865552137
1.159745051399199367
1.1599183114076763168
1.1599985466211464313
1.1599703847316740202
1.1598488950151055743
1.1596831665489826246
1.1595443969044989529
1.1594862972448003458
1.1595259946709475241
1.1596432993331589056
1.1597968551610435828
1.1599405185689575237
1.1600428438866605685
1.1600857294357684868
1.1600665283711912856
1.1599823481406581482
1.1660227574541199846
1.1660296824173996821
1.1660616183570253757
1.1661188088805165552
1.1661953665998456842
1.1662804850427554992
1.1663583720769077345
1.1664132294241444932
1.1664293827432541395
1.1663987766789567502
1.1663190278554460555
1.1661988737607120736
1.1660504292569418006
1.165894004003809048
1.1657444851448475198
1.1656205991979398107
1.1655294198548118434
1.165480273597572447
1.1600461972668181243
1.1601121190609995359
1.1602328461151556471
1.1603123814889333421
1.1602869656433738577
1.1601291476897106492
1.1598553883315547708
1.159522607712286435
1.1592178484154547213
1.1590159571562093088
1.1589596812013376326
1.1590491008077539181
1.1592449699907489968
1.1594829842802212294
1.1596962815695981419
1.1598336728198908041
1.1598678746287671704
1.1598061485008241966
1.1596793138945142854
1.1595403494198524008
1.1594392617979676352
1.1594022194324369313
1.1594326502942409185
1.1595091227412210877
1.1596016183465591709
1.1596883473290231503
1.1597508382528876059
1.159768033053538705
1.1660820945809975413
1.1660558520527841697
1.1660571806105644033
1.1660895055773694562
1.1661495324142978625
1.1662278485010673101
1.1663088282163098786
1.1663755125522776712
1.1664100371202388295
1.1664004658897462186
1.166339394254985562
1.1662310644419688899
1.1660850442086825307
1.1659216202934592488
1.1657583054724660609
1.1656182285987384262
1.165511712365820518
1.1654519420913362904
1.1601794951706305703
1.1602179103040033414
1.1602384600623050215
1.1601910056313780029
1.1600542408660796667
1.159825289085830935
1.1595310560919185328
1.1592305142711289978
1.1589955369567710441
1.1588805181349532969
1.1589001727649317353
1.1590322103431367484
1.1592321094124238279
1.1594434359055945105
1.1596153830370978799
1.1597119400136088885
1.1597248176219363547
1.159663876541025429
1.1595542417352686648
1.1594278558834612003
1.1593181695089371797
1.159245096810162412
1.1592167529316490526
1.1592344447292282084
1.1592903826629539221
1.1593599239457148542
1.1594131261831381874
1.1660499974139271195
1.1660373873226652641
1.1660579175409648833
1.166109329461840316
1.1661832564484533314
1.1662654432041670294
1.1663396196159758755
1.1663879996069395073
1.1663974677952517744
1.1663584998170919427
1.166271563123713495
1.166142702504573414
1.1659892838808030291
1.1658282727543007873
1.1656848478978762973
1.1655714547642339607
1.1655042938793849228
1.1601113167075500776
1.160073671610523105
1.160090559440191349
1.1601139218351925742
1.1600950700593124498
1.1599987042171215901
1.1598183960872214815
1.1595833513825710703
1.159334133762704333
1.1591204085901540832
1.1589847503563994735
1.158949011939070628
1.1590101281748828033
1.1591430136129381445
1.1593106407502795641
1.1594723047451047648
1.1595954473301142151
1.1596418484548058903
1.159607144293660852
1.1595038570195657091
1.1593593956221761587
1.1592087748620041321
1.1590817977321563603
1.1589992071591777023
1.1589725613132619841
1.1589930131973158467
1.159038864559823967
1.165965200987173489
1.1659865716639048472
1.1660399298596884066
1.1661157457887822986
1.1661995445895190215
1.1662761570759490048
1.1663294342767647205
1.1663482798934874385
1.1663237006058482237
1.1662564653980531659
1.1661500964787934187
1.1660197477264566679
1.165878206604835654
1.1657495377499342837
1.1656441358502285244
1.1655800372604472326
1.1599039723891872988
1.1598593057216535218
1.1598853451458763786
1.1599371151885782272
1.1599556621235593834
1.1599005305277776401
1.1597741468032694012
1.1596064401711814185
1.1594375292639327313
1.1592936039328107789
1.1591830860291436611
1.1591151067042224643
1.1591054754960308237
1.1591664051955938852
1.1592910438280130681
1.1594504610429086089
1.159590158768249557
1.1596610629077281907
1.1596383431954262466
1.1595282312818724346
1.159361997065329275
1.1591704745925219822
1.1589851178352990058
1.1588347330414285885
1.1587406407776066342
1.1587078602331719601
1.1587298416672502377
1.1587771461978579879
1.1659335087906577133
1.1660053889009280859
1.1660958765691358252
1.1661884478893485007
1.1662669941569301368
1.1663166980175028176
1.1663298943040611988
1.1663024932676346879
1.1662389379110442711
1.1661443305406868909
1.1660323107136298937
1.1659126977069267372
1.1658050278545983858
1.165715917299272375
1.1656598036282883601
1.1596731992946280876
1.1597361240470318577
1.1598141673692448084
1.159847007220509596
1.1598031839896489892
1.1597064317243197529
1.1596016193715279474
1.1595237187004354684
1.1594801969248498263
1.1594534458728544823
1.1594272848528923703
1.1594124718590070877
1.1594292806221180303
1.1594851546593702984
1.1595555617223654021
1.1595869088001775626
1.1595463165535579986
1.1594267239009634629
1.159254708821618518
1.1590697143312209683
1.1588996641042679236
1.1587594079258694002
1.1586597534789428998
1.1586050361187614222
1.158594732074349487
1.1586199449627585523
1.1586642998624632206
1.1660180159545523448
1.1661115006215487799
1.1661977652543560335
1.1662605948992734728
1.1662881061701888541
1.1662767873557142728
1.1662283075821797684
1.1661511340034573792
1.1660545815441385464
1.1659518533270838425
1.1658514409680751367
1.165766295495715088
1.165698994260836896
1.1656579857288362767
1.1595803410601961403
1.1597163646658807945
1.1597750164501163805
1.1597463783550157057
1.1596737328699318059
1.1596184932920683419
1.1596137248519315932
1.1596495261685784151
1.1596930611526472532
1.1597165099767730023
1.1597222134889544343
1.1597271897290462039
1.1597387902532625414
1.1597325333176478068
1.1596669662395568956
1.1595202030120053127
1.1593037765662494998
1.1590623273139784022
1.1588409804234123257
1.1586694646564472677
1.1585534087660909197
1.1584867932942126689
1.1584572681269047489
1.1584571434340844576
1.1584786507551876333
1.1585163294378246768
1.1661100291490613667
1.1661894311863478801
1.1662378529497170465
1.1662458353915159392
1.1662135273869973506
1.1661465802071806497
1.1660580488229450591
1.1659601313848477755
1.1658669518292310574
1.1657841932113761629
1.1657203347843019259
1.1656722815823572503
1.1656442571996235014
1.1595156155729682279
1.1595660788838302313
1.1595481740421920147
1.1595177220534791385
1.1595316242186546329
1.1596130120725840484
1.1597372305756967759
1.1598601923439340045
1.1599524255472102308
1.1600101785831036239
1.1600404167317190929
1.1600404427028276899
1.1599866371313094504
1.1598502978837625932
1.1596228531313685917
1.1593300142214717496
1.1590266524730312714
1.158765139706922076
1.1585767936129622857
1.1584642105142197721
1.1584128205695403135
1.1584025309343861654
1.1584195251151949702
1.1584545456698531751
1.1585077396388776538
1.1661506357025541725
1.1661870489824972541
1.1661815767402263777
1.1661363872821659537
1.1660592521035082481
1.1659657714237183779
1.1658694185909241892
1.1657845728678006836
1.1657150465252590354
1.1656665031058393023
1.1656321806684439846
1.1656121115780140318
1.1593335183354855911
1.1593296153373442436
1.1593415463616494332
1.15941555633751614
1.1595621472624979553
1.159752948927784244
1.1599416347803777061
1.1600964700541391839
1.1602078171115242089
1.1602743818927598873
1.1602828017706199315
1.1602034736627253597
1.1600168266234183179
1.1597232522673797117
1.1593621625744690018
1.1589960781785271227
1.1586834322728767344
1.1584603167886384778
1.1583295799335708853
1.1582736492038077092
1.1582679163154359081
1.1582976750690019418
1.1583554203377075531
1.15844278600334194
1.1591436513799446839
1.1591872840520449639
1.1593031473113724061
1.1594952481921614318
1.1597356247435621768
1.159982932072957551
1.1602022000631815324
1.1603735768954108742
1.1604875986208686989
1.1605272026977815347
1.1604618954600756098
1.1602675438478942116
1.159946163412427067
1.1595388101629442446
1.1591159194333775506
1.1587468282021944344
1.1584766420073724369
1.1583163849529218847
1.1582475983332547464
1.158243564046585572
1.1582848724087710934
1.1583605166557491284
1.1584715333645161373
1.1592017255072759596
1.1594194722867370295
1.1596912841189896959
1.1599759684830504014
1.160235870805883529
1.1604454718013152981
1.1605945310928442726
1.1606711887610670075
1.1606469419685214728
1.1604932490287200864
1.1602005972999134276
1.159799625578418425
1.1593525399593185288
1.1589342292929989409
1.1586018785595559866
1.1583804171725506915
1.1582601127816871678
1.1582241308390119894
1.1582534944011186884
1.1583392500826217297
1.1584819139902746699
1.1601481468498724414
1.1603996860739860253
1.160584714381054372
1.1606969192647480504
1.1607157298602626128
1.1606101862240836287
1.1603604636487196977
1.1599845862498052718
1.1595360210939322787
1.1590895249620092322
1.1587081297811911984
1.1584259066067161825
1.1582450051137171965
1.1581571672960957464
1.1581552800749301824
1.1582421764273518328
1.1584146558031507279
1.1607437072417836621
1.1607045434698204378
1.1605200712241818817
1.1601939238331298032
1.1597722071545906175
1.1593252342863888948
1.1589183059944361265
1.1585892652210594278
1.1583493809914442441
1.158198620644796728
1.1581416185571322686
1.1581893399718035109
1.1583459505717996763
1.1607184309735134597
1.1605608945973153734
1.1602681015895304206
1.1598736999904175615
1.1594417003880683747
1.1590337766622123006
1.1586876218789874393
1.158419085874978105
1.1582339846814182494
1.158140635776901739
1.1581534763142025124
1.1582810949822179847
1.1653319335859966266
1.1651458849623099745
1.1651056037596314585
1.1651314214470798181
1.1651473685470816744
1.1651287179728102572
1.1650912281576120133
1.1650440408542133142
1.1649663932571074909
1.1648291902063729886
1.1646248805580285968
1.1643876044603120867
1.1641866592984810858
1.1640901131142245006
1.1641323217182522054
1.1643001006763984417
1.1645341168143394928
1.1647402566141666913
1.1648144150811889919
1.1646818024392631141
1.1660688374025531822
1.1656588449376581451
1.1653852706648597515
1.1652426811736396051
1.1651688420278578651
1.1651031387796524363
1.165032605421000067
1.1649832525112708836
1.164967963468578116
1.1649518567327765695
1.1648748567789681818
1.1646987395665366893
1.1644466707943967876
1.1642002690847532698
1.1640571101585575065
1.1640796768751451307
1.1642643334243656383
1.1645437614860185693
1.1648075763134200233
1.1649414789811900484
1.1648690659364062672
1.1645778861459370468
1.1671223552944558488
1.1668039361966078271
1.1663665855594280707
1.165937789837348193
1.1656063023871603423
1.1653804267894989355
1.1652102405369910709
1.1650495827394744541
1.1648998651863546883
1.1648026570029215154
1.1647810824895785675
1.1647954790468442177
1.1647628644154868205
1.1646184601432483241
1.164372426814236805
1.1641099370400080915
1.1639462670002838074
1.1639599858380000885
1.1641499957538414822
1.1644400155018765908
1.1647105604179268656
1.1648490637645272372
1.1647899345429229001
1.1645271379720474325
1.1641105255374673
1.163621933847829526
1.1666117660352324226
1.1664447540092726108
1.1661067693731634876
1.1656943302208928603
1.1653375758821773456
1.1651125158415773786
1.1649997749677163394
1.1649129351268014965
1.1647768405594498553
1.1645839441685381654
1.1643908581007564873
1.1642555546784683074
1.1641728608352339691
1.1640773177036836117
1.1639037294757434982
1.1636574483605712782
1.1634159878727907689
1.163283745919809764
1.1633234630371596108
1.1635109783505395153
1.1637502208158361228
1.1639208141860690748
1.1639342921492428218
1.1637655315153003777
1.1634435578186281823
1.16302950303473418
1.1625899842263556216
1.1621844631514712809
1.1645881266498221418
1.1645055107435782205
1.1643646879555904494
1.1641780247365969281
1.164014065268135667
1.1639473657903789405
1.1639871120811955407
1.1640495086027133897
1.1640083003946128937
1.1637851017758176209
1.1634132077196477351
1.1630134156587363936
1.1627093248701763084
1.1625339532799063846
1.1624172558709386927
1.1622568133495518872
1.1620151179439619504
1.161742703782415731
1.1615360871886122318
1.1614673669215282992
1.161529738684191182
1.1616465715584793905
1.1617223008719648192
1.1616954938184140822
1.1615605738794276824
1.1613467511385624498
1.161088826457955081
1.1608097048430601195
1.1605312263749882895
1.1602885137722505071
1.1627921583772904413
1.1629020706291663956
1.1629718275822458207
1.1629269690970966966
1.1627626615330997062
1.1625507693737084924
1.1623901385847972278
1.162325082226620232
1.1622941626019775985
1.1621798489469765681
1.1619000116392255162
1.1614854385571811157
1.1610585021941925987
1.1607440339906704985
1.1605762615712695851
1.160475267501713148
1.1603277062418881904
1.1600942017166981923
1.1598417691111009287
1.159684904699421093
1.159702401647941139
1.1598773066979426449
1.1601060172436958862
1.1602681972567419066
1.1602938581949973074
1.1601862643032763156
1.159994291932468613
1.1597666464059899205
1.1595292730746229459
1.1592985387900012206
1.1591053935389767915
1.1590011458981501757
1.1618740796600968146
1.1620139666637581133
1.1621204485034912768
1.1621148470234285988
1.1619882334732667406
1.1618089117843637403
1.1616751653502130903
1.1616367980335522425
1.1616364235079086331
1.1615532922284528272
1.1613067035115867132
1.160920372696464975
1.1605206044230442775
1.1602345371650812922
1.1600926492582179783
1.1600087507460916658
1.1598652121886814381
1.1596242255148454525
1.1593670365155748225
1.159222603335309465
1.1592720752999963185
1.1594937492312313854
1.1597702753759195904
1.1599715078981565064
1.1600291799364734757
1.1599529304869771185
1.1597960961813809089
1.1596002746052187504
1.1593765666071009779
1.1591300376678888018
1.1588947348183007424
1.158738969595387136
1.158729694720757486
1.1655111798761912389
1.1655960761637342848
1.1659310648482648087
1.1660491060467073066
1.165740922843986116
1.1652109768922376265
1.1626634149582437683
1.162827874170061504
1.162956712782600599
1.1629689515087378027
1.1628561148079790133
1.1626896031021936029
1.1625744755045206436
1.1625621875532459182
1.1625930977742255923
1.1625353319499585059
1.162301338051536348
1.1619147849302193798
1.1615113905801348615
1.161225212455877509
1.161093754164725711
1.161028767357432212
1.1609043991813419172
1.1606779225503265351
1.1604344605070286978
1.1603122508276317859
1.1603929226717231149
1.1606509035922323303
1.1609584330429281174
1.1611768325868865315
1.1612400428133295982
1.1611656384064508174
1.1610159535034205724
1.1608345053622433074
1.1606269003046136845
1.1603924646828054357
1.1601649616889504468
1.1600189638992193242
1.1600291948558507649
1.1602027349982955151
1.166014733496422151
1.1655996315546115483
1.165737405755558509
1.1661403816141531209
1.1663037138257028591
1.1660207906070785278
1.1655088567832261326
1.1648414781204170509
1.1650398619834856362
1.1652023337922814417
1.1652418868684306652
1.1651538556741229957
1.1650107465298991105
1.1649201050256134948
1.164934589599089465
1.1649950090866119101
1.1649644236942422459
1.1647513474769741748
1.1643836127130611224
1.1639990875294645711
1.1637364526535831644
1.1636341843615494174
1.1636009747793945035
1.1635044492940953553
1.1633006778047421115
1.1630772673049825094
1.1629802243778952775
1.1630923663306145244
1.1633849408150997995
1.1637256003211580158
1.1639701301940463818
1.1640540213254584323
1.1639990847324608314
1.1638716398285406939
1.1637153739333474523
1.1635320187534854419
1.1633176293921900779
1.1631058097113535776
1.1629753383811531897
1.163006333398679093
1.1632074176216047334
1.1634730061334013218
1.1644615518338223836
1.1643997888302268784
1.1643032294810813365
1.1641822561694818994
1.1640562745115985432
1.1639423823168288941
1.1638587818826557907
1.1638214196756500041
1.1638361309914786457
1.1639067892665559967
1.1640339260162411161
1.1614047567008356499
1.1611185318841150682
1.160863238256321317
1.1607036986318750582
1.160666319980450778
1.1607305495763136083
1.1608430978385906318
1.1609507648205921182
1.1610111330934265172
1.1610112818137352519
1.1609477775595804516
1.1608217766735973164
1.1606423556676348507
1.1604390550096734813
1.1602563584809562069
1.1601348520492331673
1.1600902875813712267
1.1600951069355025513
1.1600871729160548984
1.1600098449063138695
1.1598569523873967224
1.1596751059909602422
1.159547184448054491
1.1595559295130193345
1.1597355614329816209
1.160064640916782075
1.1604734933198721514
1.1608705230695586241
1.1611710234692715904
1.1613220087516689105
1.1613072278091169931
1.1611499762366872535
1.1608956053693173516
1.1605991056294613362
1.1603149954865852322
1.1600839389255659384
1.1638561443213544244
1.1638864914986983834
1.1639447499991171231
1.1640274957846676873
1.1641290321737121083
1.1642408319194457178
1.1643526184190968742
1.1644514338527089947
1.1645246425594302231
1.1645606546921645208
1.1645529079880239109
1.1644992036324790519
1.1644064546866492726
1.1642850080732811691
1.1641561640351503204
1.1640388925385531937
1.1639556950781513311
1.1639247030555786022
1.1639532154743947867
1.1640452713176145938
1.1641975911518203102
1.1610227544892999241
1.1607789311851897107
1.1606240709813715473
1.1605928107278675743
1.1606751350581738791
1.1608169439245683563
1.160948525535715703
1.1610143815778204424
1.1610014552510725672
1.1609217506666773545
1.160792145744399928
1.1606213811085599463
1.1604166663592656583
1.1601975442349625744
1.1600031246267996643
1.1598779203080622491
1.1598439601820660361
1.1598852184569494739
1.1599448041647186791
1.1599582346034593705
1.1598953678807077949
1.1597717706261594373
1.1596483495889915449
1.1596004547377358751
1.1596783034756670272
1.1598911121658226353
1.1602014768741728545
1.1605392106580518785
1.1608219346378352288
1.160985196479251913
1.16099656087506653
1.1608660363227885082
1.1606344214003385673
1.160359902731725068
1.1600984168947396924
1.159890473529677779
1.164092681061505985
1.1640959531002132987
1.1641245394634283095
1.1641786312380102419
1.1642558353723186926
1.164349976827439459
1.1644520450360915653
1.1645492708704223705
1.1646278694529956788
1.1646738144753565614
1.1646777881554246648
1.1646355417701703683
1.1645527870565253181
1.1644398829736390955
1.1643185290045954261
1.164208094469848298
1.1641326189623701914
1.1641106917850849722
1.1641506738845239788
1.1642568420974479526
1.1644231787863434935
1.1605687541178764111
1.1604994377515842618
1.1605697839247073322
1.1607377398488880615
1.1609245618989130211
1.1610505530553543174
1.1610701547728277117
1.1609877488815345536
1.1608367787802547078
1.1606498001849470114
1.1604412816483442583
1.1602146079625030861
1.1599811759185543192
1.1597736759274468454
1.15963877367769852
1.1596056140076016483
1.1596703319030809975
1.1597919131612388632
1.1599010290825655378
1.1599367644505222952
1.1598804363300772025
1.1597616322015915635
1.1596411688768877291
1.1595879066235952326
1.1596463761755941846
1.159818873247490556
1.1600654141553596865
1.1603142945178581691
1.1604911697624347156
1.1605506552979540924
1.160483984433479332
1.1603207416428442667
1.160109625772320685
1.1598988433264885156
1.1643422061151404989
1.1643341195885439365
1.164351191513965933
1.1643946035343701872
1.1644610546303224563
1.1645431910240351403
1.1646290863601254095
1.1647052405156945731
1.1647575160117837889
1.1647756678400205121
1.1647539319188286999
1.1646954919423926356
1.1646086734891112346
1.1645127270020692034
1.1644252614387597955
1.1643696543913015784
1.1643629534807009573
1.1644139513326616786
1.1645260855577133086
1.1646935249283658642
1.1604123883893271429
1.1604114959146858421
1.1605482877803601216
1.1607498666278059929
1.1609252580446651759
1.1610064071989798506
1.1609636497906046237
1.1608198406701251137
1.1606218757051385282
1.160411487977063727
1.1602065289447001106
1.1600070347085940092
1.1598115141800606764
1.1596395342065231038
1.1595275894891965418
1.1595079412168498578
1.1595845782117857325
1.1597271627092113899
1.1598747449557824662
1.1599553160149291831
1.1599263159632395848
1.1597910985421677754
1.1595977068231257956
1.1594269948398683301
1.1593521643569908441
1.1594093028434426795
1.1595807385422201019
1.1598026886174888084
1.1599929109529250049
1.1600920794724896012
1.1600782282019066471
1.1599712512738085124
1.1598107825219488021
1.1596407551065850416
1.1646143331557365919
1.164574549221933264
1.1645570100623316989
1.1645654104978664378
1.1645992067420030125
1.1646537340644038672
1.16471940354532566
1.1647848288326689836
1.1648374712146951637
1.1648679344912076239
1.1648699793254748691
1.1648442922991566473
1.1647956036324280671
1.164738082310840861
1.1646846251725218035
1.1646555115224550558
1.1646648918118276406
1.1647214963471419491
1.1648289811500633917
1.1649825500460389005
1.1604217950563977535
1.1605375210167980793
1.1606858033590949919
1.1607988736500451932
1.1608261751103845505
1.1607524165772051816
1.1605900250540521768
1.1603748323420328692
1.1601466941302396307
1.1599281717924512236
1.1597288747393956765
1.1595498560261792154
1.1594042801346906568
1.1593171004170195193
1.1593117273302999681
1.1593957121554425704
1.159544297600837881
1.1597052466364716761
1.1598149427461967864
1.1598149686498888666
1.1596895895257628428
1.1594689547228451687
1.1592305655830292821
1.1590613165383387706
1.1590237939969176839
1.1591211518188881957
1.1593039783792391528
1.1594952671395151178
1.1596264323407508012
1.1596636298117883879
1.1596090361303312832
1.1594911400790570699
1.1648718080593853941
1.1648247581201944811
1.1647966884250213759
1.1647901498977155654
1.1648045652651286552
1.1648352337504177534
1.1648755712824618858
1.1649163401339917012
1.164949938622666048
1.1649699064271636928
1.1649747769594855917
1.164965116251757804
1.1649495076007703176