/*--------------------------------*- C++ -*----------------------------------*\
  =========                 |
  \\      /  F ield         | OpenFOAM: The Open Source CFD Toolbox
   \\    /   O peration     | Website:  https://openfoam.org
    \\  /    A nd           | Version:  12
     \\/     M anipulation  |
\*---------------------------------------------------------------------------*/
FoamFile
{
    format      ascii;
    class       volScalarField;
    location    "0.012";
    object      T;
}
// * * * * * * * * * * * * * * * * * * * * * * * * * * * * * * * * * * * * * //

dimensions      [0 0 0 1 0 0 0];

internalField   nonuniform List<scalar> 
106891
(
300.38142038452343741
300.38055259502903027
300.38231944470726376
300.38826326638672981
300.39887246716119762
300.4146062535994588
300.43453388855891717
300.45775682155635877
300.48274479159653083
300.50738491959378962
300.52906541645006655
301.01212124485596178
301.04348434546312774
301.07776640356854614
301.10142045223352625
301.10525188835464405
301.0871464273956235
301.0526945999776558
301.01247430088062629
300.9782790965527397
300.95863270494731978
300.95585418249453369
300.96647865996180826
300.98443548923955859
301.00460222553454059
301.02509804864740772
301.04683345087801172
301.07085496508472033
301.0957664776412912
301.1180954253946993
301.13504742229309841
301.14730024706449285
301.15923179523105091
301.1752571524615405
301.19467279322259401
301.21079904176622222
301.21373602734149699
301.19566429206395242
301.15570092882796871
301.10073213145352611
301.04285835727552012
300.99566876566251494
300.9707190958477554
300.9755122600050754
301.01211017133431369
301.07679484795914959
301.15964041784269511
301.2464115707503538
301.32247130036336102
300.40334784246067557
300.40480567764655007
300.40694790715213003
300.40933571056757501
300.41149047966951002
300.41281893705246375
300.41306200643720103
300.41204302940428761
300.41032090062725501
300.40855259740033034
300.4081558716585505
300.41023532012025044
300.41624546096790027
300.42647808683670974
300.44133116956334106
300.45956510596147382
300.480313238725671
300.50193401858979314
300.52284570029985389
300.5407217839316445
301.01228479452805686
301.03597099176130314
301.05421277931651503
301.05925464849769924
301.04815103646717489
301.0236368100324853
300.99292300209708628
300.96516188235659683
300.9476192287156664
300.94316332261581692
300.94978845854700467
300.96304247636891205
300.9793103139037953
300.99714305505568746
301.01696599740779448
301.03886408148457576
301.06098057122574119
301.07972455533376888
301.09315980716047534
301.10301709116203028
301.11469232131582885
301.13306065777015874
301.15803746725066503
301.18298743385713578
301.19703650165286035
301.19095706847639349
301.16153229101496436
301.11357964826885336
301.05791550037787374
301.00790251471931924
300.97625625152301154
300.97223780492237211
301.00029866838872294
301.0586137146327701
301.1383454384197762
301.22536122849385265
300.42197675144961977
300.42576460352813683
300.43042308782037253
300.43539692526644558
300.44010964523226903
300.44390129329752881
300.44643606887370879
300.44745759907317506
300.44744618081796261
300.44700020237331728
300.4474212798943995
300.44966844233283609
300.45501545690513012
300.46370358590945671
300.47603638515937519
300.49083200940526694
300.50722823168769082
300.52383785536261485
300.53931017712028506
300.55191000218371755
301.0191974112740354
301.03217071116426951
301.03564591443256404
301.02708483405376683
301.0074667551268135
300.98091162051935044
300.95419729643344908
300.93412802810865969
300.92521097924401374
300.92786271947124987
300.9392698194791933
300.9547583374199462
300.97087965764319506
300.98646369062038275
301.00194253511511988
301.0179430649520782
301.03384087252493373
301.04774904435521421
301.0592006297326293
301.07035266971826104
301.08586201331763732
301.10857939165441621
301.13688964395214498
301.16344553702873554
301.1776666620027072
301.17055485199728082
301.13994280971348871
301.09175978198089751
301.0384273635023078
300.99439618268900176
300.97240212846469376
300.98015194042085341
301.01981191148217931
301.08676685297069753
301.17010467435505916
301.25421272357704083
300.45551990400389286
300.46039337796793234
300.46576071516273032
300.47116377686586475
300.4759775037702525
300.47984183034395755
300.48238260204448125
300.4838650941971423
300.4845693341822539
300.48553984473409173
300.48738502403688244
300.49121948774455859
300.49718870259226833
300.5058097179306742
300.51595367833783712
300.52714569020372437
300.5380891136601349
300.54790146901393655
300.55526836074869834
300.99920547583610642
300.99801814252435861
300.98977619873824096
300.97420765136394039
300.95290536409714832
300.93019189991628082
300.9110543961814983
300.89991615490043841
300.89885529750654314
300.90735856075440324
300.92391764669588383
300.94562414318340871
300.96987298576021885
300.99394053642100744
301.01482794820009303
301.02964478827806261
301.03712122316210298
301.03890800150708174
301.03989404872885416
301.04633553934695556
301.06321821701510544
301.09036110787570806
301.12095597756319876
301.14395985379763943
301.14876835235486396
301.13000631954747632
301.09095647255588801
301.04307625303357554
301.00165050207243667
300.98084242050970261
300.98932930199174507
301.0292067901655173
301.09529776512817989
301.1765766029852216
300.47689872816027901
300.48175346306766187
300.48753072503637895
300.49401614942490824
300.50084996651168012
300.507426358681073
300.51328689711766629
300.51782360485685786
300.52096067268882962
300.52251062778111645
300.52316283002545561
300.52321599771028104
300.52377686683882985
300.52500717878842806
300.52796011584831604
300.5318490033681087
300.53703131737569265
300.54221029825180267
300.54733066357482585
300.55089300293792576
300.95972032475708602
300.96639904935500454
300.97420535555414745
300.97889037265503021
300.97623626415264653
300.9641619716646801
300.9443595761139818
300.92080537044239463
300.89991303188992333
300.88765413242134628
300.88826768856847593
300.90247887623826273
300.92704742447085664
300.9552896908349453
300.97931959132438351
300.99352643230685089
300.99669755238295465
300.99222718428234202
300.9875035466785107
300.98966819568835263
301.00436724085079732
301.0327842538429195
301.07016081295370213
301.10685320245761432
301.13137756255821387
301.13475923128652312
301.11447534743331289
301.07641923980179399
301.03321221241742478
300.99985473177861195
300.98862122689087073
301.00608397309053998
301.05221115028086842
300.51074373114005311
300.51654893345954633
300.52312746885507977
300.53036545243793398
300.53783857815784586
300.54503632515275058
300.55115439781832265
300.55563526496200666
300.55777656154447186
300.55765098649965239
300.55536157540376507
300.55179493152144232
300.54750902375991473
300.54380437494438638
300.54086873390627943
300.53953648560769807
300.53938864205650816
300.54052904159811987
300.54172350262751934
300.95162591148749698
300.95565497523864451
300.96050180785300654
300.96153350231259083
300.9547574898741118
300.93912069741503501
300.91735906726916028
300.89454058593503305
300.87734078466996834
300.87072897265522897
300.87658566319294096
300.89205267511852071
300.9104380246348569
300.9245734007567421
300.93024971788025823
300.92859606155332131
300.92550500071666875
300.92782954286627728
300.94112519070881717
300.96778919158685994
301.006011717313811
301.05000259053883838
301.09103575942179987
301.11875407017413409
301.12483931057607833
301.10709793972762327
301.07122807178723178
301.02952539070878402
300.9968069157674222
300.98591568846262589
301.00352698648276828
301.04845749339835947
300.52438841642322132
300.52751547868729176
300.53211477552417819
300.53845250929333588
300.54633378505712926
300.55521001169216788
300.56400305649555094
300.57164216239323196
300.5767592189321249
300.5786638239808326
300.5768570739097072
300.57190918629822818
300.56445404081557626
300.55603647646734089
300.54751824535225069
300.54046999791484041
300.53526094718807826
300.53263440850054167
300.53178087110791239
300.96054633984851989
300.95978843531690927
300.9539385631515529
300.94116644222339119
300.92205954272969848
300.89989335557316963
300.87915924038190951
300.86429435037172198
300.8584252854198553
300.86203324778205115
300.87184892853304063
300.88263390429153787
300.88931033813372551
300.88899986537347786
300.88374330896016318
300.87933706410530021
300.88288225361156947
300.900096000672022
300.93268610934893559
300.97803688230396801
301.02982198820791382
301.0778304216563015
301.11083673001706984
301.12064647802179707
301.1058055686664261
301.07255739328707023
301.03368844015608374
301.00378383986509334
300.99486917276800568
301.01144039146328168
300.54648282374625978
300.54849270684934481
300.55252297376256365
300.55868934771854128
300.56665098679565062
300.57533604410372163
300.5835182249854256
300.58945073184406738
300.59200843526508606
300.59006857866017981
300.58389236775099107
300.57382303319093353
300.56177137033142799
300.54880417406354809
300.53736211790754851
300.52795449089330759
300.5224458650348538
300.52023212018417553
300.98973869125893543
300.98580860305298756
300.97097220934489314
300.94718374075159772
300.91951680438199901
300.89318098963593684
300.87219393467620421
300.85862590225008262
300.85299260980906411
300.85270286688137276
300.85344686789318303
300.8510953489634403
300.843671103760812
300.83262104745904253
300.82316039526875784
300.82274424436610616
300.83808178166987091
300.87298998285723428
300.92561822920976056
300.98908611610232811
301.05204198087739087
301.10128084535642756
301.12670811502084689
301.12429518770761661
301.09823206227588344
301.06028338412301082
301.02495327019437354
301.00416332477686865
300.55541294342452829
300.55529441042210692
300.55711136826619168
300.56128913264745961
300.56773371192713284
300.57555685347898589
300.58356354912632469
300.58996668377852757
300.59346810664573013
300.59263257383565815
300.5872835566680692
300.57739105394409762
300.56463994489934066
300.55017784136504133
300.53679730559844074
300.52529397494316754
300.51806637421123014
300.51495605969802227
300.99571365873168816
300.97543657936756745
300.94725692694339614
300.91707637754757343
300.89078692636581991
300.87092697047660295
300.85723480771287086
300.84809068635809126
300.84110593854001081
300.83325559516390513
300.82159377806442535
300.8053972872727968
300.78776913730939668
300.77491890762865978
300.77469335199140232
300.7937038834344321
300.83538547286343601
300.89720567686310915
300.97077494419721688
301.04354302969215951
301.10235974342305099
301.13642069118048994
301.14091562469434393
301.11897599803978665
301.08043140772105062
301.03794294133922449
301.0040105365806653
300.54811339016919192
300.54604544256142162
300.54709465114086697
300.55129660576841388
300.5579201861452816
300.5658458407673379
300.57335970256110613
300.57903775246529676
300.58126426293364375
300.57948010755166024
300.57321837814760102
300.56360040326484295
300.55149390808082899
300.53955417361106583
300.52865737291273263
300.5216240026929313
300.51847884338599215
301.01955735761237065
301.00737552898186777
300.98487485042028311
300.95761272908885076
300.93106655442869624
300.90890608992975785
300.89237642467446676
300.88062249127011683
300.86961274897743124
300.85488729359553872
300.83330792301552492
300.80445142297952543
300.77152660350662927
300.74121956242680653
300.72259565020522132
300.72460188255126923
300.75350729856899079
300.80830692432419937
300.88336063613894567
300.96734667884066994
301.04604203171231802
301.10597225451226677
301.1375615663064309
301.13801773646855509
301.11239158318625186
301.07106976067223059
301.02725999276407265
300.53729110080695364
300.53880410605506768
300.54379887423510809
300.55140591443154108
300.56047207457487502
300.56932044505032309
300.57670009844952119
300.58101767426387596
300.581845343498685
300.57846680229988579
300.57191054982388323
300.56247824196549345
300.55274400016816116
300.54301102409220903
300.53638485150253246
300.53279786597522616
300.99507821611905456
300.99763039383975638
300.99113488361166446
300.97797928838861026
300.96037816092518824
300.94108402791329127
300.92372323347308338
300.91005862307008556
300.89871319586586651
300.88464343622138131
300.86159368628449329
300.82693301236434991
300.7841877875754335
300.74220268187241345
300.71198400523553573
300.70346682550314199
300.72164710083313821
300.76676475699923685
300.83435671614648754
300.91585095357339696
300.99966861685061303
301.07187761953832705
301.12046337525214312
301.13876235286983274
301.12733955068375735
301.09321352082412204
301.04840417575161382
301.0052592721033875
300.53518423418535122
300.54152579888301489
300.54977763778816779
300.55857466376107823
300.56624780823284482
300.57173399569677485
300.57394528640315912
300.57304431306982906
300.56886650777323666
300.56263577803429143
300.55468904977186639
300.54724182815374434
300.5402985384813519
300.5363946007390723
300.5351954859830812
300.96719819511145033
300.97642722745274568
300.97755783047364275
300.97032589112205869
300.95665471743006947
300.94151218311964158
300.92829983140211425
300.91593138059494095
300.89888140030575414
300.87027652124641008
300.82747024108437017
300.77628509933919077
300.72875358458668416
300.69842528373578716
300.69489293609677816
300.72061472799970261
300.77365470172850337
300.84747267597140308
300.93277808555609454
301.01788051753379705
301.08948754658354119
301.13602341681121288
301.15140630651410447
301.13635406229457203
301.09847472716211314
301.0499091617705858
301.00395229430574773
300.53481105601633772
300.5456021301000078
300.55621667481540271
300.56491573411926765
300.57064635765220828
300.57274708451694778
300.57164415695871185
300.56773106037746857
300.56227926855473243
300.5559456997919483
300.55032976399951394
300.54536964625310702
300.54262424363213313
300.54175639536401832
300.95893079657525959
300.96161344754551692
300.95532603572996777
300.94341723744958017
300.93143831703667956
300.92305528143788251
300.91617239661997019
300.90362480714912863
300.87798444396941022
300.83672763828832331
300.78586584681323757
300.73761326552596529
300.70548045478915355
300.69868356086846006
300.72045641110594261
300.76948604999051895
300.84057330165478561
300.92565167909464208
301.01304945183142081
301.08944287390119143
301.14254321294316696
301.16514150567684283
301.15688967623947292
301.12477846506226342
301.08034460520883613
301.03666060275844529
300.54500019413740119
300.55534605741070209
300.56312369744915713
300.56745231025485054
300.56792527185592689
300.56535666560591835
300.56046677590660465
300.55489990186976001
300.54925011913474009
300.54497467667539468
300.541462796598978
300.53983145122202814
300.53928447471082563
300.96152237120134032
300.95906402740496333
300.94905277858458703
300.93814624439175986
300.93024531833333413
300.92362702255212525
300.91126324183056795
300.88606547928139889
300.84631059076662041
300.79749383992850653
300.75006179285378494
300.715356895944808
300.70176593996887959
300.71358553411187131
300.75141886321841866
300.8126308326395133
300.89137674978115911
300.9774881569078957
301.05784920048688491
301.11923494778676513
301.15245417546395856
301.15501097350056625
301.13194983559105822
301.09350501411165624
301.05231978225901912
300.55567528234496422
300.56141225291054297
300.56353793640448657
300.56191545727790526
300.55767406790647556
300.55177060987290361
300.54608407236588619
300.5411163886359418
300.53819566572826716
300.53634238867800832
300.53625629152486454
300.53668837980904982
300.95827140349962292
300.95024065542168046
300.94136675747563459
300.93509276374857109
300.92942440727119902
300.91809607577010865
300.89471278516538177
300.85779401333928718
300.81225740783617084
300.76743883671196045
300.73318688441145241
300.71684727454112362
300.72332283802069242
300.75403969712999697
300.80805263886765033
300.88102316342320819
300.96444515175494416
301.04666810371674046
301.11483067270222591
301.15873831963176599
301.17361026958019465
301.16180520889992067
301.13117674457964767
301.09295747839593105
300.94406243222590547
300.93787673844235542
300.93320975923660399
300.92766039498246755
300.91552946483528785
300.89157939938723985
300.8546070467558593
300.80896318870412642
300.76347116709638385
300.727833979010029
300.70953825251291391
300.71322027839016755
300.74058287067350648
300.79075658898932488
300.86000587049937849
300.94071659208265146
301.02211849832144708
301.09239172487707492
301.14145063859973561
301.16425294380252353
301.16216672796275589
301.14162267575426313
301.11236752460627031
300.92559653788936203
300.9184933063128824
300.90560176013502769
300.88239585732105752
300.84742336755908809
300.80384194177156587
300.75941348888102311
300.72343785539652572
300.7031499433363706
300.7031383339324293
300.72524125067741352
300.76951955425818142
300.83337961970272545
300.91108958823917874
300.99322489735027375
301.06829350340478868
301.12523961541131712
301.15795886232831435
301.16601943168859634
301.1547561349838702
301.13298178353318235
300.85437447465704963
300.80817007337850555
300.76200433281735513
300.72577293550898503
300.70697741544381643
300.70908844881478217
300.73227061164988072
300.77546618782258747
300.83633342879892325
300.91086560299186203
300.99179989537196889
301.06910719763493489
301.13202013289270553
301.17306066264455922
301.18999379346280421
301.18636304621367117
301.16851155090449765
300.70466531677146804
300.70721400542169022
300.73136725381721135
300.77412883125481358
300.83270825326854947
300.90378387671159999
300.981927805465034
301.05889004349961624
301.12528464211146684
301.17356196354757003
301.20056741362628827
301.2079309716364719
301.20014745717321603
300.7109048389201007
300.74730182766523967
300.79889317418178507
300.86177806798997381
300.93295225429250195
301.00810743111748025
301.08069375238704879
301.14336592150357319
301.19020253158072364
301.21864028001436964
301.22998420191169089
301.22772138444958046
300.09712109783686174
300.17714447929068911
300.2181535260704095
300.2115767004139002
300.16250372231752408
300.09035615041182155
300.02104824630129087
299.97489200950155919
299.95879396466483513
299.96667898784653516
299.98491645648653048
299.99976909014685589
300.00309384517998978
299.99369083934647051
299.97637754954172351
299.95990530068979751
299.95380241143055855
299.9646815244498157
299.99384055586892828
300.03782849211216899
299.92197307121966787
300.03000151609035129
300.12705613210505362
300.1918300247008915
300.20879387359684642
300.17626966456543869
300.10924659585634799
300.0332978357142224
299.97234655972710016
299.93869968351702937
299.93137053388488766
299.94052906612404286
299.95467219243738555
299.96566793910153592
299.97011389945993187
299.96843224306917364
299.96350596816779444
299.95987671251032225
299.96224331148181363
299.97446077240647355
299.99899501675315605
300.03659923277643884
299.71448414137410055
299.77902251535692812
299.86759817731041267
299.97370693405918018
300.08060291656602203
300.16458696936950901
300.20434595716005788
300.19177426012061005
300.13702008255859255
300.06418709879045537
299.99889247361227262
299.95660254695815183
299.93925428754806717
299.93953766240531422
299.94841361426603044
299.95959517242619086
299.97052457080201293
299.98038118335267654
299.98846933773211276
299.99478341643862223
300.00069460141889977
300.00967528743024104
300.02661660193763282
300.05557276413600221
300.09825043086641472
300.15297704091454989
299.85757432984649995
299.91531419635492739
299.98339278038059774
300.06024026745751598
300.14168542148820507
300.21705844804080243
300.27034710125167294
300.28712164714244182
300.26400586929298697
300.212803883633228
300.15586278142052379
300.11429838972969719
300.09686728758418894
300.09823512577781912
300.10609531023220597
300.11158572705807046
300.11345954760128052
300.1168611989683086
300.12807521444784697
300.14967933170936476
300.18023922690451855
300.21630546727550382
300.25523305487615744
300.29636525707451256
300.33956163299501441
300.38398624300617712
300.42743682932780303
300.46737946406153696
300.34922762409377128
300.42152903117897722
300.47441961966461577
300.50196806730724575
300.51007870354982288
300.51130852399353444
300.51529226721004306
300.52255320614125367
300.52662626761252795
300.52166708337080081
300.50924171482205338
300.49749864868977056
300.49477452640792308
300.50190658091594287
300.51196232259957242
300.5173125354413628
300.51842062791212129
300.52442843205074041
300.54721524358188844
300.59336795150267108
300.65880930482779831
300.73088423931619673
300.795149649209975
300.84221954310100955
300.87076946056987481
300.88523836281331114
300.89188362764758722
300.89557721600442619
300.89958303268559803
300.90639969070343795
300.76064161458236867
300.79911051528034704
300.83631033390054199
300.86554094964435535
300.88553421999006332
300.90173794468904589
300.92243436628626796
300.95139848939749072
300.98277240702151403
301.00546854220459636
301.01149210298927983
301.00323737311146033
300.99150095437323671
300.987326850440013
300.99357430595455298
301.00303876973936212
301.00642544758852637
301.00229627803935273
300.99918867661415334
301.00895553757766265
301.03857976457157974
301.08495794154640635
301.13670757074277162
301.18158883563165773
301.21284182175332944
301.23063489467995169
301.23865962133896801
301.23967677312822389
301.23419875197146212
301.22302457618724247
301.21035517291579708
301.20412660077022338
301.00457014172457093
301.03980464599942479
301.07133609060059598
301.09143069258203695
301.09968721363543409
301.10364924400204245
301.11361126721504888
301.13426936087944341
301.15862706913600277
301.17290369943549422
301.1678112013938744
301.1456362493104848
301.12015495869411552
301.10577304015328082
301.10688952417973496
301.11538381182452895
301.11928947688841163
301.11443674569159157
301.10872314649668624
301.11485778836413374
301.14054702961652765
301.18291928734095109
301.22940571788888064
301.26648640782019584
301.28745679218388887
301.29392993990450123
301.29206329357413097
301.28663157499801173
301.2790200574171422
301.26981752608202214
301.26249882243530465
301.263983305000977
301.2809123712357291
300.00413956879731359
300.03042361333677945
300.08492063190038834
300.11947368363314581
300.11173298949114496
300.08187779971126474
300.80396541237308838
300.83639581696309051
300.8649461580387765
300.88121985913011258
300.88435690632246633
300.88177333140828296
300.88437847442213524
300.89750102781977148
300.91488287632637366
300.92273978589940953
300.91195394727844814
300.88504603875077237
300.85625779331525109
300.83964464105616798
300.83913725551934704
300.84548888830966007
300.84551199741065375
300.83472650366633161
300.82201258284538881
300.82178597331449055
300.8425188218118933
300.88149268831330119
300.92534689505481538
300.95965061323829559
300.97761225519894879
300.98113993376875897
300.97672582996318624
300.96883430171192231
300.95796369169084983
300.94400898963027657
300.93051066522787096
300.92529732032170386
300.93620075024347216
300.96393194825060391
300.00308682468812549
299.96795803491431798
299.99064225176863374
300.04129448869224461
300.067193136699359
300.04648932987532817
300.00150494982790406
300.24331649434697056
300.26882753604218124
300.29064674095803866
300.29969000452337013
300.29539496596021309
300.28521833378852079
300.28031028537475322
300.28618357366104874
300.29674642611155377
300.2977834400914503
300.2797468118570805
300.24545336623430103
300.20918985863329453
300.18540684246005412
300.17818855358063956
300.17809639266658905
300.17135429159111482
300.15334914329855565
300.13316428704587224
300.12601911115160647
300.14059905720353072
300.1739781735628867
300.2124044404962433
300.24082781958321675
300.25246223170591975
300.24952108242882787
300.23888885235010093
300.22511841097917795
300.20839346946974047
300.18831299706073423
300.16838459315408727
300.15684473423090139
300.16209094243424715
300.18508595189535981
300.21485061366831815
300.36906574670064174
300.36214410157555221
300.3525373551817097
300.34202213540874027
300.33169458122165452
300.3238443882958677
300.32000834120458421
300.32100267560326756
300.32811878854505494
300.34135531666635188
300.35838532613706775
300.94686316079645394
300.99173782832559709
301.02374388862574506
301.03737291661911968
301.03093531865494015
301.00638653613555107
300.96929868557214149
300.9290777979157383
300.89601705074625215
300.87952671289531281
300.88355947158123627
300.90556295519814967
300.93824759849320571
300.97368558238713376
301.0059919141208411
301.03214720179153119
301.05140534288591425
301.06345888861960702
301.06794968679633939
301.06619383146750124
301.0628331237746238
301.06358532094895963
301.07246095142602371
301.08910067476597305
301.10682667794719691
301.1160782329286576
301.10872218163700609
301.08229299295197734
301.04182086845497679
300.99899189223049234
300.96823851873472222
300.96288051891997384
300.99036852161884781
301.05010034779542138
301.13368262301514733
301.22675197006230974
300.34220105476339313
300.34571290757673978
300.3505055886545847
300.35647789444612954
300.36329201933949662
300.37053073527152947
300.37739656718156311
300.38309968219016355
300.38654668258948277
300.38700745009379034
300.3838653592791843
300.37734762562200785
300.36772117338898624
300.3568375498288674
300.34578804748207403
300.33732329351079215
300.33306535177837304
300.33431191023760221
300.34246625756389903
300.35730446104605562
300.37675838076683021
300.9068573060241647
300.9570861891641016
301.0010227100543716
301.02965766670405401
301.03725765957221938
301.02225130433606637
300.98865469241781057
300.94584004504997665
300.90725355349678694
300.8847221684322335
300.88382504887891855
300.90203827233187894
300.93098491337218547
300.96095656066324864
300.9852357966859131
301.00161256671452747
301.01107723550421724
301.01609923279949044
301.01861978090090588
301.0207133648763147
301.02566484570030525
301.03640879672673236
301.0542790949188543
301.07686776005795082
301.09713365035923971
301.1062556505531802
301.09721493500120459
301.0684484443686415
301.02526652799895146
300.97954468558396002
300.94608346159634493
300.93858669882354206
300.96502053118706499
301.02520275708531017
301.11029302241053074
301.20502212939658193
300.36509153447343579
300.36552237222292661
300.3670292773061874
300.36987865468370273
300.37407219929616531
300.37941651416628019
300.3852360229484475
300.39073662119784558
300.3946789249671383
300.39606822762493721
300.39398491909065569
300.38841554938534273
300.37955681417139431
300.36922424472714965
300.35857294168602039
300.35054018255789288
300.3467429850269923
300.34876019325326979
300.35806676652572378
300.37431348437780798
300.39560763588275449
300.92061637048254852
300.98030730958680579
301.02621606743656457
301.04760545411431849
301.03944426517796273
301.00475917249508484
300.9547517855723413
300.90588389443672668
300.87335390298267157
300.86510584504316057
300.87931146440121211
300.90667904014026135
300.93569195968643726
300.95785768255643688
300.9703066951690289
300.97443546594769259
300.97444323180667425
300.97520632935498952
300.9800903919659163
300.99108895241550954
301.00913248893800755
301.03313269821506992
301.05901797855324276
301.08048800541280343
301.09025654496423385
301.08264613163999002
301.05630825126860373
301.01528712728423898
300.96923539613561616
300.93201974958418532
300.9173931408732301
300.93516277603572462
300.98731814151551589
301.06675575965437019
300.38980191101245509
300.38982465886334694
300.39096829635684571
300.39351036490012348
300.39745799329972442
300.40226378440456756
300.40717349203379172
300.41098615726969001
300.41271343191596088
300.41141852168800597
300.40695363075923296
300.39945573752726204
300.3905014959373716
300.38118675199564223
300.37436791865809482
300.37150000632357205
300.37431484994664288
300.3840791477173866
300.40052393923480167
300.42171125219914529
300.91499280630705471
300.98570900386482663
301.04167506226104933
301.06936146620603267
301.06269806123623312
301.0255778815057397
300.96995958407688931
300.91318079059391266
300.8711754644448888
300.85294170987975804
300.85782370030483435
300.87731441522151954
300.89952670679286939
300.91522736751431921
300.92091840446994411
300.91883558701931634
300.91471688367573734
300.91539460103001602
300.9257503753221954
300.94686021767279271
300.97680101098637806
301.01080636485119157
301.04217676883723698
301.06450964929024394
301.07228790384004924
301.06232568785537751
301.03472371267508834
300.99365210767768986
300.94755212912701836
300.90899628011726463
300.89121362231912826
300.90444811050116414
300.9514018080886899
301.02580459573385951
300.41819164133880804
300.41590917603321031
300.41427605467009698
300.41382604497721331
300.41484424527862984
300.41707868231685552
300.4200365667872461
300.42275904023114208
300.42448050133953075
300.42438241290739143
300.42229159482155865
300.41818563267122499
300.41318457841470035
300.40795732351494962
300.40486023357425438
300.40485979022560059
300.40961790891651617
300.42010944212103141
300.4360646392906915
300.45593105290259928
300.99607049957046456
301.05336315196495889
301.07820574767191601
301.06622122529222452
301.0229283286480495
300.96223537796043956
300.90142718937590871
300.85647032934872414
300.83692140489779376
300.84253342610094251
300.86489507026476531
300.8910166521903875
300.90967705153684619
300.91532994136952084
300.90917622537187981
300.89801004107943072
300.89062087289397596
300.89458542345954584
300.91361534129902111
300.94550410614726843
300.98413607762523725
301.02066720855737003
301.04715170819196146
301.05763839154946027
301.04953849071659988
301.02304987733617736
300.98224170345685025
300.93528767593772955
300.89403138093791767
300.87180496683782849
300.87907773582776372
300.91964330956102458
300.44254434026612444
300.4371846298893729
300.43250779722228572
300.42915523149645196
300.42732804275863145
300.42706094544689677
300.42786353294775381
300.42932194695572434
300.43069665751869479
300.43175249154683115
300.43214791582659018
300.43244566158250564
300.43265936474398359
300.43452399547692266