/*--------------------------------*- C++ -*----------------------------------*\
  =========                 |
  \\      /  F ield         | OpenFOAM: The Open Source CFD Toolbox
   \\    /   O peration     | Website:  https://openfoam.org
    \\  /    A nd           | Version:  12
     \\/     M anipulation  |
\*---------------------------------------------------------------------------*/
FoamFile
{
    format      ascii;
    class       volScalarField;
    location    "0.0165";
    object      k_0;
}
// * * * * * * * * * * * * * * * * * * * * * * * * * * * * * * * * * * * * * //

dimensions      [0 2 -2 0 0 0 0];

internalField   nonuniform List<scalar> 
75962
(
3.1900638709215924473e-05
4.9484885125291172287e-05
6.0812814868305779792e-05
7.90459392475549214e-05
0.00012155313779325551792
0.00016095772040502080475
0.00017849207485754546684
0.00019295490391563649662
0.00022814376638823684958
0.00026924637805317194186
0.00029038013588373928677
0.00030473684625647879656
0.00033462755268218576316
0.00038781811127294084579
0.00043610162863378970806
0.00046329687418403085871
0.00048075824551018343875
0.00051474285478476044207
0.00058036774239275299402
0.00063918395599204516546
0.00067759058777747008338
0.00071449583773124244416
0.00077501272071339689321
0.00085812437447248918979
0.00093543726558034993
0.00098398966282680299343
0.0010131028793879555665
0.001053111647698863531
0.001124391579380028738
0.0012165124062997287758
0.0012980846413963740768
0.0013475129244489173017
0.0013738772573204582547
0.0014070080871537344897
0.0014828127769194736525
0.0016219975834800329749
0.0017562479757962973399
0.0018445240849918726443
0.0018864446564760808858
0.0019209762131230658736
0.0019931934490652314894
0.0021119000756622749448
0.0022349885479900563623
0.0023337586139809433569
0.0024006737542740614819
0.0024501678200528134721
0.0025032118166584522122
0.0025746281683290592711
0.0026714784515079813103
0.0027967318405906107896
0.0029468906136330737938
0.0031067870530724420175
0.0032523602327476784819
0.0033617814820582330587
0.0034284197641151793745
0.0034659095980867078539
0.0035040275086987908264
0.0035810837855195561813
0.0037356551246474144039
0.0039327458755565470466
0.0041279069980059424072
0.0042772265793511029738
0.004362016943185070654
0.0043959589258780532028
0.0044067907679976826493
0.0044162126558067154453
0.0044360868255414950823
0.0044897501504696348332
0.00463985091636926264
0.0048268913130701035161
0.0049725136534162659926
0.0050681166369833134319
0.0051377578934973106017
0.0052194431869861572862
0.0053485581558972948579
0.0055442394621412057973
0.0057976201412651157813
0.0060714825306211377479
0.0063134979318085985428
0.0064845367305910780326
0.0065769295841441224176
0.0066116961171847031531
0.0066194425444543137857
0.0066217894808945146345
0.0066284871156678387694
0.0066516475527049270799
0.0067312177750150827688
0.0068656916792500868874
0.0069837769705924090946
0.0070954071078207971851
0.0072208911363819561907
0.0073754702623931101338
0.0075653628035223926748
0.0077948517836322877422
0.0080690304944101738649
0.0083869484036723368492
0.0087299432217847819371
0.0090539300919522790884
0.0093084688242382526008
0.0094623515249183439563
0.0095219784057692016116
0.0095289160537844145443
0.0095146057535294582125
0.0094528351093161912255
0.0093969417464711910842
0.009377307989465585511
0.0093762998895075416739
0.0093909936567250964362
0.0094578619369089927948
0.0096195118824558001336
0.0098011260602405367998
0.0099954233780726702008
0.010205400504865845199
0.010430496000603821719
0.01066740922927046295
0.010908986185108011241
0.011141799499770935547
0.011344011007519350792
0.011494278286405210446
0.011581007583018767745
0.011614110584399081616
0.011616836575941109216
0.011606183416524194427
0.011570676706069633541
0.011552264839189536894
0.011551396078773383883
0.011567821967637049313
0.011648459616270121636
0.011812250504476064922
0.011970329789026385933
0.012143547635487812741
0.012348856290703463107
0.012589542877569751683
0.012851835272476765798
0.013117078573943364087
0.013368503264728069657
0.013595691991535381604
0.013795420744053021531
0.013963509074718568823
0.014090006525980396795
0.014168948702761689773
0.014201378206590781553
0.014203827637349111454
0.014198292064101572518
0.014192576880057820171
0.014198529432734833741
0.014248385992621624349
0.014416207920244637763
0.014596029203066112484
0.014721590735335949793
0.014799724281019076277
0.014839966815519488319
0.014860038998448777542
0.01487874410336757422
0.014915841522819902817
0.015002894988377642876
0.015238467677500181288
0.015597238617191939297
0.01595356244163227688
0.016277197919271547966
0.016545600877340152501
0.016746297749875755506
0.016876673423096764243
0.016945241035551571879
0.016971890982432194517
0.016978783668716884714
0.016985392017980705665
0.017003497750905600949
0.017061827302656741578
0.017148117042301909418
0.017216349327855994672
0.017259987854174985156
0.01728105347945899789
0.017287941263145843035
0.017289443448911132051
0.017292221827538915846
0.017302242992142620459
0.017339500572550712448
0.017465073277284633851
0.017815776730370554148
0.018242936179938749192
0.018641493355846985858
0.019009935471983225447
0.019346393872600082392
0.019646211043003833363
0.019903021419165979611
0.020108111633215734748
0.020257992361265061976
0.022151789710192975463
0.022475999780103096681
0.023030269871433105278
0.023537666527295515034
0.02397667842750097339
0.02434040617241615273
0.024631242066733536472
0.024849304614366293092
0.025002819809707910875
0.025098830012958563834
0.025147845214169201739
0.025165134890060163186
0.025166562307850134234
0.025159147715799228678
0.025119912627128808402
0.024976162987929474008
0.02472827122287073881
0.024520792369443801528
0.024368898566584685367
0.024273566004314045541
0.024226164581375105728
0.024214495009827950028
0.024218198508146850795
0.024251142530570122396
0.024388592372026621918
0.024821758685076245055
0.02539435840327236571
0.025904117961770639633
0.026339719949685522216
0.026692116805996039114
0.026959363870124191526
0.027147922169055083846
0.027269664109040404193
0.027339380171468148639
0.027372944770439534834
0.027385809399841865019
0.027388724291484443929
0.027388777756992159496
0.027388122865992292621
0.027385477644404552372
0.027374117354168333444
0.027336121592982938477
0.027214370046489896882
0.026882265225605980752
0.026511035878055519421
0.026211014577573781698
0.026001917302197516402
0.025882876508086679473
0.025835185097831406265
0.025826824578680004918
0.025834556109955532366
0.025883477866078072327
0.026070937263373183262
0.026501702264318697383
0.026921086345267294243
0.027290624757510362902
0.027606906728495708703
0.027867644816858095497
0.028073379494498860998
0.028224082829840214937
0.028327008505603230165
0.028389027410701456189
0.028419980704302467978
0.0284324931187693343
0.028434408574829886374
0.028432968288984075689
0.02842433976622173869
0.028392470271576191604
0.028286444950878810584
0.02800357803210146504
0.027693759720689187231
0.027438569435335256885
0.027247147598002507962
0.02712176215631861495
0.027052261881533406357
0.027022692024068904054
0.027015256239425237961
0.027016399423785576045
0.027030410228499616304
0.027088829232590271728
0.027270907171982525924
0.027537564460979557096
0.027811234131532688169
0.028091357916694193603
0.028374211591079320782
0.028645383245426411789
0.028891711228589085636
0.029100438539803943905
0.029262178530478157729
0.02937598302079695578
0.029445352626799484869
0.029480225183391009502
0.029492021122098775743
0.029492957689841333563
0.029488703585469022012
0.029469413842884390614
0.029404122127324475167
0.029207381442210411659
0.028951434145980888685
0.028733975047585343793
0.028562439329146371847
0.028439234323328892173
0.028358868305401015858
0.028313019358647686236
0.028290741464387460236
0.028282835383850006561
0.028281987002340289172
0.028283680922167032251
0.028292479684923616673
0.028325159555183693216
0.02842406897598168114
0.028583633542279728718
0.028768054629617883372
0.028981461830275709324
0.029219042852827410012
0.029470134154134068616
0.029720746899237961147
0.029954161671482876228
0.030157566537875317436
0.03032074857617220176
0.030442102623570624353
0.030522395371558243282
0.030568358138926058493
0.030588506204237791292
0.03059409732795321038
0.030593407108900891322
0.030588494011206762008
0.030569716766443322253
0.030507178879294369334
0.030322757773637840084
0.030079646362609940152
0.02986216407807778736
0.029676709662074945983
0.029527215110322697911
0.029412501281986462576
0.029330607735574089345
0.029275751951581115151
0.029243779747483680115
0.029228532871885447297
0.029224173986551211374
0.029225010795461737328
0.029235612820681378121
0.029276238914202258601
0.029409950858226573817
0.029768047126385029783
0.030175869928343059673
0.030545120049296502901
0.030861777805665735475
0.031115933502489357548
0.031305237683396658355
0.031433756546582362901
0.031511361724505256021
0.031552273244482856307
0.031569464603656310908
0.031574747501331559829
0.03157531386200710527
0.031572992896821201747
0.031560701556056974804
0.031518659786125599598
0.031385918868795360803
0.031103480351738332227
0.030819856167503045796
0.030558401439582560249
0.030332279822320284968
0.030147633659856870603
0.030004448465027089288
0.029902463603740613712
0.029835649449535862204
0.029799339235104648632
0.029782914130052733082
0.029779357383236150503
0.029780909892131949418
0.029793397095066752323
0.029841423839467490914
0.030000795204118954618
0.030292820463009514226
0.03057423861713802829
0.030830897153367196883
0.031057182242602291572
0.031247713347565701791
0.031402183879510277287
0.031521057334133253947
0.031607537385473255531
0.031666697470246453483
0.031703190092933292155
0.031724810052295972229
0.031735111124949963446
0.031740028793639726845
0.031741778021382234531
0.031740246669889816966
0.031730628613935163429
0.031699710897253541297
0.031623137981250493134
0.031530358614071149481
0.031431875605017575714
0.03132516858778270491
0.031204044779877405935
0.031066008669526332803
0.030910269417526687469
0.030739577363454916037
0.030558205119039852371
0.030377447989164099718
0.030209383820169449092
0.030069195530429762564
0.029966434468696477589
0.029904704898918738759
0.029881968439931426429
0.029880939590268402323
0.029894692739677573151
0.029959827362718977756
0.030191838931272120539
0.030819807445731220441
0.031505494431382584375
0.032091684350615053145
0.032572305310044041837
0.032948342307888470182
0.033230346803398140565
0.033434455775079474638
0.033575920307731745018
0.033671260554773603524
0.033730007509053465398
0.033760706753540967173
0.033773100647546946962
0.033774929538370308812
0.033771341721557192328
0.033754616805556025838
0.033701213890626253999
0.033535366619665378518
0.03307144190885755175
0.032492607350948964073
0.031955798432011732479
0.031476349204866062303
0.031068089486831283741
0.030739912555378095388
0.030495480463821715567
0.03033028880703452293
0.030237202068166345315
0.030198448391818795422
0.03019108080214399914
0.030195459119708650125
0.030222465571497263148
0.030327304058780153728
0.030678258570583726017
0.031251861027049854247
0.031770655779116252493
0.032213196947317217222
0.032570789601908352318
0.032844306869203525323
0.033040706203492135884
0.033172364840591071766
0.033252892354968241473
0.033296872185485923423
0.033317700900497293492
0.033325572522223206873
3.6223254711270699705e-05
5.5941181183183824642e-05
7.0613150049254810045e-05
8.0929297474883048224e-05
0.00010154206556851727474
0.00014433970949113069672
0.00017940552801115435184
0.00019664174014872605727
0.00021378021381941909613
0.00025267793952661555743
0.0003010167727176013097
0.000331732036207511708
0.00034939919761554552981
0.00038033857916754831461
0.0004469747434537121606
0.00050188401529780877694
0.00052885715188574257146
0.00056055128142722685305
0.00062155630573752296882
0.0006911350232736020692
0.00073905875025877872542
0.00076558168475405682929
0.0007999824882502317748
0.00087411198999544099247
0.00097814004528052386073
0.0010646657440002958456
0.0011078755750781631769
0.0011354506418736010163
0.0011941629665082355554
0.0012793252937604011974
0.0013386462640663356147
0.0013763972159749110393
0.0014286357008605557201
0.0015144807754221224685
0.0016169575154174359744
0.0017078624422994781711
0.0017839072953034916698
0.0018624428800825269976
0.0019550815904546478552
0.0020539009704864008739
0.002144046312860558353
0.0022209250775941449807
0.0022951123425343110049
0.0023797805060242114249
0.0024809584197967851291
0.0025941301244868436235
0.0027068119014080523066
0.0028015456060404052632
0.002867935919609597515
0.0029169539626295671111
0.0029818450547375841518
0.0030941682196448045197
0.0032568487517324780367
0.0034408303246386555581
0.0036025809462764831446
0.0037104028350739117273
0.0037650200425231195728
0.0037979033574460428595
0.0038520742640009309615
0.0039599882791402215773
0.0041167031137195973095
0.0042924816842737321954
0.0044502723598719784795
0.0045648954699465576004
0.004631278991065759798
0.0046622530104020861938
0.004681619640118703414
0.0047158273918662934471
0.0048005311526117091028
0.004985741953997991846
0.005174273868420484028
0.0053331747422001897496
0.0054605090338136902384
0.0055742254927119610011
0.0057014577436948809044
0.0058654703351019351482
0.0060718992080476558854
0.0063055006121318047871
0.0065321910266273770784
0.0067138276221236272562
0.0068316894257749111521
0.0068908593517347203894
0.006912166566155916389
0.0069185844144524690641
0.0069246122267510416826
0.0069392713258718810229
0.0069806353763797899734
0.0070884207498891991378
0.0072268241737067865499
0.0073811521449687316626
0.0075592190288210278637
0.007762910776628690647
0.0079889697030311648124
0.0082380201006900886235
0.0085159188611832904031
0.0088237294603607189375
0.0091491380922327190939
0.0094588119398245698588
0.0097082992454313038477
0.0098654556660603912738
0.0099312777713481906888
0.0099411373653456626409
0.0099299259489627703795
0.0098721543996191755965
0.0098030594572617989896
0.009774816970764078905
0.009771718298448894488
0.0097838310111029603428
0.0098505214882364626472
0.010059618676592253783
0.010315947612798036931
0.010552358729540389434
0.010781822937905739118
0.011013813316555726846
0.011251408556828313562
0.01149011651746788959
0.011716604015449562023
0.011911024017734387834
0.012055433817980812372
0.012139967833996789803
0.012174066522830569517
0.012177984451048094044
0.0121693174679548613
0.012129632775119601751
0.012091945990180642118
0.012081275903855760029
0.012083817131800528993
0.012113505001898198718
0.012237554244112556004
0.012516648388152154525
0.012803927857616286684
0.013088523380135566598
0.013369070786273119789
0.013637917122344049223
0.013887796873147974924
0.014114462431855826635
0.014318480492632556025
0.014499558377375300344
0.014655452920704864148
0.014772856043464805548
0.014844983628279150023
0.014871884212596888156
0.014872270731809203448
0.014863516678440342328
0.014852745629626004642
0.014854588971697942762
0.014890414411397085923
0.015050600570214792834
0.015319531896045152086
0.015529953646754733956
0.015676718633978056761
0.015766988554393068789
0.015813946044724074003
0.015842157799980386562
0.015881640655093856584
0.01596646683177108117
0.016172834576108154753
0.01647066561930990089
0.016789474987477678164
0.017103319344930041634
0.017387844226485683896
0.017626456916978724271
0.017807835267164503351
0.017928027808734779691
0.017991760598798995502
0.018015090935891254348
0.018016421534559731027
0.018012696197744742371
0.017999558132343274064
0.017981321926321049143
0.017969226533253404576
0.017964368185138981926
0.017964167790045226791
0.017967523291141439951
0.017983781220966468112
0.01804497023570870648
0.018246374909991876223
0.018627901310886881003
0.019022400582793464602
0.019411819013398945444
0.019774794863923073757
0.020102346597384770227
0.020390423441155321876
0.020641588527139365788
0.020856405557892226943
0.021031801344967303996
0.021165841599134281592
0.02125598548426564649
0.021307366332081169313
0.02323749352757720904
0.023444716006337205927
0.024014013160960512999
0.024615625708482483103
0.025114098970984936182
0.025509614805793719844
0.025813404766580817784
0.026039684632445839196
0.02620097532604684365
0.026309101490925780598
0.026374300510498903394
0.026405301185775133938
0.02641458289123359629
0.026414560418023536048
0.026407240424350757885
0.026372221850235782331
0.026248206488480304438
0.026027264409475048962
0.02583230173238628205
0.025681917428735635822
0.025581738834089200185
0.025526555936764970534
0.025510152701461501212
0.025511270538819425663
0.025532901264588715728
0.025630926751003587499
0.025962561661384143952
0.026451092149910430257
0.026888393308541525678
0.027270710177800149693
0.027598581842177328377
0.02787302032851680933
0.02809798238631484868
0.028279949930252255841
0.028421930799649795796
0.028529123860034952959
0.028603257322524999751
0.028649268702977532391
0.028672867704611023493
0.028680191681245165158
0.028680437076174673805
0.028670926620843063815
0.028625778560390988114
0.028466968305051260774
0.028081814971872363917
0.027706139893471121161
0.027408450935572689633
0.027205156193510642709
0.02709116463927739582
0.027047053025541490517
0.027039412883213216621
0.0270474166918632207
0.027098255062664205334
0.027294650298588137016
0.02774516169869590404
0.028184799788805316167
0.028572955173304746129
0.02891017407594786981
0.029193290128694190932
0.029425209775024982473
0.029604355335308432662
0.029735537633208200536
0.029823251295029530594
0.029874905955636760907
0.029898766299981234529
0.029907308779067592192
0.029907001335723347457
0.029901175439166073622
0.029876565415940789516
0.029790241555441937527
0.02953097531732521569
0.029201123224824040298
0.028925242447228497605
0.028714133269768200157
0.028573625493926325253
0.028494272870328993946
0.028460672585065637658
0.028452070917067095318
0.028453663303294334658
0.028472425901363299094
0.028552323933213871743
0.028794016490556784832
0.029112173195037123474
0.029425111560257347781
0.0297340819151799933
0.030033710260869522085
0.030312532139301795464
0.030559392063286599378
0.030766506178123490672
0.030927062352210418772
0.031041822362017891523
0.03111599524384027135
0.03115536273402599865
0.031171544825093849829
0.031173295175616132918
0.031170214161228511351
0.031157495409525816366
0.031117832396596364908
0.030991304188911581591
0.030696559097165846547
0.030406493150946199699
0.030163192845086776728
0.029974879374887374028
0.02984062438661294614
0.029753922465432163652
0.029706022265916235542
0.029684254882369264655
0.029677962839347451357
0.029678219124574106713
0.029682473461220812427
0.029701983715935121461
0.029769382195875430941
0.029929899526888167904
0.030115558774703187622
0.030318576007238799697
0.030540810170992641753
0.03077746592325717942
0.031021523339824785132
0.031262259477411145914
0.031490322054702389598
0.031694116808398106744
0.031867192034214189555
0.032004206758437077351
0.03210486265740176981
0.032169877387589619622
0.032204198829551909655
0.032217714945382093517
0.032219882306294966856
0.032216543006309460162
0.032195991787077646307
0.032117222641134417216
0.031891416333790542637
0.031628628896471153165
0.031403646649429572957
0.031219703520017585974
0.031081264007153545925
0.030983414818927516865
0.030922771859519686266
0.030890100747850188223
0.030878944580441589074
0.030877046422434453743
0.030884436627169727096
0.030922821682123225601
0.031057822750086758884
0.03141848514353303562
0.031823341590619343144
0.032187961832584821575
0.032503572726562048045
0.032760488927961663175
0.032957198295314592273
0.033095058355002593409
0.033183132087276745459
0.033233425608320911471
0.033257130401867417147
0.03326602175009736595
0.033268183823943094091
0.033267857822141928825
0.033264762345681861411
0.033252076396519274215
0.033211494588194778732
0.03308632511883864008
0.032813058631522167008
0.03253072355042248287
0.032264371990954048008
0.03202864258298983996
0.031831706200200753087
0.03167673664740808942
0.031564697681685377484
0.031491949679736612466
0.031452593888518613763
0.031435765061908135798
0.031432646666791151657
0.031435732141929101369
0.031456072751195669757
0.031533583415110533199
0.031770282436832823769
0.03208529381649226353
0.032372517234281701637
0.032628119892720020001
0.032847195797227390912
0.033027677617057348003
0.033170166977784611151
0.033276736426680844638
0.033351868461449087067
0.033399852895802835395
0.033428701844224840978
0.033443392958899170742
0.033450444345935539947
0.033453685719819339917
0.033453848205242761593
0.033449353301288918539
0.033430395844736553179
0.033370246184671659151
0.033263926365501954308
0.033150858255477345937
0.033034284712856520905
0.032911590336353907515
0.032777784660445501153
0.032630256551573200152
0.032467568186280007514
0.032291287537612012315
0.032105313499244531039
0.031917430126817490643
0.031741477953291484526
0.031590842440851786554
0.031478857575095255117
0.031408726766097162797
0.031379943795543964458
0.031377144501966498791
0.031387241549755452719
0.031438047052174525331
0.031621008786774776333
0.03218601756259818758
0.032934421619880298315
0.03358071408833247784
0.03411503579344726117
0.034535913211467837713
0.034855169158844630239
0.035089681756710386362
0.035256322031956173479
0.035371034882332022531
0.035445158196799643469
0.035485447653552194824
0.035503499096699413229
0.035506596401428870691
0.035503668300640230104
0.035488034931790514437
0.035435794046463055251
0.035269892231406280159
0.03478598304964464899
0.034150509900625243553
0.033567713133743973253
0.033053908664890233049
0.032625677443818369705
0.032289077077182724851
0.032047018680756794717
0.031890947164966564065
0.03181028888272881272
0.031781123583044953995
0.03177919430286513941
0.031787668083061562663
0.03183028430617539789
0.031986265454122843332
0.032451420707741020222
0.033031936196588028432
0.033539838336450591982
0.033964962402765440375
0.034301703468306944667
0.034553353104337922175
0.034729612865327823268
0.034844575215840396798
0.034912880743408855611
0.034948955605112498601
0.034965102460152365504
0.034971389567211401406
3.8738720892713010915e-05
5.0332179170807610626e-05
6.2935556101429844696e-05
9.2998392587710637788e-05
0.00012111920251860520156
0.00013577603833624113253
0.00015338909018023933872
0.00019728241647267439392
0.00024923468737242176433
0.00027715596484069313825
0.00029430131634697385794
0.00032673374642184024744
0.00038188603631924937509
0.00043791963681197239614
0.00047538202338085459473
0.00049535629836496301772
0.00051765346668560799012
0.00056845227724071985438
0.00066533514517260849801
0.00075125181685506382204
0.00080066675164495884707
0.00082295257596895889183
0.00084935629812679452281
0.00091311708791592537289
0.00099893818723425543971
0.0010624841538722843131
0.0011099389327864491936
0.0011682042633959352149
0.0012531018465410321064
0.0013527788303081952556
0.0014390647143295992594
0.0014928090690569297688
0.0015194480134670610826
0.0015459059171598241948
0.0016029624913056162924
0.0017475773709538528627
0.0018996207830721276253
0.002006531815915403149
0.0020934222006029146526
0.0021880991109651270511
0.0022838098062581049102
0.0023556842372796571103
0.0024020424282947196344
0.0024516207398546968795
0.0025348278376730111645
0.0026540133712804015939
0.0027819962732981728427
0.0028879367142222705372
0.0029669469904667305875
0.0030402747622807345558
0.0031350105121559081016
0.0032601083733752615409
0.0033979231034030146254
0.0035209318235601186863
0.0036141144931599302956
0.0036877990074875889592
0.0037713147874259894329
0.0038925130407360640505
0.0040600329676264033593
0.004253013549037229675
0.0044314128889261930958
0.0045601695997572596827
0.0046312501603940191969
0.0046651626400137629486
0.0046978562780151441464
0.0047629914695428172272
0.0048785022177762621398
0.0050412325101015752205
0.0052299577567589241103
0.0054100146949867438176
0.0055474008317680035055
0.0056298896955305158946
0.005681204200145896846
0.0057574068935691610077
0.0059113727452002875692
0.0061441599499828421227
0.0064269294030408451179
0.0067042682345586773751
0.006925595784429444679
0.0070651504813372140862
0.0071295546781248997359
0.007149124866217755267
0.0071529782772167234753
0.0071593709033827938881
0.0071799693409042089631
0.0072514239701888362835
0.0074531115587463383707
0.0076747095959817310251
0.0078469610838694560384
0.0079730210765133670975
0.0080731551444320134858
0.008175516434075123795
0.0083133173778827465505
0.0085213600542588668896
0.0088226915220170881032
0.0092099341901509552272
0.0096346942285277497459
0.010019733962290860996
0.010298888647342678559
0.010445163979619928943
0.010487479130049055798
0.01048482530733536866
0.010444812627910611894
0.010360575454261788247
0.010324370852401530685
0.010323627988465823233
0.01035621960599778478
0.01051429606210814785
0.010763151622740772459
0.0109351187082132352
0.011059328383766520512
0.011181858146880571322
0.011341330675945632961
0.011559978014281449554
0.01183716204292133839
0.012145485198234173135
0.012440458949795264731
0.012678082127564667403
0.012828463627457768054
0.012895396719746491515
0.012908350461512568472
0.012901757496142330153
0.012861849352391121343
0.012804241054853717982
0.012781836386070130271
0.012781235111132013479
0.012804964114026267871
0.012924827100406143313
0.013182567449439974022
0.013400921860513269682
0.013579322208980202508
0.013740334648934780792
0.013907010011546266579
0.014103879585632219523
0.014344941119154410239
0.014630289551433719314
0.014946392052558732724
0.015261877031107080535
0.015541786656372192851
0.015751169696523945052
0.015875892831233851671
0.015921788402872075197
0.015924085422752774777
0.0159080590912490695
0.015850094853155249908
0.015809585916716974163
0.015804439966894782976
0.015822291184505014178
0.015924666703057189371
0.016215141714088616987
0.016464814882342370533
0.016614752363024228726
0.016700431982447996176
0.016767010056145652958
0.01685682967623499881
0.01699486653302124603
0.017183718782723025886
0.017412055410513563314
0.017659891061170208265
0.017909160855715297589
0.018146765660694119671
0.018364924282726100696
0.018563863840989205251
0.018743174896375579264
0.018903192174996825276
0.019034965246632978841
0.019129900319242460621
0.01918338729964541578
0.019203449960739273766
0.019206290917563862558
0.019203122274395335867
0.019191518017832698284
0.019171659389071171731
0.019163168053612282538
0.019163919632677030302
0.019171216084501452315
0.019205809007155932866
0.019333332583913412361
0.019671403282092051606
0.020059543583668213579
0.020440396198976876208
0.020813358793854465356
0.02117173740009536953
0.021504019718850814896
0.021794755791149852953
0.022032102212238766081
0.0222044317780213038
0.022311541524466817904
0.02236295884856519256
0.0250521806942389548
0.025576765079914489526
0.026026515637152702193
0.026404713984342517014
0.026721890124655013621
0.026988310052414966195
0.027215430177895828801
0.027412590032777833099
0.027577750691030515628
0.027708056452784932816
0.027798146979892988939
0.027847854992405413066
0.027865967293395094845
0.027867508626132922456
0.027858593127039772003
0.027809704848871640709
0.027631659697945339799
0.027344711899912492459
0.027100516245977378932
0.026907223337287348303
0.026767694758859796045
0.026677767886799562402
0.026629556136641859693
0.026616297235433600266
0.026618257294790278328
0.026643172050745927981
0.02675103713609906439
0.027108442194683956411
0.027639869670074829894
0.02812469944687953291
0.028558562723539404615
0.028937084137867163935
0.029261020818033365437
0.02952982921859427165
0.029747596264262744781
0.029917119968736544805
0.030040985561934876319
0.030121090052388384967
0.030164217982757556002
0.030178728527564646633
0.030179552497127538901
0.030166285219487973951
0.030100595151113827136
0.029862685110526428212
0.029435018883886887586
0.029076498187815651153
0.028819653224149286569
0.028665467030383532526
0.028596329709818752579
0.028579174308856418463
0.028583432264490234165
0.02862159293346748859
0.02878045722092430897
0.029179897987088289357
0.029582686503905646774
0.0299418938939094402
0.030260392379941079138
0.030547647717965826369
0.030803610686185787376
0.031030065212582846196
0.031223558900886506234
0.031381374096407413377
0.031501556263719920903
0.031583024045415547532
0.031627154885831385012
0.031646022910010139506
0.031646844802824460052
0.031640109064594988675
0.031606101643799809631
0.031478088055068506601
0.031127415008347345676
0.030761043899506651522
0.030473933227470512836
0.030276006966718567448
0.030159887852447140461
0.030108582519783776837
0.03009558254405991784
0.03009865198995651317
0.030126784037057721677
0.030247279361150077037
0.030559564048250695972
0.030892270556501302825
0.031205904863514027231
0.031506524534171659324
0.031791521671392160286
0.032055440715231635351
0.032289102486442101958
0.032483355976823849454
0.032634920434175575255
0.032742642405148542073
0.032812764944734729156
0.032853146467446546486
0.032871502907371494273
0.032876402402551893611
0.032875965550685094796
0.032871623614910965017
0.032862670938193977443
0.032843638005777782418
0.032792701360604165073
0.032636956292810430369
0.032376643222586487525
0.032139814246450924828
0.031941632135077641097
0.031788729842604460107
0.031679480353083072641
0.031610056215617382547
0.03157289775591767822
0.031556921444068651572
0.031553129492517845156
0.031553983708084640258
0.031561467174705565286
0.031593568933342877636
0.031703925369229432607
0.031944245909540369688
0.0322001574893318529
0.03245697543634731147
0.032708329634296332
0.032947257008503358366
0.033165683559563355343
0.033361057464489550506
0.033530187731522130556
0.033673154870219469681
0.033789695628636734481
0.033882495872558537897
0.033949012064027325741
0.033991597659063656212
0.034012212147475379131
0.034019537909066102643
0.034019986256177976724
0.034012739389029565673
0.033975932175936876534
0.033844258240177012287
0.033596666361867782991
0.033369528432865724898
0.033177090469872431988
0.033027852139244300023