/*--------------------------------*- C++ -*----------------------------------*\
  =========                 |
  \\      /  F ield         | OpenFOAM: The Open Source CFD Toolbox
   \\    /   O peration     | Website:  https://openfoam.org
    \\  /    A nd           | Version:  12
     \\/     M anipulation  |
\*---------------------------------------------------------------------------*/
FoamFile
{
    format      ascii;
    class       volScalarField;
    location    "0.0165";
    object      nut;
}
// * * * * * * * * * * * * * * * * * * * * * * * * * * * * * * * * * * * * * //

dimensions      [0 2 -1 0 0 0 0];

internalField   nonuniform List<scalar> 
75962
(
4.6764506359597044267e-07
5.8227706431080978056e-07
6.450465608652672217e-07
7.3473550061967030719e-07
9.1040363263704007849e-07
1.0472025149388370458e-06
1.1021576048273294335e-06
1.1450506522923726742e-06
1.2440428774757534936e-06
1.3506736222080315767e-06
1.4018337807816284518e-06
1.4350392384207431351e-06
1.5025591366118762907e-06
1.6164072151593655585e-06
1.7129948725827893524e-06
1.7644718610325608972e-06
1.7961531369952504718e-06
1.8571333389057539225e-06
1.9705402884993441874e-06
2.0666319479470872244e-06
2.1264060929025294397e-06
2.1819875115910135761e-06
2.2708403484172621569e-06
2.3878191237786530876e-06
2.4914225330609667661e-06
2.5535950948224090517e-06
2.5893131746953548259e-06
2.6380225086950336252e-06
2.7238451218013767715e-06
2.8312591462744477091e-06
2.9227087737344914316e-06
2.9758750138317953057e-06
3.0027934755086428776e-06
3.0366050918226110931e-06
3.1149497991059087007e-06
3.2555400371896424935e-06
3.3853448222054886842e-06
3.4671289117306224216e-06
3.5039538211280594403e-06
3.5333804557605575091e-06
3.5965481010406674232e-06
3.6994628042292131191e-06
3.8031426287077173135e-06
3.8836596929360583109e-06
3.9362854382393823303e-06
3.9739132791158764067e-06
4.013873558768877877e-06
4.067841362836334232e-06
4.1407038409207819554e-06
4.2336584177091148557e-06
4.3427703436705915863e-06
4.455945226986005141e-06
4.5560473855121622045e-06
4.6289420371528121296e-06
4.6714449587308866238e-06
4.6937017709828274866e-06
4.7161245534974828442e-06
4.7642476515005035209e-06
4.8624648195102145278e-06
4.9855855933202300226e-06
5.1043094526333455615e-06
5.1923306019707486447e-06
5.2400309800071675459e-06
5.2568059345792400277e-06
5.2596555984508441806e-06
5.261619120980789249e-06
5.2697522118097672055e-06
5.297718959475121072e-06
5.3815815022958358793e-06
5.4852199948966630594e-06
5.5635868409181067309e-06
5.6130088693524175539e-06
5.6475425011854803552e-06
5.6882512177701915923e-06
5.7540672934998776994e-06
5.8541954857402172532e-06
5.982248801806424045e-06
6.1176753447563769401e-06
6.234178435683465992e-06
6.3138120657392069718e-06
6.3543458819522456363e-06
6.3667765903283148052e-06
6.3661117978945924056e-06
6.3628138372267037027e-06
6.3615874150591601529e-06
6.3682094896571869022e-06
6.40158636899190643e-06
6.4607217838980096809e-06
6.5115467410126337888e-06
6.5588251825906867582e-06
6.6119386148025212141e-06
6.6776415711793731491e-06
6.7583129081829641715e-06
6.855244538483915446e-06
6.9698752058219426832e-06
7.1008767940366565737e-06
7.2395895061970486086e-06
7.3676550127864062038e-06
7.4654479196088722681e-06
7.5218263691045077386e-06
7.54036237285302669e-06
7.5379181114824678686e-06
7.5270716625030497062e-06
7.4974550527566323046e-06
7.4700055152661363179e-06
7.4569704242549545865e-06
7.4513731319472746123e-06
7.4519813791892808164e-06
7.4731329789684564497e-06
7.5313941493864412714e-06
7.5968845083920705645e-06
7.6664811026875252591e-06
7.7411992088994416083e-06
7.8206588635274837298e-06
7.9034789552799882326e-06
7.986928858216289014e-06
8.0661332910413719539e-06
8.1334085387005701251e-06
8.1814937857024665983e-06
8.2066768193326878657e-06
8.2127450597645491182e-06
8.2080247735777730225e-06
8.1985897938196215638e-06
8.1803684524367598053e-06
8.1681457257113564201e-06
8.162153057566936767e-06
8.1622350792672476304e-06
8.1847888740130629977e-06
8.2363788539881832389e-06
8.2855409362855881336e-06
8.3394498627205658161e-06
8.4037788371258065264e-06
8.479371726510373568e-06
8.5613033214728681753e-06
8.6432131980404461568e-06
8.719620389177342942e-06
8.787316863303752364e-06
8.8455083302763713835e-06
8.8931010662311975182e-06
8.9271578504682678085e-06
8.945991699151312318e-06
8.9500633351349193864e-06
8.944637390692414055e-06
8.9366843824366681587e-06
8.9286589182554803901e-06
8.9242976736327892738e-06
8.9336322068885507371e-06
8.9797012366250175751e-06
9.0293255883171996093e-06
9.0618507361026481384e-06
9.0796185676392459984e-06
9.0856850892269884294e-06
9.0855316857445649758e-06
9.0849245227587575597e-06
9.0898905818976080397e-06
9.1099458455733354069e-06
9.1745809916001266318e-06
9.275480253918232641e-06
9.3743471823126741906e-06
9.4624373431278162826e-06
9.5335867777627060265e-06
9.5846596886249885459e-06
9.6152995065226445095e-06
9.6281887530046372488e-06
9.6291058370960507331e-06
9.624385278407547237e-06
9.6195667581568011415e-06
9.6179820965950909661e-06
9.6277073964936765244e-06
9.6453234221318375543e-06
9.6578042717227147938e-06
9.6633460947652366724e-06
9.6625460414813161642e-06
9.657769643465901352e-06
9.6514820190592354914e-06
9.6455482773898976499e-06
9.6416233581312312038e-06
9.6452410109121468053e-06
9.6732150267215942117e-06
9.762823489327076602e-06
9.8723605634634988687e-06
9.9727411168176890809e-06
1.0063866638099211917e-05
1.0145531639468991761e-05
1.021679014810342569e-05
1.027625778961933552e-05
1.0321948281461718007e-05
1.0353205431424622002e-05
1.053691942707983892e-05
1.060601950549406214e-05
1.0728527551352262746e-05
1.0838607467989971409e-05
1.093170851761948026e-05
1.1006754080164458739e-05
1.1064714723122890359e-05
1.1105946541526041338e-05
1.1132528920189370747e-05
1.1146188882826561233e-05
1.1149354805433005561e-05
1.1145461882182963203e-05
1.1138045214317388146e-05
1.112868824250389416e-05
1.1112344701736846399e-05
1.107297128401744986e-05
1.1010233472634049404e-05
1.0956280921060603686e-05
1.0914647152810502551e-05
1.0885654784347241269e-05
1.0867424100549850685e-05
1.0857237304795017293e-05
1.0850514959439798429e-05
1.085029702813173472e-05
1.087326045358834416e-05
1.0961429819332307598e-05
1.1079495043702786082e-05
1.1182458596992611046e-05
1.1268352133633514024e-05
1.1335702857063448102e-05
1.1384495179432170181e-05
1.1416392745582529884e-05
1.1434088446616315728e-05
1.1440795618163703299e-05
1.1439893900072694744e-05
1.1434641918720351951e-05
1.1427302736450297563e-05
1.1419367923884057701e-05
1.1411295878574450113e-05
1.1402823358996764378e-05
1.1392559375641461125e-05
1.1376792792218108624e-05
1.1343689870753618143e-05
1.1266627639381627984e-05
1.1180737545986159468e-05
1.1109491616716822993e-05
1.1057316559551444313e-05
1.1024237852345473326e-05
1.1006377987114429986e-05
1.0996937029939542576e-05
1.0990929593002634454e-05
1.0993616344780413882e-05
1.1025449026133207894e-05
1.1108312042884345883e-05
1.1188146339840517716e-05
1.1256905196778551562e-05
1.1314145968788985469e-05
1.1359619959083704354e-05
1.1393621623897183905e-05
1.1416288100543840785e-05
1.1429190822713079494e-05
1.1433784914978420278e-05
1.1432092776689950942e-05
1.1426678925817628096e-05
1.1419132728257436814e-05
1.1410918160624542066e-05
1.1401278029383503729e-05
1.138701088370555068e-05
1.1357959220237236371e-05
1.1293327727957768356e-05
1.1222833142946893564e-05
1.1163188766965164632e-05
1.1116393719118082079e-05
1.1083029967251401484e-05
1.1061095430906891504e-05
1.1047351010796090109e-05
1.1038154242025610327e-05
1.1030721050011256249e-05
1.1025893845200652132e-05
1.1030056349831497955e-05
1.1059216010597738638e-05
1.1105419743802059468e-05
1.1152710099152919374e-05
1.1200952347514475985e-05
1.1249397572156928426e-05
1.1295203323275946564e-05
1.1335827027919491379e-05
1.1368849042139102419e-05
1.1392532718010480418e-05
1.1406784091774417437e-05
1.1412351345047992249e-05
1.1411204787088726498e-05
1.1405578887123925871e-05
1.1397847395450189155e-05
1.1389122746432932165e-05
1.1377519345568884367e-05
1.1357094908029521452e-05
1.1311325305976006647e-05
1.1253812942497233199e-05
1.1203638934269983035e-05
1.1162339522280462616e-05
1.1130454562513792944e-05
1.1106956483404588178e-05
1.109023712181743805e-05
1.1078156450207831681e-05
1.1068908561979135411e-05
1.1061055978030968417e-05
1.1053706313398106405e-05
1.1047739066784322183e-05
1.1046402015512053467e-05
1.1057896118271827419e-05
1.1081162143195650519e-05
1.1109103729404080823e-05
1.1142461403844896206e-05
1.1180251637118583902e-05
1.1220385923292777828e-05
1.126018287803010962e-05
1.1296493524983983756e-05
1.132695478682142484e-05
1.1349718993902815694e-05
1.1364558200789778169e-05
1.1371673679361243275e-05
1.1372359901292570974e-05
1.1368225770360465825e-05
1.1361377487550837747e-05
1.1353362077389954465e-05
1.1344573331404870432e-05
1.1333237634673050802e-05
1.1313850101080846273e-05
1.1271906641502885447e-05
1.1218822844740335934e-05
1.1170403321066255234e-05
1.1127900257938624511e-05
1.1092099165532842491e-05
1.1062817619378043351e-05
1.1039712107693254461e-05
1.1021705950933750968e-05
1.1008019262305755273e-05
1.0997491453933792383e-05
1.0989022012447607747e-05
1.098153728924979581e-05
1.0975876816178996686e-05
1.0975818392842241097e-05
1.0993055960704086138e-05
1.1051900222262399132e-05
1.1119675421063701234e-05
1.1179794338142643408e-05
1.1229861883390197322e-05
1.1268249403449891088e-05
1.1294692073721158751e-05
1.1310047590170296158e-05
1.1316175845330804175e-05
1.1315680883349221663e-05
1.1310916576892626593e-05
1.1304013434097761077e-05
1.1296267215953564208e-05
1.1288014461037955557e-05
1.1278000213903010057e-05
1.1262712256065223401e-05
1.1231322245500104828e-05
1.1172983025516946905e-05
1.1114187445819088821e-05
1.1059234093548577326e-05
1.1010553605062175849e-05
1.0969326875431584809e-05
1.0935607025730811057e-05
1.0909387045814010115e-05
1.0889591191798168269e-05
1.0875378065394442531e-05
1.0864810993301832673e-05
1.0856606040676195982e-05
1.0849341646952255741e-05
1.0844057683272497261e-05
1.0845196032337132614e-05
1.0866388928500501939e-05
1.0911539955688079421e-05
1.0954519797597109552e-05
1.0992800140347287001e-05
1.1025445641739954644e-05
1.1051573970962406046e-05
1.107119980314098123e-05
1.1084464153972510938e-05
1.1091976548979006514e-05
1.1094661587313813366e-05
1.1093356903450360222e-05
1.1089441838570903185e-05
1.1083546905144090527e-05
1.1076714079754257543e-05
1.1069333882420717802e-05
1.1061390769356525867e-05
1.1052057496708962771e-05
1.1039044397624064764e-05
1.1018095946149595256e-05
1.0994291300352515756e-05
1.0969497025352825087e-05
1.0943271258128782502e-05
1.0914527198908227738e-05
1.0882815968741257719e-05
1.0847982747611192224e-05
1.0810491616106080034e-05
1.077107386221347553e-05
1.0731706979990952424e-05
1.0694526003142600792e-05
1.0662237000201286077e-05
1.0636565032015416149e-05
1.061817675059999831e-05
1.0606730399807823233e-05
1.05991661997964837e-05
1.0594212821062111191e-05
1.0598292181200108292e-05
1.0631568923403449434e-05
1.0733761762791341839e-05
1.084510524701482881e-05
1.0938059657800137836e-05
1.1012134629198565836e-05
1.1067938684783818542e-05
1.1107576183505713256e-05
1.1133970866214570834e-05
1.1149805027228795544e-05
1.1157909846448303058e-05
1.1159916807594690141e-05
1.1157267281075815477e-05
1.1151585982219274236e-05
1.1144157221056127471e-05
1.1135841927462277877e-05
1.1125380683488321002e-05
1.1108919294973912934e-05
1.1074046498494683426e-05
1.0989862811555357471e-05
1.0885672357030751756e-05
1.0787830744396818846e-05
1.0699096297507347528e-05
1.0622024500606910591e-05
1.0558352713193802289e-05
1.0508905124077821827e-05
1.0473050071963676565e-05
1.0449644172478015009e-05
1.0435656462859741538e-05
1.0427125651688437527e-05
1.0420635575667103455e-05
1.0418018127695373643e-05
1.0428686276137556004e-05
1.0481195832939891303e-05
1.0571377796188241685e-05
1.0651439698758934747e-05
1.0718011152095722693e-05
1.0769945807449703175e-05
1.0807648445366639856e-05
1.0832459744809822498e-05
1.0846541370891819999e-05
1.0852199692071191623e-05
1.0851860495702716082e-05
1.0847732437619099933e-05
1.0841488689200991845e-05
5.1132340924709494931e-07
6.3518283466054420213e-07
7.1324346715615987056e-07
7.630243808260958471e-07
8.5387882920979021617e-07
1.0173026418121382953e-06
1.1335620209470570721e-06
1.1860392549623755861e-06
1.2357004262262648845e-06
1.3423317055209912988e-06
1.4642030719349798669e-06
1.5361636247148993839e-06
1.5754375760665282167e-06
1.6424035912825841071e-06
1.7791608861863430554e-06
1.8841462473597256135e-06
1.9328461402966830572e-06
1.9884434837103063366e-06
2.0923017339186319025e-06
2.204825931735114683e-06
2.2785266474352017914e-06
2.3174827002590508099e-06
2.3672364899759556859e-06
2.472585873529842983e-06
2.613776832720248307e-06
2.7251890896282611621e-06
2.7781358710916908115e-06
2.8105178815099968297e-06
2.8801334184893610631e-06
2.9790093377576735875e-06
3.0452757869259085783e-06
3.0857885454780582108e-06
3.1415274588267234109e-06
3.2322081177881500305e-06
3.3374596552490714093e-06
3.4276670670227448351e-06
3.5007396110763028562e-06
3.5744622163884806351e-06
3.6597122859620196514e-06
3.7484753873067791948e-06
3.8272436440672593871e-06
3.8925817946528705845e-06
3.9542922085640884632e-06
4.0237246638729609518e-06
4.1054795408818737604e-06
4.1951535935381164169e-06
4.2823520063307964742e-06
4.3536852681203979553e-06
4.4019773184451230599e-06
4.4363607362071938659e-06
4.4822361124208302854e-06
4.5625743457825091047e-06
4.6776441435538024724e-06
4.8046323970222585601e-06
4.9129653871709440881e-06
4.9826214420350129682e-06
5.0157668932967668663e-06
5.0341259240110938271e-06
5.0662932596192601715e-06
5.1330838387459074397e-06
5.2299614767501750691e-06
5.3367537965171161411e-06
5.4302623522235185847e-06
5.4960346737890428199e-06
5.5320983895120076184e-06
5.5467615659589245223e-06
5.5544030259945352529e-06
5.5707265562690177322e-06
5.616446140658343021e-06
5.7196724113509177375e-06
5.822826132751410445e-06
5.9075327721094396841e-06
5.9735426258971167343e-06
6.0312300371436105889e-06
6.0953868945354453245e-06
6.1780729510810195582e-06
6.2814229043408212629e-06
6.3966527004737836853e-06
6.5061546348183244966e-06
6.5915170303405610957e-06
6.6446234112782547599e-06
6.6687924607694266951e-06
6.6745039298003491131e-06
6.672971911211557239e-06
6.6712297758052978142e-06
6.6736128378644214969e-06
6.6887342500326170733e-06
6.7353709447649795714e-06
6.7960723483409130741e-06
6.8634625188714192367e-06
6.9409072474364562105e-06
7.0288923550584148428e-06
7.1255333318449785751e-06
7.230704365098764598e-06
7.3465144771459630328e-06
7.4728819155188193227e-06
7.6041458470405726041e-06
7.726456978666884344e-06
7.8223758287767663138e-06
7.8801026987391095083e-06
7.9009720310934812131e-06
7.8994561696772935361e-06
7.8895559010048516333e-06
7.8611880977647603498e-06
7.8281308814616068687e-06
7.8113620919649544354e-06
7.8046779499149280927e-06
7.8040518190024074646e-06
7.8250206980406685435e-06
7.9019248927370090626e-06
7.9964580427001596139e-06
8.0819832537290039884e-06
8.1637246452708936401e-06
8.2453601801360401033e-06
8.328040387955181056e-06
8.4100931871681217631e-06
8.4867162228204329053e-06
8.5509534689195484264e-06
8.5967302099817569219e-06
8.6208975274684167825e-06
8.6270534723222737459e-06
8.6224707545845988787e-06
8.6134391798420366316e-06
8.5934529103607729713e-06
8.574098204813235106e-06
8.5643370237523385206e-06
8.5592733157836446223e-06
8.5637525788599542153e-06
8.6012816637814194467e-06
8.6926569873546244725e-06
8.7857655240178093961e-06
8.8767230037474860102e-06
8.9651570991055729839e-06
9.0486051443349262374e-06
9.1248228116893350244e-06
9.1926235689495677968e-06
9.2524108317628392834e-06
9.3042888207046345371e-06
9.3477211759519885184e-06
9.3786387626661965811e-06
9.3950523281762285112e-06
9.3970872124467895296e-06
9.3906990730204271126e-06
9.381422785662374303e-06
9.3714843150901894615e-06
9.3655323736755265233e-06
9.3702138432964285087e-06
9.4136954234988915949e-06
9.4908609045996659775e-06
9.5492706223303205524e-06
9.5877114074007720488e-06
9.6086698293648634009e-06
9.61632698368992855e-06
9.6182201116741199409e-06
9.6234755259800335356e-06
9.6423501998410838924e-06
9.6975519299771182773e-06
9.7795977503801916118e-06
9.8669310181770036259e-06
9.951837784377189704e-06
1.0027359807271014452e-05
1.0088986847592423869e-05
1.0133796542553705246e-05
1.0160949202406613888e-05
1.0171982828509215185e-05
1.0171543490783634163e-05
1.0164867166872495162e-05
1.0156764156071535209e-05
1.014601754453343344e-05
1.0133825813135679224e-05
1.0123367771361405676e-05
1.0114956217500800214e-05
1.0107867871994764231e-05
1.0101782171221541692e-05
1.009930812761147008e-05
1.010936269417673906e-05
1.0158305896948828525e-05
1.0256778076588740712e-05
1.0357629933339222931e-05
1.0455878743692358584e-05
1.0545900914808315748e-05
1.0625550827198451342e-05
1.0694032250751919096e-05
1.0752266509557247635e-05
1.0800608146064746446e-05
1.0838438689998912217e-05
1.0865414235921902453e-05
1.0881008165877294427e-05
1.0886623143623427973e-05
1.1080460376584243821e-05
1.112174838507168973e-05
1.1247847696087741944e-05
1.1380099082021929212e-05
1.1486885136459929101e-05
1.1569055594500413908e-05
1.162975359291681345e-05
1.1672585672747977915e-05
1.1700615809899394306e-05
1.1716643309432517954e-05
1.1723043113784680565e-05
1.1721808551340005318e-05
1.1715737424403384757e-05
1.1707598008126826153e-05
1.1697861693180710359e-05
1.1682036749200836094e-05
1.1646588272840171377e-05
1.15894279342855571e-05
1.1537886744300456437e-05
1.1496213155688002203e-05
1.146574896110718971e-05
1.1445376430967146435e-05
1.143372392430239613e-05
1.1426024548085554627e-05
1.1422889758554294811e-05
1.1436714223001482886e-05
1.150216390719699806e-05
1.1601839206241285545e-05
1.168929090347755016e-05
1.1763991993513676787e-05
1.1826347673627951468e-05
1.1876814054436270985e-05
1.1916425154222814065e-05
1.1946699458007112375e-05
1.1968376568859014403e-05
1.1982628455130412413e-05
1.1989875675779602487e-05
1.1991195579424265903e-05
1.1987812095197855207e-05
1.1981024722535062071e-05
1.1972761615448227122e-05
1.1962488706520574307e-05
1.1944833311620276929e-05
1.1903577567153836737e-05
1.1814714040357988142e-05
1.1727195383409941089e-05
1.165583679345282574e-05
1.1604372835498154526e-05
1.1571916877246721462e-05
1.155441503190417026e-05
1.1544745254478351506e-05
1.1538419844305965157e-05
1.1541158235208297199e-05
1.1574601302714695021e-05
1.1661490786544009769e-05
1.1745417065432980995e-05
1.1817859686911745044e-05
1.1879196751836412302e-05
1.1928995664559775269e-05
1.1968033917916435141e-05
1.1996135777301130255e-05
1.2014388047777047757e-05
1.2023780045376824109e-05
1.2025860277604646985e-05
1.2022324959511020568e-05
1.2015701969460323281e-05
1.2007300404383887602e-05
1.1997804137573928989e-05
1.1984567339397879111e-05
1.1959029506400297043e-05
1.1898791699129301238e-05
1.1823898359356392574e-05
1.1759679566460032093e-05
1.1708485891332818266e-05
1.1671634826521507281e-05
1.1647281004666356139e-05
1.1632305737951172632e-05
1.1622465260250971499e-05
1.1614717276009320259e-05
1.1610444000356638341e-05
1.1618536318422076142e-05
1.1659315903655381681e-05
1.1715415108885711705e-05
1.1770040063003405205e-05
1.1823467742669036221e-05
1.1874661084186873962e-05
1.1921403619510619846e-05
1.1961578372339724442e-05
1.1993756895606158235e-05
1.2016708814503195666e-05
1.203066699694195145e-05
1.2036706147039357228e-05
1.2035985853592307983e-05
1.2030773721906486972e-05
1.2022769611717477024e-05
1.2013838097158969121e-05
1.2003063891840823238e-05
1.1987134302470561629e-05
1.1954573579768099477e-05
1.1889423868125583448e-05
1.1824848320682139141e-05
1.176921027173169967e-05
1.172420849535460899e-05
1.1689747160749039751e-05
1.1664604040725328214e-05
1.1647087533918534634e-05
1.1634718074988921013e-05
1.1625400725276832062e-05
1.1617379177538919734e-05
1.1610140122625139624e-05
1.1605865383165592e-05
1.161087530182274275e-05
1.1633978113415120292e-05
1.1661892022113708417e-05
1.1692989162988144371e-05
1.1727599827368929928e-05
1.1764766629586069261e-05
1.1803122208668500215e-05
1.184062000335771261e-05
1.1875506958371512983e-05
1.1905634934082392457e-05
1.1929846805927967753e-05
1.1947201861186446792e-05
1.1957699315225743639e-05
1.196151728506692627e-05
1.1959605952072566385e-05
1.1953820745492250638e-05
1.1945926400067880687e-05
1.1937019944018451497e-05
1.1924957594648292209e-05
1.1902191716319615353e-05
1.1852188051458895093e-05
1.179503063470928728e-05
1.1744809933066425287e-05
1.1702193533044706928e-05
1.1668074470231536529e-05
1.1641571447367697777e-05
1.1622068813836407261e-05
1.1607837323860820133e-05
1.1597662149784005819e-05
1.1589238851084085325e-05
1.1582551516101786848e-05
1.1581635067845704419e-05
1.1598658108701648728e-05
1.1657509576253559093e-05
1.17242865037441756e-05
1.1783134164334803902e-05
1.1832609859956432638e-05
1.1871106325317777656e-05
1.1898493599049683411e-05
1.1915131588643835975e-05
1.1922733030550654388e-05
1.1923507076567173369e-05
1.1919491400661102556e-05
1.1912812912547123925e-05
1.1904929109132955976e-05
1.1896604750405839133e-05
1.1887796276755547848e-05
1.187729360700390141e-05
1.1861848870841025909e-05
1.1831397686753961174e-05
1.1774339950538774305e-05
1.1715424104663938173e-05
1.165924326010766627e-05
1.1608474953593821759e-05
1.1564657117385691984e-05
1.1528420092384332793e-05
1.1499982153546089726e-05
1.1478708117190993655e-05
1.146353669994730201e-05
1.1452489639988585113e-05
1.1443957386691358706e-05
1.143656146730826154e-05
1.143228355930026045e-05
1.1438312165845857486e-05
1.1473003903317183732e-05
1.1521757297945114229e-05
1.1565212653300130756e-05
1.1602757471919755486e-05
1.1633602058783741311e-05
1.1657458816656595678e-05
1.1674502548357659789e-05
1.1685153337198336978e-05
1.1690240004827333673e-05
1.16905421616358135e-05
1.168748109488017453e-05
1.1681939217163778242e-05
1.1675061914765424656e-05
1.16675235369493481e-05
1.1659453859662817198e-05
1.1650588488469111891e-05
1.163922999669732099e-05
1.1620749768160896112e-05
1.159419061094250576e-05
1.1566444664587144755e-05
1.1538084319199490752e-05
1.1508654291770721974e-05
1.1477276683349168593e-05
1.1443483947890588335e-05
1.140701017722742091e-05
1.1368114443790924248e-05
1.1327466226169599349e-05
1.1286424763936639919e-05
1.1247435553831309254e-05
1.1212886706039230003e-05
1.1185174670376317986e-05
1.1164899008982433104e-05
1.1151990306828144433e-05
1.1143729408240079292e-05
1.1137759053798430113e-05
1.1138956988021948139e-05
1.1163334814954461069e-05
1.1254352430124422155e-05
1.137662961136679195e-05
1.1479871387535829286e-05
1.1562941958926832581e-05
1.1626092168405713454e-05
1.1671694737565105083e-05
1.1702839106089105514e-05
1.1722507170932564176e-05
1.1733453779814130504e-05
1.173762312438325159e-05
1.1736168431629860382e-05
1.1731026372971399779e-05
1.1723408504794516688e-05
1.171479941632811224e-05
1.1704114459606433586e-05
1.1687437644651147131e-05
1.1652141972291559752e-05
1.1564261385420911396e-05
1.1450167146801406792e-05
1.1344100800110236136e-05
1.1249049435110329499e-05
1.1168089387477087493e-05
1.11025164086730272e-05
1.1053048009926997805e-05
1.101836248767674821e-05
1.0996716864577050802e-05
1.0984008505060525622e-05
1.0976042347466824433e-05
1.096987387633273772e-05
1.0969546411270707996e-05
1.0988553881072202797e-05
1.1060130263617205356e-05
1.1150941003422723668e-05
1.1228633041158796074e-05
1.1291822069031275363e-05
1.1339874204319756282e-05
1.1373576095727614896e-05
1.1394699716768363665e-05
1.1405670940063446109e-05
1.1408953673441513734e-05
1.1406942775877946953e-05
1.1401666623210894455e-05
1.1394778718065544924e-05
5.4289167308825352088e-07
6.1828603571815479617e-07
6.9076042176254206384e-07
8.3894785605497093913e-07
9.5695231411682842795e-07
1.0125925538196714933e-06
1.0754277345144453823e-06
1.2185252267574034015e-06
1.3688465593855106778e-06
1.4426456829975465438e-06
1.4855414705938146565e-06
1.5640269426004064746e-06
1.6896662470387426055e-06
1.8082296696886122195e-06
1.8828065221786692581e-06
1.9206584803940204964e-06
1.9619663090064650747e-06
2.0543045500037902142e-06
2.2209001266049268124e-06
2.358465379592505305e-06
2.4332839665200127187e-06
2.4652602646679813975e-06
2.5026799322619744055e-06
2.5929318459943222235e-06
2.7102188704366276525e-06
2.7932496783555283134e-06
2.8529743058677292531e-06
2.9247847358079467568e-06
3.0270185224784216208e-06
3.1429334078593345829e-06
3.2394647956046467945e-06
3.2972250334105590137e-06
3.3242502715380588419e-06
3.350688325986195227e-06
3.4094248031005121043e-06
3.5571822039959446591e-06
3.7062710480209483925e-06
3.8066184955080897182e-06
3.8854979967477982079e-06
3.9696294273228798443e-06
4.0527533941367091061e-06
4.1132507698436394152e-06
4.1506556304294373478e-06
4.1902874794499662785e-06
4.2577414607088225385e-06
4.3536127362971422855e-06
4.454286981826648211e-06
4.5352317615282069092e-06
4.5937102659815316413e-06
4.6468856332868741868e-06
4.7153853565465077968e-06
4.8051454736933371783e-06
4.9022545485935866414e-06
4.9867967656327618457e-06
5.0489159068824481901e-06
5.0966032343283660023e-06
5.1503627013515211817e-06
5.2287445906615816297e-06
5.3362951616402634915e-06
5.457854234547434514e-06
5.5673604158933024676e-06
5.6438645601623030066e-06
5.6838358864015754138e-06
5.700684589582405674e-06
5.7166106490593808408e-06
5.7520120100908716992e-06
5.817194377607807346e-06
5.909239924094184646e-06
6.0146421447681449232e-06
6.1131129986812447776e-06
6.1860536261702520004e-06
6.227639750764302265e-06
6.2516175534391612084e-06
6.288929608720890135e-06
6.3678821408067045007e-06
6.4874312450596248469e-06
6.6304067074532091645e-06
6.7673326944147985999e-06
6.8734934734509017505e-06
6.9377275593122919413e-06
6.9645481906489624285e-06
6.9693129714961174273e-06
6.9663591306505802709e-06
6.9646170113242071226e-06
6.9697280132030340361e-06
6.9992881131745815642e-06
7.0908120129048674016e-06
7.1905311709109858499e-06
7.2658149702863554221e-06
7.3189376928464767267e-06
7.3596856457282199988e-06
7.4010476800243650189e-06
7.4579086927251855336e-06
7.5452779260107253077e-06
7.6720466909426317828e-06
7.8330673359683858782e-06
8.0061135007804812964e-06
8.1589860237394749609e-06
8.2663146550162827929e-06
8.3192190947087073054e-06
8.3303808103140158193e-06
8.3235820775356241582e-06
8.3020137074197642747e-06
8.2626877596942136558e-06
8.2424279592521341244e-06
8.2363718507030582981e-06
8.2435386868300794528e-06
8.3001811956689360456e-06
8.3920735630963699087e-06
8.4530755195608707383e-06
8.4950842262911882709e-06
8.5360598727806387111e-06
8.5906791786875191043e-06
8.6669941248005236969e-06
8.764145208614878329e-06
8.8713885334305571211e-06
8.9722956976139824276e-06
9.0513909333517341354e-06
9.098705980332253657e-06
9.1161655990393238225e-06
9.1144502106375144306e-06
9.1058148070909545593e-06
9.085466852755386645e-06
9.0587673349848899646e-06
9.0445121146174091724e-06
9.0380043170795855239e-06
9.0400426385101541104e-06
9.0757128775872091952e-06
9.1593462895268352319e-06
9.2285423649336943399e-06
9.2833572708841627727e-06
9.3317641927625023183e-06
9.3816612318613477769e-06
9.4412337465558938932e-06
9.5149141618616325848e-06
9.6023635429094642013e-06
9.6987827562497280992e-06
9.7938265046832690222e-06
9.8764427456102664329e-06
9.9359577767743460525e-06
9.968409815550118949e-06
9.9759595777941502214e-06
9.9697759107904256249e-06
9.9578686383701982239e-06
9.93283235174431087e-06
9.9131817913864502358e-06
9.9046509524348203067e-06
9.9033109810287479094e-06
9.9282157103459821497e-06
1.0011254251287703566e-05
1.008118336128059854e-05
1.0120058206181859779e-05
1.0139125561998048669e-05
1.0152255538733823235e-05
1.0172293591969339572e-05
1.0206699178883191326e-05
1.0256065589614106034e-05
1.0316774275259964593e-05
1.0382712172630001327e-05
1.0448486666862468126e-05
1.0510298729358093266e-05
1.0565981013895920919e-05
1.0615708896726663572e-05
1.0659470740982206194e-05
1.0697466115678407823e-05
1.0727267199965574257e-05
1.0746560508805610545e-05
1.0754141816239965436e-05
1.0752317902774074916e-05
1.0745650475055663098e-05
1.0737300003325005483e-05
1.0726602854040984862e-05
1.0713593483268653842e-05
1.0703769478942676881e-05
1.0696545910826347434e-05
1.0691151376267360898e-05
1.0693322172902258786e-05
1.0721143616546036795e-05
1.080676104009658774e-05
1.0905306299651034278e-05
1.1000710712899444254e-05
1.1092924989424729463e-05
1.1180278403341753263e-05
1.1259890317297342337e-05
1.1327937195244040282e-05
1.1381610678068353431e-05
1.1418176074654420654e-05
1.1437804810873451348e-05
1.1443079707256635679e-05
1.1803713535103937539e-05
1.1918442918188896116e-05
1.2014519734619967688e-05
1.2093173976177179959e-05
1.2157203880162309231e-05
1.2209221032154892668e-05
1.2252008277925988304e-05
1.2287801651568407881e-05
1.2316241418514757195e-05
1.2336772604656138323e-05
1.2348273093005014982e-05
1.2350759679008745971e-05
1.2346214671203547964e-05
1.2337986296201254732e-05
1.2327462288964664353e-05
1.2308162012826738045e-05
1.2260372627779277387e-05
1.218807920556151687e-05
1.2125068880584599212e-05
1.2073309534934035251e-05
1.2033549080117058488e-05
1.2004926994111907789e-05
1.1985704292759130597e-05
1.1974373259696230329e-05
1.1966487600144492414e-05
1.1963728360619386781e-05
1.1979451794046667784e-05
1.2050507421999324172e-05
1.2159621269014898019e-05
1.2257348858996421962e-05
1.2343021760342592192e-05
1.2415993072840507056e-05
1.2476693440421726097e-05
1.2525229176175137522e-05
1.2562650070263018501e-05
1.258968896067543562e-05
1.2606999569285966986e-05
1.2615060643790030375e-05
1.2615347935829414742e-05
1.2609639537802158941e-05
1.260106732445485414e-05
1.2589583041437743579e-05
1.2567232060703583231e-05
1.2509047937318753469e-05
1.2410541238788424937e-05
1.2326077631941873838e-05
1.226288923373167654e-05
1.2221453450278507949e-05
1.2198163779064897499e-05
1.2186008585509366649e-05
1.217844460140736234e-05
1.2178048575259470585e-05
1.2203104231005042275e-05
1.2278791507644431849e-05
1.2354719142126310228e-05
1.2420908140032088405e-05
1.2478161409932670841e-05