/*--------------------------------*- C++ -*----------------------------------*\
  =========                 |
  \\      /  F ield         | OpenFOAM: The Open Source CFD Toolbox
   \\    /   O peration     | Website:  https://openfoam.org
    \\  /    A nd           | Version:  12
     \\/     M anipulation  |
\*---------------------------------------------------------------------------*/
FoamFile
{
    format      ascii;
    class       volScalarField;
    location    "0.0165";
    object      p;
}
// * * * * * * * * * * * * * * * * * * * * * * * * * * * * * * * * * * * * * //

dimensions      [1 -1 -2 0 0 0 0];

internalField   nonuniform List<scalar> 
75962
(
98502.789025741818477
98595.501171454263385
98737.006534743792145
98846.700013308261987
98888.203790748026222
98812.822143661251175
98665.225706054538023
98662.964446893442073
98792.500815202060039
98901.213334227359155
98903.505225711080129
98790.724720161524601
98675.327696803215076
98695.821865300822537
98817.976152427931083
98934.682901138818124
98989.419411096721888
98960.444902897826978
98909.285070368714514
98925.565093644603621
98988.217417384119472
98997.344540324018453
98932.130109584788443
98864.079610679371399
98833.591981919147656
98830.479394301932189
98838.535604749646154
98852.846672384970589
98862.954700360773131
98879.720711814399692
98909.281399152459926
98929.385173899165238
98918.096552392700687
98883.918084519988042
98861.808408956174389
98868.914938710338902
98887.767730586449034
98894.794746980565833
98887.261277323559625
98882.041538592675352
98877.047085549667827
98874.079742630579858
98877.824794914602535
98882.856477916386211
98878.389983317043516
98877.717012292880099
98884.841312619435485
98892.076112245718832
98899.061459127784474
98912.745618748653214
98930.994401338262833
98952.963219748286065
98985.717966310825432
99031.74311913078418
99070.773082068437361
99081.56368210054643
99071.788764473618357
99056.658357824329869
99047.765923587736324
99047.102263015622157
99054.339676649862668
99067.185148038930492
99076.49469562570448
99075.218905830057338
99054.664722577828798
99016.158294110136922
98964.019986575949588
98919.656863727723248
98910.238190418633167
98932.249073795042932
98950.651651418229449
98935.533286967271124
98892.905446998251136
98853.225486573079252
98830.247603083742433
98814.766594878790784
98798.950524562271312
98794.119697939924663
98815.438150099231279
98853.404676865335205
98879.27167319887667
98873.260011910519097
98846.79250597738428
98819.85833992708649
98812.600426973280264
98823.701049062408856
98851.139246466686018
98885.138167487762985
98910.384958041700884
98916.968779394126614
98913.04845824908989
98914.182081077509793
98924.828596277395263
98930.814715421831352
98921.56726007067482
98901.29603445038083
98885.925384378686431
98885.747573094136897
98896.857626169716241
98909.60562356383889
98915.32867094334506
98910.152486422448419
98895.758721158650587
98877.081811044699862
98860.483222030830802
98850.03750918256992
98844.741839394133422
98845.851534775618347
98857.906578358059051
98880.425422968575731
98904.335741237839102
98918.84289820122649
98922.020898994160234
98919.873785156538361
98918.782319207501132
98917.179180685387109
98911.163220174668822
98901.3445093389455
98892.338643881026655
98889.82121112839377
98894.480717797981924
98904.131593307902222
98916.261687728227116
98928.447799432004103
98938.071249020271352
98943.127160337462556
98945.147141975961858
98950.390609437512467
98966.972771245040349
98997.332945463916985
99034.490648820894421
99065.056560233555501
99076.091070509457495
99063.447869916475611
99034.954646072670585
99007.654912766025518
98996.386589654255658
99003.895860650765826
99018.037106929943548
99020.711528033541981
99001.149846648157109
98963.699264298556955
98921.156056225765496
98886.774787179616396
98866.534797310945578
98861.491484361802577
98869.802153504293528
98889.270139829925029
98915.775817540517892
98940.746466496653738
98955.901215089106699
98958.273007689422229
98951.537625777389621
98942.603250841973932
98937.913958280754741
98939.634860377191217
98946.830842730108998
98957.095508432903443
98969.032251728101983
98980.615818895952543
98991.339899664599216
98998.599810572617571
98999.786252219593734
98993.427215575618902
98979.846220590668963
98962.29637108190218
98945.109507549132104
98931.226033335464308
98922.25590690592071
98918.905471263467916
98920.701273539700196
98927.319645883035264
98938.618543186865281
98954.434383895728388
98973.978013829444535
98996.330151219459367
99020.323184203909477
99043.906739195052069
99064.571476822195109
99079.682338646292919
99086.959772877162322
99085.337235333412536
99075.415839268578566
99059.980052771235933
99042.832858593334095
99028.04736250427959
99019.422408280093805
99018.842375322914449
99118.249734656390501
99117.824968720466131
99120.903638879128266
99128.36745963935391
99137.6399757948966
99144.158518533920869
99143.434424847611808
99134.593494506625575
99120.467685844385414
99105.967265799888992
99095.623953508140403
99091.436918812425574
99091.821963834750932
99093.78502200411458
99095.070378913995228
99095.3290166380757
99095.840920211674529
99099.026303149425075
99106.229659480784903
99116.817856169756851
99128.842694341321476
99140.476894297651597
99151.145414993879967
99161.737166730890749
99173.64043599148863
99187.615835503165727
99203.8866263521777
99221.375278044259176
99237.609291812826996
99250.424978520604782
99256.08573705717572
99251.739334690821124
99235.732488807960181
99209.839785661097267
99179.655862344399793
99152.774722419300815
99136.358163258701097
99133.230575650522951
99141.370452838018537
99155.515731205334305
99169.104494668979896
99178.164327397069428
99182.140903904248262
99183.480169106245739
99185.361146928698872
99189.111354055872653
99193.428271904718713
99195.749737581951194
99193.897814931959147
99187.602107790924492
99179.024200500076404
99171.346435332641704
99168.222945854664431
99171.954980211972725
99182.609940290523809
99197.501257310650544
99211.87771978386445
99221.508245320568676
99223.29420454557112
99217.414615958798095
99206.932884628535248
99196.080852402810706
99188.695757420384325
99186.311168215746875
99187.378098158849753
99188.9382363040786
99188.767777396788006
99186.849530508290627
99185.618179856144707
99188.382651032676222
99197.327719901819364
99211.882380356648355
99228.809206612379057
99243.311080150320777
99250.904656972328667
99249.304609428349067
99239.302398840416572
99224.644394350951188
99209.977594979252899
99199.338305696132011
99195.060535402109963
99197.042596907776897
99203.168451480116346
99210.183001284502097
99214.794738275755662
99214.787277161187376
99209.654571133563877
99200.257273297189386
99189.196501110709505
99178.567683182394831
99170.114514225366293
99164.309794717293698
99160.174359800526872
99156.150363486100105
99150.652527722500963
99142.812850253802026
99132.883385043503949
99121.822470669387258
99111.872663131798618
99104.886940018055611
99102.008012232123292
99103.581234405952273
99109.04757623943442
99117.037695416336646
99125.770936262444593
99133.500042649990064
99138.679464425629703
99140.414334400265943
99138.72378763690358
99134.293246949950117
99128.593813828993007
99123.590974294420448
99120.652152172813658
99120.904964989531436
99124.23780239187181
99129.451597422870691
99134.82065073827107
99138.035926171825849
99137.740816025485401
99133.538946573593421
99126.168414082509116
99116.81631795038993
99107.290266743511893
99099.063121143990429
99092.759892554546241
99088.484160760432133
99086.266264135963866
99086.233664966654032
99088.744520165171707
99094.027415370219387
99101.979267049755435
99111.595097618643194
99120.976562469048076
99127.726604058829253
99129.451928726935876
99124.764550084670191
99114.004768672646605
99099.460984271718189
99085.029727231973084
99074.904426458349917
99072.197667203901801
99078.064964844394126
99091.230253360088682
99107.730483946666936
99123.500171342064277
99133.917874545149971
99137.037202364153927
99132.7689649938402
99123.393262931102072
99112.227335263363784
99102.640003901760792
99097.43373044054897
99097.838273398650927
99103.747234209658927
99114.075401468653581
99127.037079568355693
99140.816690635445411
99153.827578376949532
99164.943507584539475
99173.791940781258745
99180.282747240300523
99184.709435137876426
99187.123379448923515
99187.604047845161404
99186.127081559010549
99182.919442102996982
99178.474903476366308
99173.854572354146512
99170.336999146340531
99169.184212570093223
99171.359387590826373
99176.965742168220459
99185.517726175457938
99195.539491573101259
99205.283940485183848
99212.852854013661272
99216.843293668469414
99216.743311132566305
99213.095089335634839
99207.477738931615022
99201.68243187200278
99198.015450677528861
99198.30022790505609
99203.744025896507083
99214.746913544426206
99230.517777852583095
99249.12047218112275
99268.117894327195245
99284.958684216733673
99297.319464392174268
99303.69182552836719
99303.597463762474945
99297.689592333772453
99287.319051636033691
99274.204489651150652
99260.010846077741007
99245.87128906219732
99232.661717760085594
99220.434587156545604
99209.186847276549088
99198.46862494686502
99188.320028090718552
99179.053371953079477
99171.496590658542118
99166.888962068158435
99166.538717505609384
99171.157567030240898
99180.780853311953251
99194.147759736850276
99209.23516046666191
99223.184073442418594
99233.548808080959134
99238.38438189169392
99237.12419875098567
99230.450935096829198
99220.468285876166192
99209.840663476701593
99200.931518163401051
99195.446848861014587
99193.770090292222449
99194.816948235034943
99196.555161513650091
99196.648193437416921
99193.178558727915515
99185.308504274187726
99173.626235942327185
99159.987879389474983
99146.995546895894222
99137.404544481556513
99133.617544040505891
99136.999863931705477
99147.608770485196146
99164.205395849261549
99184.333148128396715
99205.105990048861713
99223.673815687085153
99237.548080749140354
99245.688692078925669
99247.846783750021132
99244.996462961382349
99238.337383544116165
99229.52875660789141
99219.72673704540648
99210.155145560769597
99201.887625919582206
99195.520115052684559
99191.36596389792976
99189.657477518892847
99190.553304690460209
99194.228256558562862
99200.895862332647084
99210.613053139881231
99223.020730505973916
99237.06833902472863
98925.641247199600912
98901.677711108335643
98771.580659049999667
98754.906394580830238
98750.421555385153624
98623.811629322750377
98559.577455381266191
98691.532666828919901
98842.53027286476572
98895.250210661964957
98860.639482655969914
98767.529323185895919
98692.323262972175144
98712.918234455122729
98791.262947417402756
98876.104147747042589
98947.91821682502632
98950.189057627416332
98908.879267633616109
98928.296442816470517
98998.079918078015908
99021.809686246939236
98972.004747268991196
98904.976975252298871
98867.06654305801203
98848.398837486180128
98835.526360085961642
98831.614800970710348
98833.916791825875407
98835.217874781679711
98855.744875218704692
98898.857178788806777
98932.551869452450774
98937.509093463319005
98931.458467448159354
98939.934033852317953
98961.246714187625912
98976.017474179781857
98979.932350257309736
98973.998708814702695
98941.672893925744575
98884.248121809752774
98835.780023079889361
98832.402922926805331
98868.75806769799965
98914.181542769510997
98932.76219779184612
98928.700199068713118
98924.007995593114174
98932.022990607889369
98954.973572466828045
98986.992653882465675
99029.02530765235133
99070.847512694599573
99099.435877349853399
99110.836187535707722
99110.296897656880901
99105.504809739111806
99094.391426314541604
99081.200390222846181
99074.282755086547695
99069.033976854392677
99052.528495232589194
99023.206666556419805
98989.649533010393498
98954.606371152127394
98919.264916419531801
98894.671840715207509
98892.734908094455022
98909.290786984478473
98921.420398049682262
98909.665268665194162
98881.589762797026196
98859.0044539256196
98849.756431250600144
98846.109447222377639
98842.038505872900714
98844.357630859507481
98858.73676911185612
98875.288540513894986
98878.08893632645777
98861.493368534342153
98832.411676043644547
98806.390283224711311
98791.469481619758881
98796.544564184878254
98829.763320072786883
98884.24961783947947
98938.041028773135622
98970.426938123244327
98976.85229154182889
98967.864394316027756
98954.70045853528427
98940.565200111508602
98924.670177776832134
98908.734922857067431
98898.888602614737465
98898.004683511302574
98904.587787488504546
98913.005331812935765
98916.08230500369973
98906.401478817366296
98887.794985298925894
98869.999748225018266
98865.750716773691238
98874.950649988371879
98887.445777083194116
98896.484540873032529
98904.445826274793944
98916.63842003053287
98932.719082519877702
98947.171713981268113
98954.6497361567599
98955.574008356517879
98950.488811612551217
98938.487068099319004
98920.906534524896415
98903.225221065702499
98891.698382138070883
98890.221071698673768
98897.246155578410253
98908.436002779038972
98921.227589112138958
98934.309955884004012
98944.588894948596135
98947.574274470869568
98944.807747587343329
98943.461288064019755
98953.720986366519355
98980.101916503190296
99016.766593610955169
99050.151554152515018
99066.20596189177013
99058.965421155327931
99036.118419060556334
99013.641647669574013
99005.496330914000282
99015.157108623476233
99030.436115330114262
99033.270105695846723
99013.054600115923677
98974.608225933654467
98933.176588310918305
98901.882217232414405
98887.621529316791566
98889.020981066365493
98902.418157890992006
98924.844039750343654
98950.024887524210499
98968.238769651419716
98972.992767401068704
98964.107551524211885
98947.331191766235861
98931.107096305742743
98921.386566421861062
98920.610795648695785
98928.838743411848554
98943.210177318760543
98959.905493571481202
98974.451364477325114
98983.555329095062916
98985.417742179590277
98979.824537271211739
98968.645173809607513
98954.008809983744868
98937.882704548334004
98922.6287446100323
98909.010180667959503
98899.136871234513819
98894.588551364926388
98897.812635331298225
98911.107509827968897
98934.306866468934459
98964.163165241334355
98995.191236816244782
99021.534324036751059
99039.125396633127821
99048.170828403439373
99052.133010073899641
99055.325432287034346
99059.001356785505777
99061.768573804525658
99060.66323483690212
99054.420000856131082
99045.121993182066944
99036.119037233758718
99030.733236412954284
99030.008348472692887
99032.099480711665819
99130.035695694663445
99128.16230836082832
99124.129203574091662
99121.598943827266339
99122.795286754902918
99126.874576326474198
99129.948241268386482
99127.99330334723345
99119.254952350645908
99105.839942156409961
99091.936794928100426
99082.187802557411487
99079.280300754704513
99082.7957586436969
99089.834381802967982
99097.219716979496297
99102.74157268491399
99106.084489491899149
99108.957755394265405
99113.495699673730996
99120.613769340212457
99129.566410023748176
99139.134476026389166
99148.602973880639183
99157.899369881051825
99168.196585944708204
99180.915297315063071
99195.584202350291889
99211.718766350473743
99226.860299358551856
99238.175891394392238
99242.330398179139593
99236.345905375201255
99219.926170070262742
99195.874375694300397
99169.978290567552904
99149.514694534271257
99139.761890964655322
99142.229129516374087
99154.024760467436863
99168.62924475298496
99179.317698173370445
99183.325083956326125
99181.621064826787915
99177.849628851065063
99175.789869921165518
99177.05908822308993
99180.145076835877262
99181.925250228727236
99179.448481512707076
99171.63023065746529
99160.532436658540973
99150.387220705975778
99145.758485858619679
99149.87688956373313
99162.951615918296739
99182.23336977737199
99202.064719374960987
99216.638784163282253
99222.030014529562322
99217.706516784499399
99206.560033821864636
99193.230431800839142
99181.902582501847064
99174.581928066007094
99170.688702182262205
99168.098950197396334
99165.101773411399336
99161.97621096218063
99161.360066326407832
99166.409216225380078
99179.01270734424179
99198.20784206976532
99219.504316336795455
99237.215710999502335
99246.098974851091043
99243.904359321109951
99231.706347144398023
99213.813907073621522
99195.743311737955082
99181.941383737270371
99174.64426659802848
99173.85335887518886
99177.656946928924299
99183.089782689829008
99187.556383477902273
99189.540578214262496
99188.666620980802691
99185.52152839655173
99181.16675555765687
99176.410106607872876
99171.639769217581488
99166.207164669991471
99159.02455399504106
99149.171950721080066
99136.226827223115833
99120.724183970422018
99104.387336412662989
99089.898049093666486
99079.677489850888378
99075.724979464968783
99078.414492435840657
99086.989671894174535
99099.470413436647505
99113.435200739855645
99126.61808523783111
99137.268185005857958
99143.982137874423643
99146.485726015205728
99145.077383339201333
99141.041080056180363
99135.589189271180658
99130.940495350281708
99128.542773225839483
99129.376302169475821
99133.157858029488125
99138.596819957339903
99143.461255718182656
99145.401315402181353
99142.230008226353675
99133.543686480974429
99120.451093031966593
99105.260580991453025
99090.701807214616565
99079.429296279049595
99072.837878664780874
99071.103543290606467
99073.483837944761035
99078.657241231601802
99085.556534282222856
99093.271231615886791
99101.152200240525417
99108.219819646328688
99113.42835510931036
99115.135785171863972
99111.722474001318915
99102.508524311866495
99088.165036583828623
99071.50780764578667
99056.472627831084537
99047.400168097839924
99047.278121513387305
99056.761315419906168
99073.99949337162252
99094.88798955072707
99114.274609121086542
99127.841765654462506
99132.92824775876943
99129.584198034615838
99120.165095566670061
99108.089754192580585
99096.947736369431368
99089.482473224081332
99087.166482136759441
99090.058339742841781
99097.24333865425433
99107.339085403931676
99118.794580087691429
99130.420402532297885
99141.476594755396945
99151.48589305774658
99160.184024625748862
99167.314586660431814
99172.447830449513276
99175.03132906020619
99174.890410791151226
99172.250762015624787
99167.901584441438899
99163.154226847706013
99159.531867721496383
99158.287811596499523
99160.041499220300466
99164.602686003388953
99171.030092408807832
99178.158155334749608
99184.736268257533084
99189.787540758115938
99192.905356502989889
99193.98554630234139
99193.76853594876593
99193.048751355483546
99193.056729690884822
99195.071245087194256
99199.726822693293798
99207.547966162412195
99219.004901089647319
99233.805269312870223
99250.769686038038344
99268.327799123027944
99284.794058262050385
99298.355632333274116
99307.295256579905981
99310.650563730596332
99308.268901119401562
99300.779210770371719
99289.350942389966804
99275.34116853728483
99260.116583718525362
99244.711642628346453
99229.999171445902903
99216.382584516089992
99204.041919655035599
99192.848903601639904
99183.315102023247164
99176.241799668772728
99172.566308897716226
99173.316920656783623
99179.067964315996505
99189.724163405713625
99204.277959537110291
99220.432982850747067
99235.614148757362273
99246.996737050620141
99252.668126716700499
99251.721829667105339
99244.95665175288741
99234.402802204567706
99222.580681524093961
99212.077301977595198
99204.639036531472811
99200.602026054693852
99199.028903106009238
99198.059495540568605
99195.527524050572538
99189.700918602989987
99179.898353832424618
99166.834282350275316
99152.340495875891065
99139.008422805083683
99129.532107511156937
99126.109462718217401
99129.903544061919092
99140.886740027766791
99157.897699325665599
99178.873538102780003
99200.910908454490709
99221.316076512404834
99237.570947343483567
99247.856874618504662
99251.934853214697796
99250.102632970927516
99243.539816854914534
99233.62970594043145
99221.708500662760343
99209.260904327355092
99197.500844302063342
99187.318267570328317
99179.366185335311457
99174.10662735743972
99171.926487964869011
99173.14287018313189
99177.97040184927755
99186.408256691749557
99198.126410468234099
99212.323710585333174
98678.076076712604845
98686.183035096386448
98508.325540494042798
98476.733611602030578
98698.279098924569553
98857.536332632153062
98803.754349679569714
98782.04500881957938
98843.156143442873145
98845.634804597662878
98875.701228549776715
98904.859141272827401
98888.399857573138434
98845.400238334143069
98769.11886301827326
98736.536507559751044
98797.189489031981793
98849.020055357235833
98857.324880531799863
98897.744260354782455
98980.647370098595275
99034.351090777519858
99033.990487230068538
99006.510470327382791
98960.073833128015394
98899.255947779951384
98853.912821910402272
98841.262643050184124
98850.0415451341687
98844.407913306175033
98839.743838435140788
98871.799790834003943
98935.332796192495152
98988.893812046691892
99012.901585395695292
99026.560950291081099
99043.360353484633379
99055.714235175575595
99057.47984732707846
99040.572906162036816
98989.749676234321669
98907.492057355164434
98854.453321746477741
98872.16985761882097
98937.046060636392212
98987.400243002994102
99002.001401395827997
98991.207018340181094
98974.426257141749375
98960.850449523568386
98961.860001692039077
98986.650882235597237
99029.464906128850998
99072.439912417568848
99099.336376338789705
99114.743818819362787
99127.152243564385572
99131.110401515543344
99117.924939468401135
99092.029671629556105
99068.048299902788131
99043.040138909127563
99008.431501852537622
98965.773628922048374
98932.281968130453606
98910.542604042551829
98898.170314692004467
98888.298395391611848
98880.457693480348098
98879.942450304719387
98881.305421698940336
98876.946626962395385
98871.481662182966829
98874.463449806993594
98885.787947767952573
98894.568838312101434
98894.549928051594179
98887.706635114198434
98880.894983224396128
98876.371505537899793
98867.27483732572
98850.068775911669945
98821.543889460052014
98795.761229423005716
98779.835433398111491
98793.77690257060749
98841.653416912755347
98910.828002305235714
98979.754924439534079
99023.148757843810017
99026.566652334338869
98999.025893495723722
98961.264358817206812
98932.229388766369084
98916.928746861027321
98913.054125266542542
98914.646054424971226
98919.066668184139417
98925.383727173015359
98929.505439722342999
98926.35223072062945
98911.427283061100752
98890.060191558746737
98878.925528082530946
98889.836472833223525
98916.586826985512744
98941.12739287338627
98949.97003961057635
98945.115836121578468
98940.417708054577815
98947.139525105812936
98963.312807553971652
98978.19220514659537
98983.485100184770999
98976.114268952107523
98957.715152579272399
98932.877958165467135
98910.209902996910387
98897.655865965367411
98896.99550482549239
98904.521661808903445
98915.233808710021549
98928.09507917216979
98942.228624049559585
98955.079738666725461
98960.741353024495766
98957.227861655075685
98951.15665768670442
98953.029091427510139
98968.26677750624367
98994.405282567866379
99022.521295688638929
99042.10823333018925
99046.388860397346434
99037.403284515530686
99025.102624428356648
99020.512937729115947
99026.434740243639681
99034.391433950222563
99030.707099692866905
99008.986176660371711
98974.94967987218115
98942.326278738080873
98922.166345343648572
98917.877833737860783
98925.534131610183977
98939.813177748103044
98957.280764671828365
98972.319604406642611
98979.300242983255885
98975.18393745389767
98960.765111977860215
98940.745117965983809
98921.90138298063539
98909.599681172810961
98908.078016410974669
98918.949145610502455
98939.247099887026707
98962.496286470282939
98980.135831775638508
98985.360611441428773
98978.044887011667015
98961.941158824352897
98942.969697103602812
98926.184405854364741
98912.268000285170274
98900.166734417944099
98888.790363059117226
98879.320899889207794
98874.70777971908683
98880.801783652757877
98901.861967513570562
98937.250168790153111
98980.158377177111106
99020.187657431917614
99047.210236984043149
99055.824108746484853
99049.613687834062148
99038.018207279033959
99030.574449929743423
99031.532432585998322
99038.706282206097967
99046.682265643423307
99051.483469932718435
99053.039421128647518
99053.078028564603301
99052.696524353974382
99050.211062692149426
99043.526169364893576
99142.398682879342232
99138.444129232375417
99128.723835739918286
99117.636210125783691
99109.823345711134607
99106.812013564689551
99106.885433705348987
99106.435223959051655
99102.124421690983581
99093.545087054139003
99082.942134611526853
99074.523105401269277
99072.049723493677448
99077.015255417951266
99088.335843529610429
99101.783505066603539
99113.593039094936103
99121.256343206987367
99124.734996689192485
99126.167783627737663
99128.081059462885605
99131.572877990154666
99136.446051130784326
99142.04583998855378
99148.510923004942015
99156.346452074692934
99166.390404090721859
99178.947932491908432
99193.094666065007914
99206.777979855236481
99216.598089820909081
99219.439416636509122
99213.441406793281203
99198.964373430804699
99179.555421937227948
99160.240786273468984
99146.828049395960988
99143.065426715620561
99148.975613234666525
99160.478070611323346
99171.368603128197719
99176.505173319630558
99174.83449600552558
99168.774975345659186
99162.395667746997788
99159.178377088610432
99160.17384186401614
99163.534706720412942
99165.622638560205814
99162.927761353945243
99154.192948727897601
99141.70654247571656
99130.511314254967147
99125.563476735449512
99130.762357889791019
99146.143729482035269
99168.021347599991714
99190.929884595214389
99207.873218980501406
99215.079969817932579
99211.726433349598665
99200.518517997988965
99186.074266279363655
99172.376349785423372
99161.322656475225813
99152.914300269447267
99146.046268112680991
99140.060858200347866
99135.572669855260756
99134.950499688551645
99141.247503713151673
99155.827550188681926
99176.913338752492564
99200.02353741164552
99218.835787123025511
99228.196692339945002
99226.161901489540469
99214.462630505964626
99197.27120619895868
99179.607072012047865
99165.464236041269032
99156.605782539481879
99152.544246474149986
99151.79059774185589
99152.82219270724454
99154.60228659157292
99156.889139880469884
99159.629795378088602
99162.975766071962425
99166.146865883551072
99168.198637211957248
99167.566427142446628
99162.685611819237238
99152.591100697303773
99137.157862754538655
99117.418180188076803
99095.704603466307162
99075.433713658858323
99059.812521548214136
99051.504314992373111
99051.940293161154841
99060.913329421498929
99076.374632292907336
99095.243545838646241
99114.374067495111376
99131.130003267942811
99143.702871490924736
99151.339387816551607
99154.051348386507016
99152.45173400209751
99147.8939400378149
99141.928202737966785
99136.472269751073327
99133.421500305703375
99133.744596698830719
99137.312473105484969
99142.767327145091258
99147.525099326347117
99148.935191268450581
99144.191228037787369
99132.529831865627784
99115.199550254284986
99095.089626079730806
99075.995596376465983
99061.450561370686046
99053.757597236879519
99053.440163856139407
99059.095444214806776
99068.284529624055722
99078.586125066969544
99088.185954983229749
99095.810574529925361
99100.757108916819561
99102.383063221379416
99099.734340202412568
99092.14657289472234
99079.584080758766504
99063.187994196516229
99045.75142125680577
99031.158017662717612
99023.372369950622669
99025.172197062638588
99036.824226449200069
99056.150269878271502
99079.106640628175228
99100.40027947750059
99115.765592203228152
99122.360475031062379
99120.350976236353745
99111.615372684347676
99099.595505496632541
99087.708403421987896
99078.615269863425056
99073.951854043989442
99074.032744665120845
99078.237738389711012
99085.611467564129271
99094.937844335887348
99105.462707802740624
99116.780096928225248
99128.31835709666484
99139.539384073956171
99149.481636913333205
99157.309234477885184
99162.076683146500727
99163.433024036537972
99161.687657720642164
99157.920044471509755
99153.785408732685028
99150.668888748448808
99149.597880365356104
99150.790676630786038
99153.548347447358537
99156.705066422146047
99159.281441153056221
99160.91090047963371
99161.902047005438362
99162.752644016291015
99164.133312745863805
99166.684166114559048
99170.992508419440128
99177.400210347288521
99185.849439773170161
99196.175584002907271
99208.101636859224527
99221.455437896904186
99236.155427626275923
99251.869639450087561
99267.880019039890612
99283.249741717299912
99296.681513308387366
99306.793827076980961
99312.533858463750221
99313.133109281247016
99308.483431962566101
99298.954020844728802
99285.612789576538489
99269.876015941335936
99253.172356632727315
99236.871465611315216
99221.794682394800475
99208.706543848020374
99197.785396543011302
99189.366237527952762
99184.090217191725969
99182.432657596626086
99184.922935237947968
99191.977782974150614
99203.358824117312906
99218.120843769705971
99234.410221089870902
99249.641971999852103
99261.433964066804037
99267.618123496678891
99267.532450787228299
99261.507085167584592
99251.164379343419569
99238.861979446955957
99226.806223174062325
99216.564257180318236
99208.691607220171136
99202.632401612150716
99197.029216121169156
99190.412910146333161
99181.531144157037488
99169.984175419347594
99156.549306090673781
99143.04117861596751
99131.688492157089058
99124.598745658047847
99123.4494623488863
99128.882210390162072
99140.548584438191028
99157.24709492828697
99177.140963866666425
99198.095598317668191
99217.566160482499981
99233.627173080531065
99244.653082036253181
99249.953184743688325
99249.362601200875361
99243.668019954522606
99233.852699008130003
99221.261963085795287
99207.302780183381401
99193.138335749143152
99179.915221366492915
99168.745584673684789
99160.396323665612726
99155.305030405928846
99153.797583260704414
99156.128286703547928
99162.362971757800551
99172.159115561516955
99184.772414889361244
99199.062176450825064
98943.910373517006519
98858.458571026945719
98833.298462453531101
98856.005788703318103
98924.580779635347426
99029.833174427432823
99014.915560740584624
98982.228124990186188
98932.536769354468561