/*--------------------------------*- C++ -*----------------------------------*\
  =========                 |
  \\      /  F ield         | OpenFOAM: The Open Source CFD Toolbox
   \\    /   O peration     | Website:  https://openfoam.org
    \\  /    A nd           | Version:  12
     \\/     M anipulation  |
\*---------------------------------------------------------------------------*/
FoamFile
{
    format      ascii;
    class       volScalarField;
    location    "0.0165";
    object      p_0;
}
// * * * * * * * * * * * * * * * * * * * * * * * * * * * * * * * * * * * * * //

dimensions      [1 -1 -2 0 0 0 0];

internalField   nonuniform List<scalar> 
75962
(
98495.722751657507615
98601.556953046834678
98741.797387366765179
98849.047075513590244
98887.20358061567822
98808.256390718684997
98662.02331965182384
98665.229208131087944
98796.698274301423226
98903.237402755155927
98901.670618947435287
98786.719395483291009
98673.704609670559876
98698.76897585648112
98822.505148724347237
98937.976233730878448
98989.967168887742446
98958.734506805543788
98908.11593739077216
98926.305141734555946
98988.639546663558576
98995.322872969569289
98928.934461537399329
98861.719328435807256
98832.550309407175519
98830.20319265271246
98838.744708498576074
98853.148368263602606
98863.393199652127805
98880.637479218567023
98910.304610594190308
98929.581297649390763
98917.108927441862761
98882.562595326235169
98861.054484253822011
98868.918379961498431
98887.808687108874437
98894.494964309196803
98887.041115336745861
98881.912805690575624
98876.933952598003088
98874.029714224379859
98877.710887680004817
98882.626894861212349
98877.913721496428479
98877.603013982283301
98885.020763224805705
98892.42185520035855
98899.77939741605951
98913.835269181290641
98932.238244540450978
98954.372516852963599
98987.446659725756035
99033.444062054564711
99071.738841184676858
99081.430573612931767
99071.249611370265484
99056.140196805907181
99047.501282096942305
99047.096497806356638
99054.601923772293958
99067.513006248671445
99076.526440661735251
99074.784442501928424
99053.563800272720982
99014.435250898925005
98962.097702200087951
98918.46908758218342
98910.32690847752383
98932.832416341159842
98950.502957342308946
98934.269479752023472
98891.224135176191339
98851.995935851504328
98829.531524419668131
98814.239545166026801
98798.700309802894481
98794.645384107265272
98816.843347274087137
98854.82982441947388
98879.819110444746912
98872.801078684118693
98845.925325064265053
98819.367969447324867
98812.729989151121117
98824.362949323345674
98852.180389791596099
98886.175975063291844
98911.023865335344453
98917.129952159812092
98913.129138578107813
98914.522296363880741
98925.204896244613337
98930.687653780172695
98920.851836616246146
98900.385724590232712
98885.352084703292348
98885.674308922258206
98897.057388391011045
98909.755558834920521
98915.254766749727423
98909.726113126293058
98895.087566954636713
98876.346214940102072
98859.894050739283557
98849.669566242882865
98844.606240741690272
98846.060729151591659
98858.533574767308892
98881.268835414171917
98904.968023632507538
98919.034848858282203
98921.880631456966512
98919.677667487456347
98918.616714914969634
98916.929645044612698
98910.743109410759644
98900.812287864217069
98891.897626527599641
98889.601149868627544
98894.46380662304
98904.232553028428811
98916.430435555579606
98928.620962627159315
98938.183142430789303
98943.180447263046517
98945.298351829187595
98950.927916397762601
98968.073321252159076
98998.889784256491112
99036.068043137653149
99066.125869158306159
99076.308924790952005
99062.895363630901556
99034.130272389564198
99007.207016020853189
98996.676132417473127
99004.735919461352751
99018.810468189432868
99020.851808153078309
99000.491445910389302
98962.557977273798315
98920.060146067175083
98886.060167878007633
98866.348685556033161
98861.820293955053785
98870.568166810044204
98890.348447666270658
98916.918201109670918
98941.624510229536099
98956.311432029498974
98958.25739295045787
98951.324875592283206
98942.44697738722607
98937.970231589031755
98939.92450766528782
98947.264664914298919
98957.604480349153164
98969.567592274062918
98981.151077898830408
98991.817458451681887
98998.910603961179731
98999.822648145447602
98993.160775257507339
98979.35322108087712
98961.733158931616344
98944.645342362986412
98930.914044884309988
98922.138411389067187
98918.95654048693541
98920.9027706538036
98927.679485335451318
98939.149422897680779
98955.144695785231306
98974.853358011212549
98997.33071004365047
99021.378879553769366
99044.906271077299607
99065.401174940401688
99080.234979701010161
99087.153422564690118
99085.155875737036695
99074.927339425485115
99059.325262364480295
99042.18888687810977
99027.595794160151854
99019.288018451377866
99019.035983215508168
99118.750937396020163
99118.412598358874675
99121.62706978431379
99129.164807666980778
99138.338151676172856
99144.573949628058472
99143.461434730095789
99134.29113256643177
99120.017049315181794
99105.580963655855157
99095.4483759142895
99091.468558187742019
99091.969652336541913
99093.917951036957675
99095.144743348413613
99095.370190262969118
99095.939513250239543
99099.271948980080197
99106.637126414832892
99117.327266862543183
99129.37013989702973
99140.967636237925035
99151.60375453758752
99162.203541099108406
99174.157590569186141
99188.193436435845797
99204.475630956832902
99221.929038406102336
99238.023336951286183
99250.582363384819473
99255.860137657320593
99251.039262440637685
99234.567803107725922
99208.384852617105935
99178.199949717294658
99151.646141585544683
99135.776522940577706
99133.217684527306119
99141.755910850013606
99156.021846342380741
99169.518685852337512
99178.369996163077303
99182.175776947668055
99183.46351086969662
99185.379341554187704
99189.154298701003427
99193.400730207562447
99195.536849023643299
99193.453333817786188
99186.987279880049755
99178.372483569037286
99170.81784197120578
99167.953123230152414
99171.998325130422018
99182.891712575918064
99197.877128358552
99212.148015233178739
99221.513276246550959
99222.98287794116186
99216.857184591091936
99206.288031271615182
99195.52512093349651
99188.351728100344189
99186.174722985117114
99187.355512518581236
99188.919662971093203
99188.705086667570868
99186.791610115818912
99185.683422149595572
99188.681767280577333
99197.877729672560235
99212.582883604452945
99229.469071576269926
99243.713448662572773
99250.901685773424106
99248.871883574931417
99238.556664285599254
99223.785219627912738
99209.222164880789933
99198.83416835530079
99194.859908778351382
99197.102048541157274
99203.34812175569823
99210.320520120760193
99214.750509645455168
99214.496123612218071
99209.127689986911719
99199.584532979206415
99188.484573205132619
99177.914497119607404
99169.582904587470694
99163.884769723837962
99159.789268357795663
99155.727330199006246
99150.136370142892702
99142.183486230074777
99132.176993573477375
99121.135351747579989
99111.306219042831799
99104.518082932758261
99101.871811705103028
99103.663691789959557
99109.294731339949067
99117.371164069452789
99126.112115349576925
99133.76986061068601
99138.841520038011367
99140.451716929877875
99138.664553406997584
99134.185155138649861
99128.508849873585859
99123.597902854133281
99120.775373002848937
99121.150586125513655
99124.559552421036642
99129.781352319158032
99135.061359195489786
99138.107706520866486
99137.619282779603964
99133.257737744541373
99125.776874699324253
99116.394949872439611
99106.924971619795542
99098.805258164298721
99092.621689637599047
99088.455710787398857
99086.334132922056597
99086.39043095841771
99088.984956887332373
99094.343193547058036
99102.338577333808644
99111.933375442677061
99121.198171877054847
99127.731184352684068
99129.163150848718942
99124.166969323792728
99113.174801930290414
99098.549494195161969
99084.229609810499824
99074.381726767474902
99072.043795319710625
99078.249685310875066
99091.631220716430107
99108.134284356114222
99123.688417443350772
99133.756197943032021
99136.480529900014517
99131.888206230767537
99122.344511165181757
99111.165317343722563
99101.723844080363051
99096.765138855655096
99097.435948644633754
99103.566257771599339
99114.039797239311156
99127.052346383643453
99140.794211183732841
99153.715586919148336
99164.720513483014656
99173.468691333691822
99179.891597146677668
99184.273070885363268
99186.655991243722383
99187.105802403326379
99185.593595828351681
99182.354725116470945
99177.904067121446133
99173.321422006425564
99169.902534081295016
99168.903230183772394
99171.276309608088923
99177.081921922610491
99185.791268202403444
99195.900978272111388
99205.638901488797273
99213.113117091823369
99216.954712430990185
99216.683902709017275
99212.91069966572104
99207.239554185056477
99201.501205535241752
99198.003301120450487
99198.549773748061853
99204.309823745687027
99215.622397046652623
99231.637729784852127
99250.372946840128861
99269.363275414856616
99286.062675289969775
99298.174914873423404
99304.235096210497431
99303.820675814989954
99297.632317717128899
99287.058620611423976
99273.820091731176944
99259.583433202788001
99245.458002173952991
99232.29609952501778
99220.12922459753463
99208.932883437024429
99198.265164350377745
99188.170089723469573
99178.990819444792578
99171.583663653917029
99167.197404369871947
99167.1336160578212
99172.058081446535653
99181.940625516144792
99195.464811935118632
99210.553891450123047
99224.346157496722299
99234.419735337840393
99238.888310903173988
99237.263633808499435
99230.303354116054834
99220.169392237468855
99209.525659708102467
99200.714149704217562
99195.386160706329974
99193.845674550349941
99194.943073509974056
99196.615670726037933
99196.531402098989929
99192.814149622325203
99184.698165724839782
99172.842977212712867
99159.161098031268921
99146.28656699853309
99136.968345075190882
99133.560072193795349
99137.359529719440616
99148.341009933967143
99165.208244702705997
99185.45992624538485
99206.184308762996807
99224.560293905771687
99238.12204807762464
99245.889158347476041
99247.694841711272602
99244.547496607963694
99237.676003857282922
99228.749038468347862
99218.911289205323556
99209.376395234721713
99201.190798677416751
99194.931248048349516
99190.902000514310203
99189.33935747104988
99190.41001669121033
99194.286303332919488
99201.165755444249953
99211.072821801004466
99223.611588510204456
99237.703882317029638
98923.57446070019796
98899.729211886748089
98768.352774883926031
98754.024599673299235
98746.852147493686061
98618.853235884816968
98559.98408154626668
98696.888890080866986
98846.142601761544938
98895.717868112507858
98858.289730941105518
98764.152038576939958
98691.080689811366028
98714.588152654876467
98794.082528470244142
98878.928149361308897
98949.359051087347325
98949.272933835440199
98908.170275988348294
98929.621311437760596
98999.401177553460002
99020.769211307662772
98969.409867200549343
98902.779028669610852
98865.861392251521465
98847.613978667650372
98835.029149726426112
98831.46751744269568
98833.96428606302652
98835.781975462945411
98857.265718386654044
98900.600486407391145
98933.537049853257486
98937.644786330507486
98931.53193621437822
98940.400348569193739
98961.718847705109511
98976.101392603624845
98979.75941376449191
98973.229702670927509
98939.946559286443517
98882.164793140953407
98834.676540743210353
98832.92334682661749
98870.429879273011466
98915.518070751451887
98933.277771761902841
98928.880808748770505
98924.544375556433806
98933.12486901532975
98956.444655621104175
98988.659915158554213
99030.704832514500595
99072.124095782084623
99100.047378815565025
99110.937771064302069
99110.091625813744031
99105.094976730135386
99093.802731603675056
99080.6354562365741
99073.882182333574747
99068.397066811390687
99051.473489980795421
99021.856124924743199
98988.27996721501404
98953.299203239643248
98918.183138745909673
98894.240007740416331
98893.093391913658706
98909.928023754182504
98921.467987048221403
98909.005884914615308
98880.774750179160037
98858.637701603904134
98849.830776303089806
98846.330751701651025
98842.421045472408878
98845.09968990458583
98859.633817864436423
98875.863478934712475
98877.966122081328649
98860.818881282568327
98831.516443060972961
98805.797523377172183
98791.35832861988456
98797.305981366997003
98831.47869217787229
98886.439556177821942
98939.882896570517914
98971.420894948067144
98977.057973685819888
98967.631500271643745
98954.255713867285522
98939.961896543361945
98923.918524557389901
98908.030238746636314
98898.421469644599711
98897.819585592995281
98904.625232936828979
98913.029905870746006
98915.824855413840851
98905.75894754564797
98886.997224964259658
98869.487882359113428
98865.786755235982127
98875.329327513507451
98887.847134220966836
98896.81070904029184
98904.813282639355748
98917.131842183327535
98933.197974742724909
98947.440093524448457
98954.639497888550977
98955.304516781601706
98949.948845555045409
98937.692467209359165
98919.968412235626602
98902.38061910153192
98891.148114202645957
98890.024678013680386
98897.26951596084109
98908.566805922353524
98921.412433500707266
98934.493842535157455
98944.645929320802679
98947.469018845338724
98944.739637864375254
98943.760553726693615
98954.633409122747253
98981.594709151642746
99018.419725055980962
99051.398211868829094
99066.656083473542822
99058.676275962483487
99035.549020722188288
99013.410809930850519
99005.948142897861544
99016.114353214550647
99031.295159818575485
99033.434619279345497
99012.419987536690314
98973.520174137956928
98932.201980332873063
98901.373511519792373
98887.705226975434925
98889.581655248897732
98903.335472878141445
98925.938996395096183
98950.970547360222554
98968.711671631725039
98972.89372486481443
98963.587558582017664
98946.688687688540085
98930.632015952316578
98921.252797374021611
98920.829101255527348
98929.32851924028364
98943.872219983881223
98960.571484795844299
98974.977171407372225
98983.860553692167741
98985.45205117147998
98979.608841452165507
98968.245823062388808
98953.521199471841101
98937.378735849721124
98922.178325066939578
98908.677236950330553
98898.975305711282999
98894.652774958798545
98898.207162383681862
98911.884449834877159
98935.403961534466362
98965.420947497754241
98996.389257247807109
99022.468947953442694
99039.710540065425448
99048.481625678861747
99052.319762428029208
99055.508055283440626
99059.169425584172131
99061.834341976253199
99060.526234723380185
99054.105926582880784
99044.756798161062761
99035.848839787140605
99030.664469840150559
99030.104024138490786
99032.247352524194866
99130.54686483705882
99128.544684556109132
99124.499371140409494
99122.061232356136316
99123.348968222635449
99127.407858467806363
99130.295176007872215
99128.038899610895896
99119.020821272730245
99105.47565486766689
99091.642727361409925
99082.116445769264828
99079.469470725394785
99083.170989161066245
99090.252213046042016
99097.572248122727615
99102.975951441330835
99106.241850133112166
99109.132975654822076
99113.760770839508041
99120.971932970991475
99129.980036488661426
99139.553048225978273
99149.004046049099998
99158.314532062839135
99168.640541087646852
99181.420689855498495
99196.129535177795333
99212.218477214075392
99227.220351622629096
99238.256907827366376
99242.025995479765697
99235.59508460071811
99218.792606533679646
99194.550721101084491
99168.760510111125768
99148.680190044236952
99139.448927113829996
99142.402941048159846
99154.466465437537408
99169.050982938919333
99179.492005030944711
99183.210233471938409
99181.31631096554338
99177.520792077091755
99175.557304006506456
99176.915878261614125
99179.98319388384698
99181.606041370541789
99178.886560598548385
99170.860258531974978
99159.712794462146121
99149.721678603731561
99145.413670820955303
99149.936804261509678
99163.350728446268477
99182.774104504671413
99202.508552739644074
99216.763004650551011
99221.748050247013452
99217.073591420601588
99205.750006934031262
99192.437825088316458
99181.264089448784944
99174.128599084098823
99170.363969836180331
99167.828300853347173
99164.847433400573209
99161.809211645420874
99161.409271974727744
99166.780352475238033
99179.711678003222914
99199.098287533706753
99220.33709368322161
99237.726570304497727
99246.111555975323427
99243.405828402464977
99230.825441634922754
99212.795578313220176
99194.825871177425142
99181.30056764294568
99174.331143185205292
99173.818522099798429
99177.788444614678156
99183.243424928528839
99187.61763424766832
99189.458973180284374
99188.441379012132529
99185.204608722124249
99180.80104995961301
99176.029426912296913
99171.241072771183099
99165.743724798376206
99158.453613912803121
99148.46233782597119
99135.384531071787933
99119.808050981824636
99103.50854853495548
99089.183351748433779
99079.24773661569634
99075.640668754305807
99078.657370263361372
99087.484585571393836
99100.096795230405405
99114.07260004687123
99127.17059048775991
99137.670812738942914
99144.212991535561741
99146.568961098120781
99145.050049349316396
99140.974950228774105
99135.54631108418107
99130.996580347389681
99128.713861827040091
99129.652232522479608
99133.486938688351074
99138.895315812231274
99143.627679331562831
99145.340225225358154
99141.896230764163192
99132.983356014767196
99119.765175597232883
99104.573432920573396
99090.140660455566831
99079.088693305835477
99072.750161076488439
99071.230317031309824
99073.7576694170275
99079.00514847857994
99085.909514932660386
99093.5818095337454
99101.382479628780857
99108.325941494011204
99113.359330450359266
99114.83143193165597
99111.140346840285929
99101.662653573264834
99087.150583362017642
99070.490210503936396
99055.659982950572157
99046.954204908703105
99047.27420626548701
99057.152451915404527
99074.62328013071965
99095.514970369666116
99114.657096592476591
99127.821473074145615
99132.450921776748146
99128.719959506808664
99119.06191047775792
99106.927992525539594
99095.886719962116331
99088.630163427020307
99086.55615663700155
99089.660087435346213
99096.994140344730113
99107.164263020735234
99118.630883864039788
99130.229208569784532
99141.2430586610717
99151.21102524107846
99159.87586945714429
99166.971132790436968
99172.051623580977321
99174.565106035239296
99174.345434582952294
99171.643685164235649
99167.269558414933272
99162.560359223454725
99159.039339473616565
99157.942059846056509
99159.862095331656747
99164.572555001985165
99171.098404522126657
99178.277417079429142
99184.847457992451382
99189.858529491059016
99192.912343786505517
99193.936389085880364
99193.69560653057124
99192.994151830018382
99193.082092604789068
99195.232390299308463
99200.068000496787135
99208.105852850203519
99219.786638037330704
99234.77460344247811
99251.863119093191926
99269.462216923508095
99285.867979684582679
99299.269755568544497
99307.969019807118457
99311.036428295075893
99308.368785829778062
99300.625803498434834
99288.998635660333093
99274.852058611199027
99259.565355288243154
99244.164972328959266
99229.507523908483563
99215.967934343323577
99203.720618124250905
99192.629819648864213
99183.235100044985302
99176.346426831820281
99172.916387916455278
99173.956195765305893
99180.007708376419032
99190.920495689439122
99205.627050157854683
99221.7832196092495
99236.807218141286285
99247.896935091586784
99253.202102026538341
99251.887007756755338
99244.834724599742913
99234.113652381071006
99222.261953057706705
99211.839489135192707
99204.529699713501032
99200.59800559017458
99199.049339660108672
99197.992498074701871
99195.265529666721704
99189.181859221658669
99179.131631329088123
99165.904839036535122
99151.385141773265786
99138.186188900057459
99128.996774885803461
99125.973035783725209
99130.20594361507392
99141.58932454076421
99158.894895731194993
99180.02034121620818
99202.048624010305502
99222.277801624557469
99238.258176828283467
99248.187140447291313
99251.902396841265727
99249.727736945205834
99242.901656033660402
99232.798034516512416
99220.774091956962366
99208.314342926329118
99196.602970327963703
99186.512707010362647
99178.692366943068919
99173.594183608351159
99171.598992399653071
99173.020791127841221
99178.063819818824413
99186.709801079035969
99198.598007936903741
99212.892862901440822
98660.316969208870432
98678.56280426120793
98500.800746633176459
98477.702367992693326
98704.146081258106278
98858.220924532142817
98801.422021028323798
98782.555698042939184
98844.144603958207881
98846.238081740157213
98877.338721415464533
98905.064851771632675
98887.103827412560349
98842.849946350601385
98766.283460866412497
98736.653232590149855
98799.349890097204479
98850.155295208038297
98858.388636421586853
98900.404189071341534
98983.559689582703868
99035.852918451215373
99033.955406030232552
99005.80568335436692
98958.591331095900387
98897.646287543844664
98852.95894921697618
98841.428494126652367
98850.393206454347819
98844.624861986201722
98840.802151235664496
98874.221571799498633
98938.076703107755748
98990.846460770539124
99014.011816047117463
99027.406399670551764
99044.044886792296893
99055.989784140561824
99057.097298587337718
99039.302639522560639
98987.269191044062609
98905.066603059560293
98854.066379632495227
98874.056794766074745
98939.507293276736164
98988.869049556116806
99002.342760405197623
98991.005032875851612
98974.176144223994925
98960.91067209430912
98962.467932714062044
98987.958950375585118
99030.9905936934083
99073.585448678350076
99099.939825687295524
99115.09548070699384
99127.259065838938113
99130.659666974985157
99116.842771510506282
99090.706256983394269
99066.766618605819531
99041.555108987857238
99006.698552045432734
98964.174657211551676
98931.269682189333253
98910.061878379769041
98897.999033886226243
98888.217962368871667
98880.51437998113397
98880.202301018784055
98881.567605623378768
98877.124338670939323
98871.880154758211575
98875.290264257419039
98886.800984104018426
98895.426050304769888
98895.109693413047353
98887.997031633451115
98881.018368610399193
98876.338433023585822
98866.955573932966217
98849.418889617329114
98820.783657861320535
98795.181450542615494
98779.991393581440207
98795.159526665418525
98844.098201831657207
98913.721405439137015
98982.220018692853046
99024.390744852033095
99026.437086157617159
98998.04845806483354
98960.145936702770996
98931.428433167486219
98916.530666661259602
98912.91788350144634
98914.626066637560143
98919.102451707411092
98925.41963393361948
98929.374572975488263
98925.848936228561797
98910.617719002213562
98889.31734203537053
98878.837381684701541
98890.50744271404983
98917.555101859063143
98941.768630901075085
98950.036117107287282
98944.887161619379185
98940.38047288726375
98947.485229314173921
98963.784249618867761
98978.425963022571523
98983.240992040402489
98975.36893601421616
98956.592169031384401
98931.630625328718452
98909.19741710992821
98897.077602858946193
98896.816458707427955
98904.557678718570969
98915.39048402570188
98928.331105000834214
98942.521919721752056
98955.272958686313359
98960.692971562937601
98957.064962470467435
98951.188067256938666
98953.547449726422201
98969.317482513157302
98995.727031291156891
99023.729044511695975
99042.875654004979879
99046.627927337991423
99037.343421864701668
99025.170677328627789
99020.985901268650196
99027.188585787138436
99034.992661242533359
99030.741465760889696
99008.434218011389021
98974.169905530288815
98941.78759398823604
98922.101412973104743
98918.306000504700933
98926.240813045107643
98940.644509357574861
98958.055152425265987
98972.812206830916693
98979.350484758106177
98974.778212056087796
98960.047340311866719
98939.959731776834815
98921.298143004838494
98909.378153241646942
98908.320742149007856
98919.636807967122877
98940.194095063910936
98963.380002513004001
98980.65302012207394
98985.382671338215005
98977.645885255435132
98961.320657258052961
98942.347714206873206
98925.681445243171765
98911.867902114652679
98899.816296436707489
98888.511492767982418
98879.173230273299851
98874.856869660114171
98881.459709725328139
98903.099401237268467
98938.913459517701995
98981.906947922820109
99021.598890000619576
99047.957616120707826
99055.866040837878245
99049.231358284610906
99037.615304607810685
99030.433643255004426
99031.695280120839016
99039.02822788413323
99046.951873299709405
99051.621502409529057
99053.083554078024463
99053.090904531898559
99052.680829685850767
99050.063407581634237
99043.183794251322979
99142.799572209609323
99138.583586576613015
99128.725965935940621
99117.669635291604209
99109.994059737509815
99107.113505230750889
99107.209196853931644
99106.63321852478839
99102.124571415130049
99093.399196996222599
99082.786655865478679
99074.522853920003399
99072.326734130168916
99077.550481254060287
99089.016092977311928
99102.420474008424208
99114.05897676027962
99121.500693644309649
99124.817715176614001
99126.202434900566004
99128.152874537641765
99131.707064260990592
99136.62561981449835
99142.250293059376418
99148.746247382834554
99156.639473396498943
99166.757143674782128
99179.377708888074267
99193.505895865368075
99207.052882919218973
99216.612016584302182
99219.10435317090014
99212.722426848369651
99197.974139301513787
99178.479942199410289
99159.319844149693381
99146.266175820899662
99142.939825441368157
99149.186418915502145
99160.785434448349406
99171.513842640502844
99176.346268821391277
99174.404747694177786
99168.218547642056365
99161.887065417089616
99158.820127751183463
99159.944769213456311
99163.309937315512798
99165.243925037066219
99162.296895827443223
99153.338304662349401
99140.800300589660765
99129.794705651904223
99125.223204103836906
99130.8578666994581
99146.627901518280851
99168.63866288724239
99191.421869200727087
99208.009052315566805
99214.763444368494675
99211.014488949600491
99199.581163675931748
99185.107150160954916
99171.503228910354665
99160.585223261688952
99152.293899279335164
99145.503410003482713
99139.591350487462478
99135.254921189552988
99134.911976000556024
99141.592450036274386
99156.544098495098297
99177.838894839718705
99200.889114997553406
99219.37236044286692
99228.225636262155604
99225.678045416178065
99213.606551905962988
99196.269831275087199
99178.691463503972045
99164.779640318723978
99156.186418742392561
99152.340743201290024
99151.730538562813308
99152.832550642895512
99154.640655216324376
99156.946252011213801
99159.695466234683408
99163.034748413585476
99166.161682565376395
99168.113301122997655
99167.309639617684297
99162.198465858280542
99151.849735099385725
99136.184583574460703
99116.306183776279795
99094.594205628949567
99074.489486629288876
99059.180405581719242
99051.290982417849591
99052.177797553697019
99061.536438051247387
99077.248968820509617
99096.198687588854227
99115.254803786039702
99131.829985253774794
99144.181418830863549
99151.589511238198611
99154.125201071889023
99152.405445644588326
99147.802615715234424
99141.865652862863499
99136.488134141545743
99133.567692752665607
99133.993933289704728
99137.621461472110241
99143.037398349930299
99147.637320609690505
99148.789491684074164
99143.721911350119626
99131.770684172064648
99114.275069295588764
99094.166922583070118
99075.244359802978579
99060.998847589027719
99053.661224419163773
99053.661375769414008
99059.516726903035305
99068.764723631335073
99079.010982936946675
99088.477192108752206
99095.924320008940413
99100.665540040106862
99102.068754183303099
99099.176480258349329
99091.344338397393585
99078.573921777817304
99062.074237915163394
99044.709169291512808
99030.371012252682704
99022.997634055180242
99025.269265901340987
99037.332497265990241
99056.888806826595101
99079.848905786697287
99100.901785807553097
99115.846212801916408
99121.965817780976067
99119.537021533804364
99110.522482710526674
99098.40546426322544
99086.568951443972765
99077.628187383306795
99073.169684962616884
99073.451005750292097
99077.807646328612464
99085.281872936044238
99094.673035352709121
99105.235998873133212
99116.588296005487791
99128.142883749038447
99139.356588048060075
99149.258267013021396
99157.004082944360562
99161.650404993197299
99162.885387574657216
99161.042849134129938
99157.242948329396313
99153.146343900109059
99150.126320117182331
99149.174795380458818
99150.475927269289969
99153.308594982110662
99156.492502479348332
99159.062331957000424
99160.685224886081414
99161.684868498719879
99162.582010245503625
99164.042990645641112
99166.700265919076628
99171.131682168226689
99177.661626771019655
99186.235108586333808
99196.683211918905727
99208.727061350218719
99222.197446690697689
99237.004701941245003
99252.804208649729844
99268.860298596671782
99284.211101822409546
99297.552645775474957
99307.501717263963656
99313.016682534682332
99313.349530560473795
99308.423288779784343
99298.64709537064482
99285.108200972434133
99269.25527936135768
99252.511851716059027
99236.249422479275381
99221.264041084141354
99208.308121076217503
99197.548053683844046
99189.322181705094408
99184.26277386934089
99182.852863675027038
99185.607621127695893
99192.921255115667009
99204.525041983230039
99219.422185849238303
99235.711653041900718
99250.800161830091383
99262.319962601075531
99268.163897717182408
99267.735293678153539
99261.413538214983419
99250.889075881408644
99238.52662703578244
99226.501061626768205
99216.333666834325413
99208.518109952448867
99202.452444588183425
99196.761075139249442
99189.979522202396765
99180.893094615646987
99169.155814391517197
99155.617993590451078
99142.135338472347939
99130.948975911043817
99124.139688892901177
99123.35169577311899
99129.171562103845645
99141.188250330887968
99158.142940428428119
99178.162252815352986
99199.104498483269708
99218.4402462082071
99234.261760237248382
99244.992499959233101
99249.968709322260111
99249.070823387621203
99243.103382212211727
99233.065478945311042
99220.326519526177435
99206.299635159142781
99192.143765938541037
99178.996086577782989
99167.952767035050783
99159.767625642954954
99154.867102068965323
99153.565578262496274
99156.104649411136052
99162.532102403623867
99172.487202088872436
99185.208713614032604
99199.535273117115139
98919.415721436569584
98856.272274654693319
98832.882039035786875
98857.451092341609183
98927.656431488852832
99030.947845756090828
99012.876214164483827
98979.984394496874302