/*--------------------------------*- C++ -*----------------------------------*\
  =========                 |
  \\      /  F ield         | OpenFOAM: The Open Source CFD Toolbox
   \\    /   O peration     | Website:  https://openfoam.org
    \\  /    A nd           | Version:  12
     \\/     M anipulation  |
\*---------------------------------------------------------------------------*/
FoamFile
{
    format      ascii;
    class       volScalarField;
    location    "0.0165";
    object      pMean;
}
// * * * * * * * * * * * * * * * * * * * * * * * * * * * * * * * * * * * * * //

dimensions      [1 -1 -2 0 0 0 0];

internalField   nonuniform List<scalar> 
75962
(
99680.487967622611905
99681.028685163735645
99680.737210050225258
99680.556897923364886
99680.460449156205868
99680.293301168072503
99680.080628971612896
99679.836550000720308
99679.541584264836274
99679.189299801422749
99678.784858149098
99678.354189025762025
99677.930208993071574
99677.510827479622094
99677.06584236267372
99676.584788336491329
99676.075579082651529
99675.556785560562275
99675.042648033224395
99674.525240108356229
99673.992369915518793
99673.448922950599808
99672.914549427601742
99672.397163689209265
99671.890538305116934
99671.388924728511483
99670.891192548559047
99670.39704393291322
99669.905527253591572
99669.415520829992602
99668.925262589575141
99668.434236158034764
99667.946413934434531
99667.466854803074966
99666.99529225761944
99666.527378535742173
99666.060306948769721
99665.598481394117698
99665.145529428307782
99664.70128149309312
99664.264709282520926
99663.8359023763187
99663.41377235960681
99662.997861156225554
99662.587982057433692
99662.186779319934431
99661.791248977431678
99661.399381422699662
99661.012301090173423
99660.630436229082989
99660.252626202927786
99659.878114545586868
99659.505021366407163
99659.129882692403044
99658.750852137862239
99658.371166771976277
99657.996838997336454
99657.630088993711979
99657.270264269696781
99656.916193948112777
99656.566181243004394
99656.218170426596771
99655.871619934448972
99655.52860933705233
99655.191488943004515
99654.863044905927381
99654.545129948615795
99654.237590744378394
99653.935397676381399
99653.630599533717032
99653.320348839217331
99653.009709626610857
99652.706058108640718
99652.411446651123697
99652.122754373864154
99651.836917346605333
99651.553984942962416
99651.274057403788902
99650.994470299076056
99650.710662695375504
99650.422012308787089
99650.132981835558894
99649.848807128961198
99649.572054937147186
99649.300062640701071
99649.028823742177337
99648.754437127892743
99648.474206844883156
99648.188189753098413
99647.899795630873996
99647.613110238380614
99647.329528509420925
99647.047538678234559
99646.766242667858023
99646.487651970295701
99646.214156667119823
99645.945577743666945
99645.679078525252407
99645.41172442525567
99645.142536050349008
99644.873083727914491
99644.605741644714726
99644.343055237841327
99644.086189614172326
99643.835206808827934
99643.588794001290808
99643.345565854673623
99643.104667879786575
99642.864607702198555
99642.623551764103468
99642.379946608489263
99642.134142687122221
99641.887536919937702
99641.641289488354232
99641.395654832216678
99641.151056897986564
99640.908747300331015
99640.670426852695527
99640.437075846304651
99640.208296529410291
99639.982536792434985
99639.757993656792678
99639.533898920184583
99639.310237602388952
99639.087128669692902
99638.86533783726918
99638.645539877616102
99638.427647673161118
99638.21006798131566
99637.990258841629839
99637.765872836360359
99637.536400410288479
99637.303610593051417
99637.071423920584493
99636.843648575173574
99636.621857739693951
99636.404322009751922
99636.187655821282533
99635.969469762349036
99635.750050295740948
99635.531951241719071
99635.318334088209667
99635.110928896494443
99634.908959147214773
99634.710543232737109
99634.513715606284677
99634.316793595804484
99634.118485599305131
99633.917532829407719
99633.713582760101417
99633.507146274088882
99633.299650398475933
99633.092506025452167
99632.886197483850992
99632.680550445540575
99632.474831795756472
99632.268112544785254
99632.060103660129244
99631.851206383202225
99631.641607871220913
99631.431627887766808
99631.221738539155922
99631.012649662792683
99630.805407496358384
99630.601419883343624
99630.401713775514509
99630.206491893535713
99630.015031549017294
99629.826512188185006
99629.639757036886294
99629.453652464901097
99629.267115775524871
99629.079298376294901
99628.889497328695143
99628.697288011375349
99628.502376030010055
99628.304546813160414
99628.103938998028752
99627.901088565398823
99627.696803399958299
99627.491948102033348
99627.287708051910158
99627.085370224478538
99626.885800648611621
99626.689654129295377
99626.497143904896802
99626.307545734933228
99626.11947807703109
99619.341200581024168
99619.177973282523453
99619.014988004913903
99618.85138645627012
99618.686448926382582
99618.520124928370933
99618.353070328084868
99618.186389818554744
99618.021112910602824
99617.857770837494172
99617.696196688950295
99617.535720726853469
99617.375724342447938
99617.215855235015624
99617.056127095725969
99616.896669964495231
99616.737675298223621
99616.579237137077143
99616.421016392036108
99616.262676917860517
99616.104075394701795
99615.94516766036395
99615.78603438466962
99615.62663227005396
99615.466713982095825
99615.305929108813871
99615.144002829052624
99614.980754342992441
99614.816011018658173
99614.650093560485402
99614.483899829749134
99614.318792837366345
99614.15639012272004
99613.998215920262737
99613.845229735394241
99613.697339898630162
99613.55333303862426
99613.411177896239678
99613.268804073057254
99613.124706767950556
99612.978377339386498
99612.830056101665832
99612.68041959736729
99612.529999690872501
99612.378866165119689
99612.226683594853966
99612.073242403828772
99611.918865474348422
99611.764343033646583
99611.610697801108472
99611.45874212362105
99611.308820405087317
99611.160668275100761
99611.013464356699842
99610.86612619853986
99610.717700893204892
99610.567659437379916
99610.416246892258641
99610.264226356041036
99610.11259529759991
99609.962168939018738
99609.813160652847728
99609.665194433720899
99609.517551927550812
99609.369724624091759
99609.221585091450834
99609.073283084406285
99608.925131559226429
99608.777264039919828
99608.629276652471162
99608.48037427192321
99608.329708110075444
99608.176810603239574
99608.021741333897808
99607.865257050958462
99607.708604584462591
99607.553054167146911
99607.39956537472608
99607.248427376529435
99607.099209115098347
99606.951032431039494
99606.802913986481144
99606.65405123027449
99606.504051308496855
99606.353037660825066
99606.201506626603077
99606.050140545296017
99605.899610370353912
99605.750324691689457
99605.602425151955686
99605.455678573431214
99605.309728336316766
99605.164223429455888
99605.019086138345301
99604.874490627713385
99604.730746983012068
99604.588166589921457
99604.446869945662911
99604.306755324403639
99604.1674331365939
99604.028397309913998
99603.889142375686788
99603.749126138805877
99603.607994235484512
99603.465656386644696
99603.322144949866924
99603.177717627389939
99603.032737160829129
99602.887599855734152
99602.742567937981221
99602.597757302093669
99602.453046409340459
99602.308178509862046
99602.162806876891409
99602.016508024360519
99601.868993931580917
99601.720198039984098
99601.570295645564329
99601.419757825613488
99601.269138135394314
99601.118934343889123
99600.969485131645342
99600.820815281462274
99600.672753981110873
99600.524965470889583
99600.377107787804562
99600.228882022274774
99600.079975433982327
99599.930140016542282
99599.779221046323073
99599.627079059340758
99599.473622605000855
99599.318824248795863
99599.162936560227536
99599.006416119082132
99598.849992222327273
99598.694461967024836
99598.540467496204656
99598.388208159594797
99598.237380249556736
99598.087291089628707
99597.936996384247323
99597.785653382452438
99597.632648509403225
99597.477888225359493
99597.321924938340089
99597.165766294230707
99597.010473871167051
99596.856856676677126
99596.705291361853597
99596.55582798703108
99596.408060281639337
99596.261373953107977
99596.115095110086259
99595.968701998630422
99595.821844921068987
99595.674415484871133
99595.526463317510206
99595.378172223863658
99595.229833676421549
99595.08165944632492
99594.933816537624807
99594.786452891246881
99594.639705821842654
99594.493642025510781
99594.348335712536937
99594.203902569701313
99594.060455780185293
99593.917980951111531
99593.776276649048668
99593.63501314871246
99593.493771066219779
99593.352125947523746
99593.209744162450079
99593.066414205182809
99592.922216074162861
99592.777324575610692
99592.632066542486427
99592.48682161817851
99592.341875715559581
99592.197362683989923
99592.053115821632673
99591.908739830600098
99591.763655166752869
99591.617121701827273
99591.468363362160744
99591.31672636946314
99591.161903638145304
99591.003989095421275
99590.843384532956406
99590.680669406385277
99590.516491833594046
99590.35156231286237
99590.186491085987655
99590.021698820375605
99589.857478410107433
99589.693950267406763
99589.531070956436452
99589.368759792676428
99589.206897562864469
99589.045374820489087
99588.884118601781665
99588.723081455536885
99588.562150117752026
99588.401045452512335
99588.239340145257302
99588.076485470330226
99587.911941564292647
99587.745253881192184
99587.576151473433129
99587.404706868139328
99587.231394361151615
99587.056968677032273
99586.882359224458924
99586.708527041497291
99586.536270863201935
99586.366035100611043
99586.198009420608287
99586.032141501636943
99585.868257793757948
99585.706143152085133
99585.54576867337164
99585.387383036388201
99585.231520820772857
99585.078863933435059
99584.930105225692387
99584.785747669331613
99584.646060427941848
99584.510985579239787
99584.380212959556957
99584.253228491652408
99584.129508040554356
99584.008653016673634
99583.890474658430321
99583.775108512345469
99583.663006710165064
99583.554954798717517
99583.451921805957681
99583.355000308438321
99583.265219604159938
99583.183506647896138
99583.110705252736807
99583.047414377026143
99582.994112598782522
99582.951214055676246
99582.919134764000773
99582.898291715449886
99582.889060046989471
99582.89179799426347
99582.906801454970264
99582.934319642343326
99582.974674203680479
99583.028294028685195
99583.09569432909484
99681.353231049375609
99681.53414167437586
99680.515545877904515
99680.421541091491235
99680.426978764153318
99680.249338064619224
99680.009770394171937
99679.748644978899392
99679.432818229775876
99679.06807897282124
99678.674702622709447
99678.272197783691809
99677.869367067367421
99677.455568959456286
99677.016009508384741
99676.549671960718115
99676.059035088270321
99675.552302763564512
99675.045935987407574
99674.537559429256362
99674.015316005490604
99673.479373040128849
99672.944872815045528
99672.424313134877593
99671.917875200873823
99671.419065350404708
99670.926661657664226
99670.437678378628334
99669.948985720518976
99669.461146140209166
99668.975213445693953
99668.489574356834055
99668.004512109560892
99667.523632336669834
99667.050047293829266
99666.581529390183277
99666.11364605986455
99665.646686158666853
99665.185352871398209
99664.732258036296116
99664.290215979257482
99663.861954941705335
99663.44682954523887
99663.038579700660193
99662.631627805079916
99662.223900293698534
99661.820040411068476
99661.423604768060613
99661.034337256511208
99660.651112185092643
99660.272062411328079
99659.895094266874366
99659.517840300162788
99659.138882143684896
99658.759625297301682
99658.382529917827924
99658.009118762376602
99657.640172156025073
99657.27714660919446
99656.921078078841674
99656.570857344195247
99656.223686068624374
99655.879942022002069
99655.541846817344776
99655.211465497341123
99654.889477149830782
99654.576205389632378
99654.270322817654232
99653.967640198869049
99653.663510561309522
99653.356253340738476
99653.049889786343556
99652.749622044662829
99652.456686331061064
99652.168144427298103
99651.881594581602258
99651.597079483835842
99651.314037016461953
99651.030178445580532
99650.74344128757366
99650.454643558579846
99650.167438609787496
99649.885154852294363
99649.609383601025911
99649.338311827785219
99649.069223954851623
99648.797268764523324
99648.517398091003997
99648.227993163978681
99647.931815900767106
99647.634685008524684
99647.341292738332413
99647.053512807542575
99646.771622255982948
99646.495733291827491
99646.225404620738118
99645.958815873484127
99645.693318735415232
99645.427384688780876
99645.160398874606472
99644.893094226979883
99644.627864246242098
99644.367751508412766
99644.114372313779313
99643.866282276605489
99643.620133669421193
99643.373924268205883
99643.127832959828083
99642.882476805229089
99642.6375322889362
99642.391962976078503
99642.144846105191391
99641.896722193763708
99641.648447365761967
99641.400991769231041
99641.155695895766257
99640.914489469883847
99640.678633438088582
99640.447779913345585
99640.220739419470192
99639.995939653948881
99639.772089556179708
99639.548639979024301
99639.325472077383893
99639.102802790599526
99638.881319225271
99638.661945614090655
99638.444687334704213
99638.228005680284696
99638.009377947659232
99637.786277709135902
99637.557916579666198
99637.326188590945094
99637.094572003188659
99636.866645427100593
99636.644174320186721
99636.425637142063351
99636.207772554305848
99635.987769750892767
99635.765862175234361
99635.54530353062728
99635.329465306815109
99635.120069861150114
99634.916125446296064
99634.71542774415866
99634.515417997710756
99634.314615434399457
99634.111935424880357
99633.906463940977119
99633.698432774152025
99633.489228061851463
99633.280533312994521
99633.073508658533683
99632.868352066201624
99632.66430889959156
99632.460042796956259
99632.254357783778687
99632.046580986469053
99631.836574666012893
99631.624711442622356
99631.412026457022876
99631.199909896837198
99630.989632077238639
99630.782353922200855
99630.579019513170351
99630.380053565750131
99630.185377174580935
99629.994428548379801
99629.806569358843262
99629.620832220214652
99629.435904717538506
99629.250136226793984
99629.062034107773798
99628.870187216467457
99628.67387167835841
99628.473601956487983
99628.270784514796105
99628.067163649684517
99627.863854631970753
99627.661155556954327
99627.458742923845421
99627.256654772383627
99627.055276103405049
99626.855317556852242
99626.657448101846967
99626.462091906141723
99626.269045835681027
99626.077493165590568
99625.886745761570637
99619.451947282403125
99619.287653287276044
99619.124054994012113
99618.960938368283678
99618.797752427635714
99618.633860490808729
99618.468857963773189
99618.303122681754758
99618.137522796590929
99617.973119437810965
99617.810647502003121
99617.650017529595061
99617.490609437852982
99617.33172991486208
99617.172736724838614
99617.013305319298524
99616.853433182986919
99616.693445193843218
99616.533783968479838
99616.374503622195334
99616.215302510128822
99616.055973259921302
99615.896575949518592
99615.737264062307077
99615.578085691420711
99615.418779976113001
99615.258985666063381
99615.098216861166293
99614.936015113722533
99614.772284689766821
99614.607475264463574
99614.442524347628932
99614.278702246316243
99614.117509986899677
99613.960279782157158
99613.80782717432885
99613.659880194754805
99613.515043795574456
99613.371395435358863
99613.227059748314787
99613.080850221551373
99612.932485112862196
99612.782720822433475
99612.63247477565892
99612.482216344025801
99612.331836320459843
99612.180825264193118
99612.028807208509534
99611.875879711456946
99611.722748146683443
99611.570466828357894
99611.419941577507416
99611.271616844271193
99611.125193732834305
99610.979670702552539
99610.833649379346753
99610.685981404880295
99610.53619773464743
99610.384504461486358
99610.231838371109916
99610.079410397287575
99609.9282944061124
99609.778864621053799
99609.630865399711183
99609.483753535794676
99609.337051554495702
99609.190575544445892
99609.044444559156545
99608.898849137534853
99608.753704427654156
99608.60841100262769
99608.461839109964785
99608.312953341344837
99608.161199409121764
99608.006799499868066
99607.85070986757637
99607.694418073951965
99607.539440142485546
99607.386911678462639
99607.237190474392264
99607.089911345756263
99606.944161752064247
99606.798911197533016
99606.653338135234662
99606.506930734947673
99606.35956359852571
99606.211439091246575
99606.063006982629304
99605.914733262892696
99605.766841445059981
99605.619481249392265
99605.472598695865599
99605.326165914651938
99605.180378056495101
99605.035574847177486
99604.892249763492146
99604.750776826549554
99604.611381492897635
99604.47397306196217
99604.338130735617597
99604.203145475155907
99604.06810784638219
99603.932196765759727
99603.794803474214859
99603.655631592846476
99603.514695279169246
99603.372266366670374
99603.22884784481721
99603.08497330112732
99602.94110674825788
99602.797480776280281
99602.654065587790683
99602.510668291564798
99602.366945180037874
99602.22255334489455
99602.07709572413296
99601.930306315683993
99601.782216011793935
99601.633150819543516
99601.483770423234091
99601.334824589648633
99601.186983512845472
99601.040609026196762
99600.895706460301881
99600.7519659865211
99600.608745048812125
99600.465309850173071
99600.321019664072082
99600.175484687351855
99600.028527660455438
99599.880151741526788
99599.730390018070466
99599.579354116285685
99599.427362956455909
99599.274883570047677
99599.122486364547512
99598.970860782064847
99598.82073666578799
99598.67262906304677
99598.526559723526589
99598.382044305035379
99598.238163391171838
99598.093772064414225
99597.947814699451555
99597.79963111053803
99597.64919915740029
99597.497236967610661
99597.344870389497373
99597.193311278315377
99597.04353586655634
99596.896123799480847
99596.751124080270529
99596.608177480840823
99596.466690302200732
99596.326012525489205
99596.18564795923885
99596.045227804570459
99595.904610301920911
99595.763789953227388
99595.622885782417143
99595.482060669572093
99595.34144447062863
99595.201147145169671
99595.061218338640174
99594.921750500128837
99594.782944859776762
99594.645038485759869
99594.508198157200241
99594.372549088031519
99594.238049642546684
99594.104526573297335
99593.971726294024847
99593.839334996970138
99593.707039327098755
99593.574589495139662
99593.441930810513441
99593.309165050101001
99593.17636017363111
99593.043687400961062
99592.9112898780877
99592.779264765355038
99592.647592287816224
99592.516071585880127
99592.384350493564853
99592.251954764520633
99592.118313568396843
99591.982858927221969
99591.84511816711165
99591.704848573586787
99591.56203809058934
99591.416872873276589
99591.269687773106853
99591.121035565651255
99590.971608051477233
99590.822070568785421
99590.673033325307188
99590.524919114555814
99590.378014331276063
99590.232449904127861
99590.088228269756655
99589.945285720503307
99589.803454802749911
99589.662510765250772
99589.522294820577372
99589.382561189500848
99589.242991628314485
99589.103171115697478
99588.962594226642977
99588.820713896726375
99588.677106486677076
99588.531553524793708
99588.384160388668533
99588.235383556340821
99588.08595656628313
99587.936745808183332
99587.788699093420291
99587.642594596516574
99587.498992737295339
99587.35817581412266
99587.220145139450324
99587.084751395203057
99586.951842483322253
99586.821416066639358
99586.693731568244402
99586.569296079222113
99586.448807691587717
99586.332995764722
99586.222418418954476
99586.117328930602525
99586.017628431261983
99585.922951554326573
99585.832759453798644
99585.746492250342271
99585.663735368449125
99585.584303730531246
99585.508335068429005
99585.436257668960025
99585.36878300429089
99585.306780426661135
99585.25127544348652
99585.203301474568434
99585.163903251959709
99585.133962431646069
99585.114267309079878
99585.105366188887274
99585.10769775348308
99585.12171406269772
99585.147786743094912
99585.186249020654941
99585.237400247555343
99585.301537273684517
99585.37891806884727
99585.469802350678947
99585.574457864102442
99585.693228896983783
99678.949723373807501
99680.021779973831144
99679.871281543833902
99679.887121696025133
99679.949016243539518
99679.823406830299064
99679.610014840218355
99679.400434128692723
99679.158769461224438
99678.86326229631959
99678.521333221433451
99678.137069051328581
99677.721822244653595
99677.290587066978333
99676.855647211166797
99676.423261436604662
99675.977178437067778
99675.505593770794803
99675.020571456392645
99674.530109485072899
99674.024827143628499
99673.503071071216254
99672.975254491670057
99672.452119537643739
99671.937515111567336
99671.436158905082266
99670.949116247604252
99670.471637260750867
99669.997079090957413
99669.525562246024492
99669.058591927852831
99668.59179251063324
99668.118464949278859
99667.637261875002878
99667.153896060262923
99666.673140358223463
99666.196506743232021
99665.724047157535097
99665.257193931014626
99664.796083534092759
99664.343797721230658
99663.909212838494568
99663.495000470909872
99663.091752574080601
99662.688091172123677
99662.280380298761884
99661.873620921949623
99661.472560106703895
99661.079955671564676
99660.696296471287496
99660.320863550907234
99659.950533218390774
99659.578842184011592
99659.202405326228472
99658.822895491044619
99658.443627402943093
99658.066056766590918
99657.691195795865497
99657.321809655521065
99656.960684228281025
99656.608081704573124
99656.262041193971527
99655.922962446085876
99655.59265063283965
99655.271622783664498
99654.957994070689892
99654.649974688436487
99654.346198544371873
99654.045009722991381
99653.744493278660229
99653.443639912860817
99653.143209232075606
99652.845592265643063
99652.550935028717504
99652.257322991252295
99651.963218020173372
99651.669354990997817
99651.377009840522078
99651.0867555206205
99650.797718044152134
99650.509758781583514
99650.224115046483348
99649.9435131715436
99649.669231068051886
99649.400853214086965
99649.134473105077632
99648.863849055836909
99648.583668854247662
99648.292149879751378
99647.992011091278982
99647.690182747726794
99647.393343499075854
99647.105162002320867
99646.825552166657872
99646.551800199347781
99646.28144617806538
99646.012497951087425
99645.743895190564217
99645.474706680557574
99645.205230817606207
99644.937259668207844
99644.673392433629488
99644.415436255119857
99644.163500385431689
99643.914031639593304
99643.663279247062746
99643.410048601072049
99643.156740375576192
99642.906667504852521
99642.661016889847815
99642.418150668396265
99642.174612267830526
99641.928261884007952
99641.679278980984236
99641.429623491494567
99641.182330543597345
99640.940155605319887
99640.704582325168303
99640.475264926208183
99640.249915576845524
99640.026008414992248
99639.802414092977415
99639.57884757478314
99639.355135938938474
99639.131114598771092
99638.907115787616931
99638.684697665928979
99638.464868879964342
99638.247105162503431
99638.02941911862581
99637.809174223046284
99637.58474770731118
99637.356530955337803
99637.12681119730405
99636.89855957851978
99636.673337631393224
99636.45081439326168
99636.229555830155732
99636.007912408458651
99635.786102892889176
99635.566558998514665
99635.351668876144686
99635.141808437212603
99634.935348498926032
99634.729893202820676
99634.523589037620695
99634.315844442520756
99634.10673508279433
99633.896234125917545
99633.684993552102242
99633.474161318372353
99633.264687437927932
99633.057226860750234
99632.851691209158162
99632.647385191958165
99632.443045606516534
99632.237433650894673
99632.029184699844336
99631.817778844837449
99631.604052756476449
99631.389803905112785
99631.177241166427848
99630.968094846859458
99630.763134619206539
99630.562343681493076
99630.365353466084343
99630.171532801119611
99629.980578314236482
99629.792350444331532
99629.606369152796105
99629.421362057866645
99629.235059689963236
99629.045058800693369
99628.849539101443952
99628.647976636217209
99628.441706872341456
99628.233545870680246
99628.026734555416624
99627.823152878365363
99627.622546189595596
99627.423537876835326
99627.224979890830582
99627.026174501486821
99626.827416782005457
99626.629268377175322
99626.431983512011357
99626.235763353703078
99626.040749270148808
99625.847517933143536
99619.39286140956392
99619.226799180702073
99619.062053118512267
99618.898904335277621
99618.73700659678434
99618.57556721153378
99618.413780313756433
99618.251378191867843
99618.088787251574104
99617.926758885121671
99617.766070677171228
99617.606992944711237
99617.449101213176618
99617.29144468443701
99617.133028786163777
99616.97320513514569
99616.811985856023966
99616.649981138427393
99616.487863542904961
99616.326190769541427
99616.165226636119769
99616.00500959562487
99615.845448766223853
99615.686390442904667
99615.527762219644501
99615.369318460783688
99615.210624461833504
99615.051041909464402
99614.890163425574428
99614.728077947162092
99614.56532911931572
99614.402826061152155
99614.241722096106969
99614.083331443223869
99613.928519400476944
99613.777527642290806
99613.62975468498189
99613.483842452929821
99613.338124995221733
99613.191168080898933
99613.042415197676746
99612.892365478837746
99612.741922213739599
99612.591857304360019
99612.44231547092204
99612.292992817790946
99612.143346096563619
99611.992842523497529
99611.841474601256778
99611.689748699805932
99611.538619441707851
99611.38906658536871
99611.241600568610011
99611.095893596298993
99610.950941409042571
99610.805403011632734
99610.657989166968036
99610.508204660276533
99610.356326761975652
99610.203373437863775
99610.050638582164538
99609.899153004123946
99609.749463081228896
99609.601526671642205
99609.455010344958282
99609.309504840173759
99609.164721660665236
99609.020650311809732
99608.877295366255566
99608.734384704264812
99608.591265597773599
99608.446845336919068
99608.299978043927695
99608.150020485758432
99607.997169692345778
99607.842433283934952
99607.687427611919702
99607.533833195731859
99607.382695779553615
99607.234361463080859
99607.088466311513912
99606.944278980095987
99606.800897220717161
99606.657649147527991
99606.514134305878542
99606.370174466705066
99606.22571642496041
99606.080859469686402
99605.935617863040534
99605.789977983935387
99605.644005752532394
99605.497827637809678
99605.3517630307324
99605.206413555104518
99605.062448755968944
99604.920620524557307
99604.781563391530653
99604.645471639872994
99604.51196288348001
99604.380196664220421
99604.24897486755799
99604.117130435435683
99603.98378139048873
99603.848339440039126
99603.710628251035814
99603.570797939741169
99603.429345401818864
99603.286875999823678
99603.144023155895411
99603.001217615586938
99602.858689551081625
99602.716377923294203
99602.574067449284485
99602.43153158784844
99602.288374035299057
99602.144239819754148
99601.998921321326634
99601.852426507917698
99601.70516089546436
99601.557775638997555
99601.411080721096369
99601.265876289951848
99601.122622299852083
99600.98136379099742
99600.841656253076508
99600.70268064623815
99600.563568538695108
99600.423525629652431
99600.282046877153334
99600.138851488634828
99599.993887719072518
99599.84737800055882
99599.699722951889271
99599.551437267815345
99599.403045783124981
99599.255219271828537
99599.108612597250612
99598.963800852550776
99598.821186522647622
99598.68068123118428
99598.541731854740647
99598.403356680253637
99598.26435847353423
99598.12372045731172
99597.98087457868678
99597.835826134716626
99597.68917030528246
99597.541920140443835
99597.395253383408999
99597.25025463590282
99597.107641498048906
99596.967489296206622
99596.829547599685611
99596.693420759067521
99596.558606395541574
99596.424627670305199
99596.291127933058306
99596.157901845799643
99596.024828661946231
99595.89186502218945
99595.758934138750192
99595.626017652553855
99595.493180676887278
99595.360508761179517
99595.228166646236787
99595.09644241022761
99594.965689176766318
99594.83620288693055
99594.708165081450716
99594.58153351850342
99594.456122274248628
99594.331726436474128
99594.208183505645138
99594.085355017552502
99593.963196429409436
99593.841760706782225
99593.721062746451935
99593.601106858710409
99593.481823360867565
99593.363107511904673
99593.244797934225062
99593.126623379866942
99593.008304794901051
99592.889597744462662
99592.770184774999507
99592.649699090936338
99592.527812230866402
99592.404242027419969
99592.278767792900908
99592.15135678355
99592.022125346949906
99591.891342002476449
99591.759409973470611
99591.626834398208302
99591.494189021323109
99591.362073976910324
99591.231048506102525
99591.101565805845894
99590.973978042733506
99590.848429020406911
99590.72483138696407
99590.602999987197109
99590.482696349499747
99590.3636695817695
99590.245543781449669
99590.127929679627414
99590.010394699347671
99589.892509107827209
99589.773829239318729
99589.653967081685551
99589.532742756331572
99589.410271129338071
99589.286954585302738
99589.163418552328949
99589.040460862248437
99588.918960029797745
99588.799749875484849
99588.683482724067289
99588.570486125507159
99588.460820102671278
99588.354401317672455
99588.251258785763639
99588.151497431361349
99588.05539063179458
99587.963388088013744
99587.876037758920575
99587.793973481675494
99587.717651167928125
99587.64726651890669
99587.582713488998706
99587.523617928687599
99587.469532564384281
99587.419984067324549
99587.374548107763985
99587.33303306538437
99587.295653574328753
99587.262954875463038
99587.235671370028285
99587.214670811255928
99587.200872291563428
99587.195145830075489
99587.198354310399736
99587.211377606523456
99587.235016869512037
99587.269945534339058
99587.316749787089066
99587.375924788808334
99587.447831518977182
99587.532710228129872
99587.63074316647544
99587.742123575895675
99587.867075867514359
99588.005828626992297
99588.158644151073531
99588.325896374473814
99588.508065381989582
99679.65091149257205
99680.54158697668754
99680.262994672972127
99680.0892151240987
99680.037828736676602
99679.933115565523622
99679.719177229897468
99679.447587303075125
99679.14388457473251