/*--------------------------------*- C++ -*----------------------------------*\
  =========                 |
  \\      /  F ield         | OpenFOAM: The Open Source CFD Toolbox
   \\    /   O peration     | Website:  https://openfoam.org
    \\  /    A nd           | Version:  12
     \\/     M anipulation  |
\*---------------------------------------------------------------------------*/
FoamFile
{
    format      ascii;
    class       volScalarField;
    location    "0.0165";
    object      rho;
}
// * * * * * * * * * * * * * * * * * * * * * * * * * * * * * * * * * * * * * //

dimensions      [1 -3 0 0 0 0 0];

internalField   nonuniform List<scalar> 
75962
(
1.1425484601230329051
1.1433524525433886865
1.1443143263377362207
1.1454232687766163767
1.1461666078855674566
1.1458130484043189679
1.1445981176855128947
1.1444464284094715278
1.145445233963173326
1.1463993434708708019
1.1465376870858690062
1.1457408366293972968
1.1449376025331432505
1.1452425806810535569
1.1462924245186014716
1.147154063710386529
1.1474157442931198769
1.1470248797962325771
1.146583340430495257
1.1468300768331498585
1.1475228249281756998
1.1477619829621790171
1.1473292774458296872
1.1468034290547322041
1.1465404439115198798
1.1465034145791139775
1.1466076737116734918
1.1468345854042041321
1.1470776612518813753
1.1473723555195862733
1.1477086048407723062
1.1478655255106429145
1.1476684493301390066
1.1472398078433121427
1.1469475244570910277
1.1470033626395972348
1.1472838270086975765
1.1475462701615135597
1.1476716671713049767
1.1477109194644152801
1.1476248838426041932
1.1474885443952087538
1.1474447767322690783
1.1475336160034541599
1.1476816292507581174
1.1479376999984942653
1.1482270250507811138
1.1483869957525407735
1.1483723196870523342
1.1482783257679296529
1.1481907502698278645
1.1482259323230468162
1.1485305788240838254
1.1491377978168479945
1.1498074293977700311
1.1502345749271258857
1.1503570923429375927
1.1502424470056527017
1.1500296462072050474
1.1498570001712364874
1.1498565727001623937
1.150083135967165493
1.1504332579252880553
1.1507323158439268784
1.1507629652236746054
1.150438602874224836
1.1497967038582921351
1.1491150170285533427
1.14876473775518817
1.1488365388070467255
1.1490812305835325091
1.1492023455613262772
1.1491427556178515079
1.1490449653214960257
1.1489608642371920144
1.1488224165240654706
1.1486304359735308722
1.1485638105112327967
1.1488102676770310939
1.1493035833243441246
1.1497665789301816375
1.1499629041907977189
1.1499108326645808287
1.1497250158095668748
1.1495645728796206608
1.1494557493795429792
1.1494480232172887835
1.1495303560804368548
1.1496253816296992945
1.1496651833017541566
1.1496965587792975505
1.1498066835579483502
1.1499910779685766915
1.1501094198712753514
1.1500773127726005018
1.1499533859333730401
1.1499000712338189878
1.1500237851599739436
1.1502938601350682912
1.150611521120724845
1.150871926965147729
1.1510043840812758109
1.1509871339213519903
1.1508344576718221308
1.1505880065393931933
1.1502916591521896716
1.1499712495915295207
1.1496913123645025046
1.1495516223378710041
1.149601183999127807
1.1497917967887418822
1.1500254346055494015
1.1502443970923985628
1.1504385139255557391
1.1506042290955829088
1.1506949412614966288
1.1506773498210849382
1.1505851627817180738
1.1505008965659080378
1.1505122480532896656
1.1506455936333297441
1.1508753295026705743
1.151147166726725013
1.1513924787847937825
1.1515416760762477999
1.1515469880232329647
1.1514181922212847198
1.1512353157833241646
1.1511174362733191945
1.1511449462028471302
1.1513101994582390919
1.1515276488580685754
1.151683957175211992
1.1517110805410730734
1.1516258352457382497
1.1515248061945366764
1.15150496916497036
1.1515890344877761642
1.1516991340243616371
1.1517190051575509901
1.1515882808446127328
1.1513543474307288417
1.1511120762691480213
1.1509414709695180434
1.1508539855613064695
1.1508246454776831502
1.1508209665173432246
1.1508313622357100314
1.1508525541739487164
1.1508613199778316982
1.1508403625216876431
1.1508043510742611559
1.1507984754673736827
1.1508651754003558221
1.1510178746628054736
1.1512217239509994204
1.151419702262185929
1.1515610440382322288
1.1516300362969937865
1.1516315459523622788
1.1516000209593899584
1.1515565224007093814
1.1515137012249305748
1.1514772213554753666
1.1514490713483576112
1.1514400046787440779
1.1514608356730742234
1.1515096765121923816
1.1515791230817156166
1.1516633013589496759
1.1517561117694503636
1.1518596184281058026
1.1519804563704423295
1.1521246070409794093
1.152290313384030096
1.152471863744052083
1.1526597003170397926
1.1528369153838329275
1.1529844975165584042
1.1530851406557549588
1.1531273476564158909
1.153111591138628933
1.1530522649834036297
1.1529798155435424523
1.1529289699107267975
1.152931217827427135
1.1530101908504015729
1.1531694178137255058
1.1558570616423204935
1.1558315581210754086
1.1558395129384519961
1.1558881099352129596
1.1559567944363129399
1.1560098279943642474
1.1560128481188198801
1.1559611843772905626
1.1558792601350771356
1.1558060615783649627
1.1557744355033605643
1.155793829797055583
1.1558429507432610439
1.155889379729900579
1.1559089218516045428
1.1558960880935960081
1.1558619567018584284
1.1558295600911705492
1.1558144828937289006
1.1558162408323160442
1.155822824882249078
1.1558220427131606911
1.1558109263462448268
1.1557981759185931292
1.155797202956680092
1.1558176469945151688
1.1558665690876752663
1.155941798895448569
1.1560297707977904569
1.1561180926021117354
1.1561782106755991162
1.1561847265648084182
1.1561178532231857208
1.1559828098271889285
1.1558148984994442987
1.1556665813706481494
1.1555892932569387099
1.1556023575563552086
1.1556889586906460288
1.1558086408688270641
1.1559117565840066888
1.1559696690414702491
1.1559799268663071281
1.1559618522520407335
1.1559379868129271429
1.1559139978180736907
1.1558743146909054023
1.1557957563609746465
1.1556629056561547042
1.1554813619038457606
1.1552812622393182629
1.155103298185005567
1.154990942143765853
1.1549719913460434473
1.1550487736427796914
1.1551930111007973068
1.155352600165390875
1.1554761645294746586
1.1555221775038120313
1.1554807629767183119
1.1553733270315678094
1.1552391351952158161
1.1551209561537003623
1.1550460043192118942
1.155015471478902267
1.1550145462579279876
1.1550276447563054827
1.1550498535012565515
1.1550901190878146707
1.1551607499979617
1.1552641482389331973
1.1553824637306282508
1.1554808348660547956
1.1555180137062386336
1.1554620619152879968
1.1553048602737141515
1.1550673257048109654
1.154795836206862214
1.1545427527274891855
1.1543518881911121188
1.1542482608968778202
1.1542315819841453273
1.154280069826240096
1.1543587100644177035
1.1544298050264620858
1.1544639305969464083
1.1544469391931007074
1.1543786496633656746
1.1542769409849571449
1.1541595567419487001
1.1540449880250416292
1.1539439055137510337
1.1538562875403604036
1.1537770622352323535
1.153699220028333805
1.1536188270892258068
1.1535376736044145041
1.153459605767124474
1.1533956537451754976
1.1533510519297009989
1.1533241287555049404
1.1533074883722440607
1.1532892063268567195
1.1532553947039450026
1.1531944937761908765
1.1531007942728457305
1.1529745447478285669
1.1528233963681528973
1.1526619878735058222
1.152507325412009731
1.1523778730326565967
1.1522901413089425837
1.1522497552648778285
1.1522556499260965257
1.1522937823846877148
1.1523409655513392469
1.1523720642730106434
1.1523617100162943938
1.1522982593190487233
1.1521839489446925597
1.1520351317732593355
1.1518743844374343954
1.1517290420401509188
1.1516204785595842708
1.1515576449403996939
1.1515386628484582943
1.1515547835925643572
1.1515933302207372879
1.1516412584283275411
1.1516850995969365457
1.1517120238741691551
1.1517072053296437684
1.1516549409662797387
1.1515418548056992609
1.1513599271923489198
1.1511128736708577947
1.1508197760576199808
1.1505145106845704461
1.15024092427196023
1.1500405461655840433
1.1499405389495256369
1.1499465843920670949
1.1500399058010006836
1.1501766347245871991
1.1503111989964975859
1.1503945998349174307
1.1504029350851645574
1.1503319910448301933
1.1502019345698368813
1.1500458906568282735
1.1499006319132143439
1.1497995528885678329
1.1497622977013557399
1.1497947659596357006
1.1498906181802315274
1.1500328866961408991
1.1501997501360010645
1.1503677286327276263
1.1505152566999399255
1.1506271219139143636
1.150692494936831789
1.1507073388386115376
1.1506702400334609671
1.1505848676570613609
1.1504584631837384556
1.1503037549755168456
1.1501376215070087117
1.1499818703422568511
1.1498586602353408903
1.1497870626636037539
1.1497796548233989444
1.1498373197098350484
1.1499515808216860258
1.1501019471270410577
1.1502630178799231331
1.150407027785055547
1.1505108276417594926
1.1505606699784136637
1.150554769934434507
1.1505038095554807054
1.1504242741538164285
1.1503404544426316658
1.1502752907774593805
1.1502480325857704635
1.1502713082886051321
1.1503466892490217255
1.1504640233917855507
1.1506060922627407983
1.150751585125930232
1.1508781249898165644
1.1509677433999805363
1.1510095966194595629
1.1510018947657769672
1.1509494280910663733
1.1508617684069419873
1.1507504067088152322
1.1506248720942202635
1.1504946612850215359
1.150363833646778744
1.1502363955610852564
1.1501121115154122609
1.1499934433872043282
1.1498834415440841727
1.1497878286196356878
1.1497144806260743977
1.149671153937486423
1.1496606724650577647
1.1496809697267420525
1.1497205396456000592
1.1497632366504551005
1.1497879343865209378
1.1497788656324539058
1.1497262035831223859
1.1496327944617017458
1.1495123354526923798
1.1493898364943588852
1.149293401802268022
1.149246131375036839
1.1492624532637316648
1.1493423390886743363
1.1494702311996998212
1.1496198502892558402
1.149760384361035559
1.1498635820491409643
1.149910439568812226
1.1498953096281980812
1.1498257498031958512
1.1497190848344240877
1.1495980018939104816
1.1494864160959499255
1.1494033528131419875
1.1493597453570634226
1.1493572192668883858
1.1493871885099089525
1.1494358859525131145
1.149486972332754986
1.1495233527424602027
1.1495359196751686603
1.1495184340298951753
1.1494719336973775459
1.1493978647207734323
1.149301542437940693
1.1491857214945495613
1.1490566531609869294
1.1489230627323692158
1.1487936443101627315
1.1486781466262188101
1.1485878884425617663
1.1485342202532879963
1.148527556071250455
1.1485759520119109833
1.1486824266669581895
1.1488422553820396566
1.1490409359550386448
1.1460241644137709738
1.1458096199303846596
1.144638001086219159
1.144725079865516193
1.1450996252737963843
1.1443062221296909087
1.1437251958607734803
1.1446137125537370061
1.1457444827715066449
1.1462358399795002928
1.1461070957505812284
1.1455213972708297998
1.1450858122043070519
1.1454083519153639426
1.1460994575403029572
1.1466862808923954375
1.1470569489733735136
1.1468791027117253289
1.1464900692749684374
1.1467779722622346572
1.1475900426296661294
1.1480219611416404568
1.1477561041063764069
1.1472257956172018378
1.146853373982531954
1.1466413508401369636
1.1465554094945260566
1.146645239234548086
1.1468489954636249539
1.1470322133179642332
1.147292673012695996
1.1476266736593911943
1.1477884180148361093
1.1476793310250512636
1.1475267077174360342
1.1476077764363687983
1.1479238341929185463
1.1482616297937608962
1.1484854415885445977
1.148513672970095989
1.1481877911389948288
1.1475798467591578067
1.1470784090759000851
1.1470715343436541644
1.1475380647063997408
1.1481691436904795101
1.1485631256175905524
1.1486523556733154727
1.1485713321946737775
1.1484624642641372283
1.1484424816924121426
1.1485817495527428367
1.1489721902867862102
1.1495394186970675499
1.1501052383963503711
1.1505147412186524924
1.1506935555347108657
1.1506514783853671879
1.1504121505307010054
1.1501274324428554241
1.1499981493514892517
1.1500624246487529678
1.1501926883955815306
1.1502657145942571937
1.1502074748418482653
1.149934611344026969
1.1494462441524875285
1.1489253787540054663
1.1486186508312705712
1.1486239083430289654
1.14880705663640037
1.148966164655992328
1.1490532964884090372
1.1491273896244724728
1.1491781649296655132
1.1491416591361567345
1.1490318414635984912
1.148992871964992224
1.1491404299097669472
1.1494158713824651485
1.1496603499340654064
1.1497640542984666201
1.1497094006012618106
1.1495664890207657471
1.1493800978015238368
1.1492478212952148553
1.1492968414104232089
1.1495437861693398318
1.149866866457393666
1.1501202393239082777
1.1502512977656311755
1.1503032641625314803
1.1503183247376844722
1.150288281529858736
1.1502007229977766478
1.1500901735135378168
1.1500403232799925046
1.1501042641671401778
1.1502833194833110841
1.1505242147108145634
1.1507427808773560418
1.15084107508025002
1.1508114092576737786
1.1507012170571526699
1.1505974120414648176
1.1505022649388498834
1.1503602462622977143
1.1501667782660389694
1.1500046070603999748
1.1499742901575922271
1.1501038981054514387
1.1503411721029450643
1.1505990960265619627
1.1508177140060980026
1.1509409680931874664
1.1509253372248064995
1.1507811679028208118
1.1505853237098448982
1.1504384713456898837
1.1504197630192540824
1.1505442339218996395
1.1507748756943854129
1.1510600965459505396
1.1513386910042011646
1.1515307623221120448
1.1515592440035584687
1.1514257825246425604
1.1512129882399888547
1.1510568376943577373
1.1510585216977111678
1.1512249536371264025
1.151472855751349833
1.1516801041511250947
1.1517606053263327315
1.1517250271636216841
1.1516563437561566641
1.1516416151907025167
1.1517100359530783038
1.1517869355116294727
1.1517626372655804801
1.1515868101061821349
1.1513200915378012379
1.1510850821807925293
1.1509627570667742003
1.1509674630457453759
1.1510436180503136328
1.1511307361127971483
1.1511993464944374477
1.1512214661431299234
1.1511633275947918964
1.1510268399498433389
1.1508581831394597561
1.1507302129795327073
1.1507082525106910875
1.1508087854146598072
1.1510010825068428542
1.1512322739384410752
1.1514392060647611338
1.1515762169715886287
1.1516204336138964326
1.1515799893062916848
1.1514835618841552378
1.1513675152544871061
1.1512701417037514151
1.15121293288625548
1.1511992631176384272
1.1512251669107715912
1.1512705266854714736
1.1513307617092292112
1.1514058807168885412
1.1515131301594472291
1.1516762732992271712
1.1519023582934106997
1.152172529275783841
1.1524463410899539184
1.1526766053487249586
1.1528283732884034851
1.1529015573532925831
1.1529245521253685958
1.1529356830762635955
1.1529511724627186098
1.1529679720259093934
1.1529710998260374044
1.1529587804429053399
1.1529539492329712314
1.152985355784061916
1.1530760404917930195
1.1532250318426577884
1.1534040343879090607
1.1559631990223040443
1.1559433222380515183
1.1559104435696063717
1.155890635912768305
1.1558987263569873161
1.1559262217650665416
1.1559422746899556955
1.1559177174095156548
1.1558437874536136025
1.1557434479356951673
1.1556544990835562192
1.1556145027046200724
1.1556403728414306187
1.1557196312883026845
1.1558175380291415557
1.1558979907483570848
1.1559359869945939892
1.155926691640258186
1.1558866204403697164
1.1558392473032177428
1.1557995798821989464
1.1557687299379419965
1.155742466960185455
1.15571885679301678
1.1556997163245310567
1.1556964207218796137
1.1557227000552767748
1.1557775008884931811
1.1558607699770686583
1.1559565970915635091
1.1560452882123015694
1.1561009251606424453
1.1560970990295189598
1.1560257167055063565
1.1559009140529203918
1.1557598153210333347
1.1556524391909279714
1.1556151040343647374
1.1556572935545714742
1.1557566133262497932
1.1558641659254924594
1.1559308658727001085
1.155939752189369063
1.1559020098040906355
1.1558473009272800525
1.1558028260234010087
1.1557756339216502806
1.1557467362365565489
1.1556860650492244424
1.1555692686028844474
1.155392798433585666
1.155184157151773805
1.1549919454959127751
1.1548676188761093364
1.1548482373468123008
1.1549394397269565626
1.1551144346138462193
1.1553149581147719172
1.1554767227458035972
1.1555503794533052986
1.1555184038860861762
1.1553988676204691721
1.1552330327623496764
1.1550662661701847078
1.1549307800368704413
1.1548380855529638556
1.1547833465367325356
1.1547582982596340528
1.1547629007383377608
1.1548089726306374203
1.1549073759353074564
1.1550566867037304064
1.1552337824062413052
1.1553911975555342107
1.1554782096402516078
1.1554547152599903281
1.1553113232939178356
1.15507007164362685
1.1547812759955577988
1.1545042537646288405
1.1542865039865994881
1.1541528896279487082
1.1541049874414301968
1.1541240136422101781
1.1541788657133447149
1.1542392608245313212
1.1542830319529104877
1.1542980160931801681
1.1542817975568353539
1.1542384666387459635
1.1541732403423425879
1.154091171665095894
1.1539917221651458945
1.1538728433665903506
1.1537346367563554583
1.153580528866590349
1.1534195426848552479
1.1532670593465932374
1.153142462741856944
1.1530593693303483604
1.1530253397871499388
1.1530334938772293096
1.1530685211032820625
1.1531076850783834598
1.1531287301389561151
1.1531155509131865156
1.1530610884523864179
1.1529649744563159608
1.1528382728747161856
1.1526966341925921622
1.1525614294092703105
1.1524489376141522357
1.1523780838322215114
1.1523554295665479064
1.1523786784356648827
1.1524319407869121346
1.1524904757196641203
1.1525239767264534585
1.1525057270263332487
1.1524163441779864403
1.1522573921207672765
1.1520480570694948685
1.1518204774640747878
1.1516105713063133908
1.151451172538220602
1.1513599990933645056
1.151338700086333322
1.1513752341721656958
1.1514476416309802342
1.1515328263797750541
1.1516081989023740917
1.1516550500658546685
1.1516559131200378996
1.151598405919622925
1.1514715750078248213
1.1512706793404445804
1.1510034703030413983
1.1506914753055024203
1.1503739554989480531
1.1500968170691445724
1.1499045546802524331
1.1498245424066315667
1.1498587887791196227
1.1499835042037662713
1.1501530143602778367
1.1503120595089066924
1.1504137799603415537
1.1504284266984659002
1.150353334986845999
1.1502098193233825096
1.150032273264010696
1.1498594294225563672
1.1497241985256749786
1.1496483501414449524
1.1496396959467380938
1.1496944935269459709
1.1498009100317150288
1.1499413901968624785
1.150097566224361989
1.1502521018546907339
1.1503887241094181704
1.1504936558563489957
1.150555696755002133
1.1505662399730689494
1.1505206457177381552
1.1504225264995910916
1.1502833133958842993
1.1501222330727394194
1.1499640796872458992
1.1498345344099500931
1.1497542639686419985
1.1497344423372706235
1.1497745238100676168
1.1498627756424801838
1.1499814399386831809
1.1501092310294820376
1.1502260376582489343
1.1503170638469830678
1.1503721679697727076
1.1503914179539898033
1.1503791449039253436
1.1503471288971232056
1.1503108948327156469
1.1502830795307463774
1.1502767219134315546
1.1503045074268249959
1.1503717767457692922
1.1504745409836982795
1.1506029082011268727
1.1507430753409206847
1.1508773482066718685
1.1509864488246921432
1.1510557398563778797
1.1510766798321718785
1.1510476746745330612
1.1509731079748901639
1.150861159331935557
1.1507227103322774653
1.1505684180854960363
1.1504095442240549474
1.1502544679622506152
1.1501097400017659123
1.1499783557961076319
1.1498668178938660223
1.1497818200867813143
1.1497290260655603777
1.1497131257767778667
1.149734095730657657
1.1497862946299148845
1.1498574562748573591
1.149926533566173692
1.1499728351081524025
1.1499766424655915031
1.1499286450032943918
1.1498300585919898342
1.1496972361529680384
1.1495562578292775058
1.1494354209432999792
1.1493605834266844568
1.1493469970209115871
1.1493944306866898941
1.1494886133685897622
1.1496048133747887032
1.1497138237848021358
1.1497890970729305327
1.1498129373439469614
1.1497805220541643667
1.1496987764490178563
1.1495844589660151325
1.1494594529177699638
1.1493460492408544837
1.1492621006482561796
1.1492187163620437573
1.149219234588573002
1.1492593608624595003
1.1493258569406727965
1.1494036977351818063
1.1494749222008528999
1.149522677946951621
1.1495391516377004848
1.1495180710592991513
1.1494592604394775481
1.1493647625260765555
1.1492385817735810694
1.1490894150122350492
1.1489278740285895353
1.1487659084104784313
1.1486167131678353126
1.1484937943367528046
1.1484103558806735279
1.1483778018732022641
1.1484040742157111126
1.1484918453694612506
1.1486370579548752513
1.1488279610497242889
1.1439035431692183842
1.144121553169079597
1.1424323714189310586
1.1423754621590125335
1.1446315318153337248
1.1462433070437114679
1.1457910694807802443
1.1454128347252399145
1.1457680936060619104
1.14581863449159993
1.1462325335684158123
1.1466802513506280103
1.1467378052486707496
1.1465170917694158526
1.1459079383315007306
1.1455226006281360451
1.1458234611202671172
1.1460863400443821458
1.1461269051063538438
1.1465850583241914418
1.1474798934800645167
1.1481229513485393667
1.1482347579453611175
1.1480193064482493437
1.1475817882423453575
1.1470305681211363513
1.1466746354158690036
1.146680536332753686
1.146929476691762595
1.1470629761924413526
1.1471371021803440371
1.1474018637065042103
1.147820846220916513
1.1481149806599200147
1.1482152633563988964
1.1483530823699683587
1.1486479180995314842
1.1489706738442737599
1.149164224996987782
1.1490777965178604614
1.1485751362898024563
1.1477479465352908861
1.147207019586160559
1.1473825259411558619
1.148098110727048704
1.1487842701153452296
1.1491554674395829672
1.1491889011314087021
1.1489938528681074015
1.148683014889336329
1.1484630757598861539
1.1485466874426470962
1.1489785058617274505
1.1496112112010794526
1.1502146349456867647
1.1506780981247235474
1.1509422690556510016
1.1509184659556757069
1.1506027302918284683
1.1501788174511224927
1.1499163615889578249
1.1498598494826166583
1.1498877569511332108
1.1498676004694341479
1.1497796471560546294
1.1495525885197412919
1.1491910847455020228
1.1487645459868880415
1.148432036342212248
1.1483578714396012188
1.1485231562456423848
1.1487925787032307046
1.1490750087158709825
1.1493281414701710386
1.1494932081603896901
1.1495052798757678936
1.1493987753453729361
1.1492892120638229514
1.1492979377283651932
1.1494483823079715279
1.1496326927914577443
1.1497404322321203018
1.1496666484064834712
1.149480292797810943
1.1492389115863075322
1.1491508261491700793
1.1493199077115590079
1.1497138094656995655
1.1502026814153774037
1.1505869713151855027
1.1507188919570687791
1.1506230511015000939
1.1504235701830765048
1.1502521748451051131
1.1501542068319035028
1.1501368991559963728
1.1501840844948088005
1.1502981797654112661
1.1504781850750867012
1.1506792019481679734
1.1508353592632329931
1.1508784113987289288
1.1508186921201777331
1.1507633431446828709
1.1507893377378677346
1.1508448116668732464
1.1508069079225964337
1.1506164918744292702
1.150355846551432748
1.1501974751176282652
1.1502635947195158916
1.1505266128968940631
1.1508492742795704
1.151095377226110994
1.1511783460092501752
1.1510800669234466653
1.1508466457418549123
1.1505906191569603703
1.1504329413104741331
1.150435111758329354
1.150587695633930041
1.1508384524197612375
1.1511397793294955161
1.1514296378449582203
1.1516331559530572637
1.1516664461799355212
1.1515094092710771445
1.1512473694177804973
1.1510233509405149999
1.1509459898812064438
1.1510459964039858605
1.1512722053677686418
1.1515257790824660056
1.1517096733107596851
1.1517861169785177378
1.1517889329323958147
1.1517837997463571398
1.1517991326813761255
1.1517966926723155474
1.1517078803809437382
1.1515190102850629827
1.1512960778680307872
1.1511436868724478355
1.1511192152851759118
1.151202979812080418
1.1513168332580647757
1.1513903180319140507
1.1513987247454338103
1.1513302239675926586
1.1511930865865667162
1.1510189796681213892
1.150854774117890944
1.1507510119992934161
1.1507444376838404931
1.1508363067388833745
1.1510083938518413937
1.1512268753980150482
1.1514399395177468133
1.1515938593070256246
1.1516429392855251912
1.1515711745996177751
1.1514188277055568133
1.1512465126665036852
1.1511144580272083537
1.1510579302924122125
1.1510639864555947121
1.1511010473243408203
1.1511397941513701326
1.1511765226193284573
1.1512305012437613616
1.1513519001320711155
1.1515816138876187047
1.1519205670323140467
1.1523165559442916095
1.1526844826398268129
1.1529387525821432892
1.1530316016173314253
1.1529902254875286083
1.1528924781178229164
1.1528203925261615304
1.1528158619838255738
1.1528702424241246138
1.1529489530237924111
1.1530276808883204165
1.1531103554437804881
1.1532103053959708028
1.1533301462783831504
1.1534453493081371356
1.1535264026528015968
1.1561100662188867894
1.1560793925974741647
1.1560031113238924405
1.1559140552756277387
1.155847537840318795
1.1558146710291954395
1.1558021039627024429
1.1557833687739402784
1.1557360469282047521
1.155662220706092036
1.1555842963027711523
1.1555377157104662622
1.1555502176508984924
1.155627059963788783
1.155750025477477072
1.1558748187277716468
1.1559632457938744388
1.1559913645727892817
1.1559602319178476915
1.1558927121554949391
1.1558170343710312267
1.155749821865382776
1.155695564454529034
1.1556527745911406857
1.1556245380923830801
1.1556157814501391012
1.1556342327731845554
1.1556841752862665462
1.1557609271115665273
1.155851430541913194
1.1559312223542943521
1.1559764046107878777
1.1559702290318116802
1.1559102716633966601
1.1558166760033785625
1.1557197012512578915
1.1556564664091477646
1.1556503040597760901
1.1556990030911271639
1.1557721874973339027
1.1558264481219757691
1.1558290710717902261
1.1557800355085277033
1.155704174727681055
1.1556347124384285241
1.1555949111885477354
1.1555844638360852628
1.1555783215568129485
1.1555389410176992726
1.155434892037605632
1.1552600179934300328
1.1550439704524375628
1.1548435226264324172
1.1547153743313307572
1.1547040114082165463
1.1548149666553997328
1.1550140589547721603
1.1552442705404106782
1.1554303362831277457
1.1555226221328198655
1.1554995595522261631
1.1553764070891603399
1.1551937820233957321
1.1549958703985119257
1.1548153982531110806
1.1546706033026847837
1.1545670712016222748
1.1545070001050392605
1.1544944238671270842
1.1545397664253302938
1.1546532902689770061
1.154828765223442355
1.1550350468909700297
1.1552227456738404232
1.155333435271446163
1.1553254250458018237
1.155190244322134685
1.154954842574233087
1.1546689402636642896
1.154389071562045288
1.1541605794041676081
1.1540059094034682552
1.1539237205692822741
1.1538994809957598964
1.1539144603029893865
1.1539514443738003724
1.1539987602717152182
1.1540466393872554907
1.154088492007537381
1.1541123546427014546
1.1541078466379617318
1.1540626721053115489
1.1539676215775793722
1.1538209321201657875
1.153629208564986186
1.1534086260912317368
1.1531845721601570176
1.1529885949962355163
1.152846830748749607
1.1527770940441803837
1.1527837334555253168
1.1528554520012710416
1.152965308789841048
1.1530793119492921406
1.1531662587982358659
1.1532038801051951449
1.1531820606884737312
1.1531042206029074038
1.1529833661496957653
1.1528382403617993823
1.1526918208195766624
1.1525643983139983728
1.1524735709789772908
1.1524308424722855548
1.1524350698057566067
1.152473096819313092
1.1525210240984260501
1.1525468179000715185
1.1525220336109838204
1.1524224096555253372
1.1522463578989872168
1.1520136776963407765
1.1517604267833214671
1.1515301456054376494
1.1513613746703554863
1.1512774818551501088
1.1512810181965442702
1.1513526832357530161
1.1514600345769696599
1.1515683533065177446
1.151648047622208404
1.1516766496622885541
1.1516411183342507574
1.1515349882004517479
1.1513557020895841543
1.1511089393822133697
1.1508096501132105693
1.1504840290498719035
1.1501705529804828743
1.149912717715605881
1.1497489228334378808
1.149701327077400137
1.1497655364903776043
1.1499128009856807164
1.1500971260343861857
1.1502627096368174264
1.1503649160488709224
1.1503749937431575479
1.1502938346960116522
1.1501411375847323537
1.149953270213102785
1.1497686309657804138
1.1496197666362961698
1.1495292261284486557
1.1495054713175996142
1.1495450054239670923
1.1496369866071649568
1.1497641939595584226
1.1499100156002077799
1.150059024072217051
1.1501944410198428059
1.1503016308998268435
1.1503659646462438548
1.1503785780196160715
1.1503350042821696153
1.150240726596165608
1.1501104796639156636
1.1499672760329191501
1.1498384513183534938
1.1497464173478555427
1.1497061989287613581
1.1497208711296491579
1.1497807586380572875
1.1498680740854727578
1.149963817708718361
1.150052999385477337
1.150126803516027918
1.1501800000880071373
1.1502118095208240245
1.1502248725067922841
1.1502252383907214384
1.1502205044904725284
1.1502177896618661634
1.150225025167460613
1.1502495370275869213
1.1502984061569860863
1.1503771267081088769
1.1504859987825475365
1.1506187199682142985
1.150764046781872052
1.1509053989449007371
1.1510241874140345608
1.151104447481611226
1.1511336343832430096
1.1511066281159669789
1.1510247378613056579
1.1508976119942180283
1.1507400165275243342
1.15056828553424495
1.1503988472421133871
1.1502431408714388628
1.1501107610166558803
1.1500043984314753942
1.149925754723607918
1.1498769310557566126
1.1498570576698219359
1.1498648665054018725
1.1498983381007481519
1.1499512629715495926
1.1500136815374211174
1.1500707974768134001
1.1501046578779150487
1.1501016610175760491
1.150052144263201459
1.1499601748949810354
1.1498382450846831304
1.1497084728372148899
1.1495966090199876142
1.1495235502175353837
1.149500556034086074
1.1495261059501946654
1.1495858087472012876
1.1496563077834365263
1.1497126598745797121
1.149732715663468241
1.1497036732749079668
1.1496255939716601979
1.1495106171513675974
1.1493778765913393869
1.1492488416374673221
1.1491443382891339819
1.1490788254866288742
1.1490597524816088537
1.1490873830920362852
1.1491552400029734216
1.1492517122241194816
1.1493583310290289567
1.1494580072089073397
1.1495327951425331481
1.149570031141833093
1.1495602814709098283
1.1495022297733119565
1.1493977480491850418
1.1492541811206140601
1.1490824488505420042
1.1488947033903138539
1.1487059649836122155
1.1485333542317788247
1.1483925054336254767
1.1482963125112788383
1.1482552374985897092
1.1482761628566604539
1.148360479708741444
1.1485017697169435102
1.1486862769663601647
1.1488939415147272349
1.1460154035459197974
1.1454200927277051747
1.1451361136546593933
1.145533810494120619
1.1465283568590012298
1.1477039802954032144
1.1475606433376877025
1.147052526901027214
1.1464421164123883567