/*--------------------------------*- C++ -*----------------------------------*\
  =========                 |
  \\      /  F ield         | OpenFOAM: The Open Source CFD Toolbox
   \\    /   O peration     | Website:  https://openfoam.org
    \\  /    A nd           | Version:  12
     \\/     M anipulation  |
\*---------------------------------------------------------------------------*/
FoamFile
{
    format      ascii;
    class       volScalarField;
    location    "0.0165";
    object      rho_0;
}
// * * * * * * * * * * * * * * * * * * * * * * * * * * * * * * * * * * * * * //

dimensions      [1 -3 0 0 0 0 0];

internalField   nonuniform List<scalar> 
75962
(
1.1424946212358522146
1.1434018106775631907
1.1443537748004206644
1.1454436560042784432
1.1461594852398357958
1.1457758201808054821
1.1445714915485898366
1.1444647382139347958
1.1454798028167230139
1.1464163472522912457
1.1465229851185336774
1.145708257528991636
1.1449246785162388029
1.1452671842375046207
1.1463297014052302725
1.1471807729061538339
1.1474197034950435192
1.1470105003302841773
1.1465738656858477373
1.1468366522018453857
1.1475268532901308216
1.1477457512633069125
1.1473031492149246002
1.146783971443589456
1.1465317778613477451
1.1465011562077871421
1.1466096362269682096
1.1468375205370597847
1.1470818190890952337
1.1473803533280377831
1.147717198345985512
1.1478669573790276637
1.1476598736622138919
1.147228181244946299
1.1469410965133830516
1.1470035819350363759
1.1472847210002647955
1.1475444719024354701
1.1476703257305058692
1.1477099198466829133
1.1476236720059114216
1.1474877986824485454
1.147443774141849504
1.1475321105061846438
1.1476784720995336642
1.1479376151025033614
1.1482290854631185262
1.1483899052529520368
1.1483777683166607186
1.1482865481222919168
1.1482003481896732033
1.148237372535579226
1.1485453132541716403
1.1491528577434355629
1.1498166269979075427
1.1502344520075948875
1.1503530251697022813
1.1502379322274201012
1.150026898404864717
1.1498565289190447736
1.1498588331602686008
1.1500865432550397838
1.1504345701108655842
1.1507296499406081125
1.1507542244868602666
1.1504239668241833527
1.1497798574921462844
1.1491041285650231973
1.1487647636645694771
1.1488413119857221467
1.1490806090569376519
1.1491928798373498566
1.1491298056741390266
1.1490353963966193351
1.1489550946867548298
1.1488179058605174632
1.148628191483448413
1.148568229212914904
1.1488223415059994892
1.1493161578751549534
1.1497720248654519359
1.1499598795991305966
1.1499040361277035327
1.1497208420889373226
1.1495650841968705347
1.1494604209906724712
1.1494558340173259836
1.1495383619520018748
1.1496304323372901202
1.1496666184685735423
1.1496975430833982212
1.149809871064359168
1.1499944983498897599
1.150108577411689037
1.1500715528531444409
1.1499460655356956718
1.1498956887926112813
1.1500237378805966415
1.1502962442129480714
1.1506135658706488911
1.1508720536498473486
1.151001382618602964
1.1509817744511972037
1.1508281621550031648
1.150582519912585644
1.1502876843899387804
1.1499690485166231824
1.1496920364081331112
1.1495560923697423217
1.1496078871194004289
1.1497972344110825027
1.1500276166593490501
1.1502440196193486344
1.1504376371328741691
1.1506033918762672563
1.150693131808746994
1.150673906026888238
1.1505807089111337316
1.1504972813043050639
1.1505106648101735001
1.1506459236828929793
1.1508767884622259636
1.1511491801809454749
1.1513943331962614991
1.151542671054513578
1.1515470770630731323
1.1514187191448230774
1.151238822310631793
1.1511256063005821382
1.1511571111234650822
1.151322905306852995
1.1515365633508298782
1.1516861614797926361
1.1517070786603844645
1.1516195633042274338
1.1515214883418751768
1.1515075458353274396
1.1515960083189169527
1.1517055121746828661
1.1517202258637704304
1.151583051342611963
1.1513452744097594227
1.1511034494335805611
1.1509359370920970722
1.1508526258384184082
1.1508272471391198799
1.1508268635499510069
1.1508395913923818998
1.1508612143771024261
1.1508678934144465078
1.1508433508547517565
1.1508042136305141057
1.1507971055944037353
1.1508645619442601227
1.1510191210338052148
1.151224795838945214
1.1514236960904045137
1.151565314891345837
1.1516342132640051688
1.1516355350793994194
1.151603511553133341
1.1515587725692395527
1.1515139283014830252
1.1514752248020265757
1.151445447193135907
1.1514359603842028168
1.1514576664370974601
1.151507726090387651
1.1515786757189920841
1.151664113782258303
1.1517580398437876621
1.151862754225369212
1.1519849370454962045
1.1521305274621405079
1.1522975686662002559
1.1524801278663083792
1.1526683921209652794
1.1528451158256491915
1.1529912770818813161
1.1530896355426756283
1.1531289141378824326
1.153110135836283634
1.1530483858774731587
1.1529747017760403338
1.152924091455127753
1.1529280592595678723
1.1530097452472769515
1.1531717212263727923
1.1558611176427888712
1.1558363516287546435
1.1558454521697019146
1.1558946828255987072
1.1559625719594974758
1.1560132982031539051
1.1560131469566690132
1.1559588085790728496
1.1558757098535143992
1.1558030865192874259
1.1557732247161198735
1.1557943201201388295
1.1558443508204949701
1.155890573494852136
1.1559095259543827883
1.1558963068956018549
1.1558625497512371449
1.1558312879022516473
1.1558174896386588237
1.1558200506696911791
1.1558267581662857726
1.1558256560451891648
1.155814262233685108
1.1558015767447329392
1.1558010353291010563
1.1558220120805891007
1.1558710881015383798
1.1559461178409566884
1.1560330548180499655
1.1561193898176636008
1.1561764766191355847
1.1561791824480085467
1.1561085422189083527
1.155971126698412732
1.1558031895796780919
1.1556575274261100539
1.1555846897555912545
1.1556023792763068236
1.1556922017816479986
1.1558128199137418513
1.1559151295483558464
1.1559712820805987388
1.155980094107328382
1.1559615505670719493
1.1559379105150306977
1.1559140393054863072
1.1558736686089379209
1.155793471432908337
1.1556586229652454634
1.1554756373888261933
1.1552752661062188899
1.1550984246629512064
1.1549883696890692608
1.1549721982962672939
1.1550511314233475879
1.1551962786225586921
1.1553550521399067463
1.1554763961323892829
1.1555196968748400188
1.155476112382209708
1.1553678209340820793
1.1552342748190218558
1.1551178216967366019
1.155044633769171103
1.1550151486247841603
1.1550143926363463098
1.1550272563664345515
1.1550495948677899083
1.155090904930157425
1.155163421216257813
1.1552687743389935537
1.1553881600006570274
1.1554859928562877247
1.1555208445505831261
1.1554613798269453007
1.1553005255042343435
1.1550603801036563034
1.1547880061918254224
1.1545358993526317892
1.154347275576092624
1.1542463386238852596
1.1542319828308309493
1.154281605411596745
1.1543599887006561477
1.1544296149004698027
1.1544616766165320954
1.1544426678557344612
1.154373076814288801
1.1542709405523003952
1.1541539524303137121
1.1540403289186913494
1.1539401067170502735
1.1538528389321087708
1.1537733547642796683
1.1536948207199191341
1.153613576688618636
1.1535318592762791035
1.1534539954383444815
1.1533910410885777065
1.153348019626670995
1.1533229122755137563
1.1533079259221632462
1.1532908245764357247
1.1532575452017979067
1.1531965561676320586
1.1531021703055455152
1.1529750069878981211
1.1528228829069337991
1.1526607990832586914
1.1525059036039222438
1.1523768315346958335
1.1522900350125679925
1.1522507446989624924
1.1522577232371671307
1.152296487018760196
1.1523436736888115206
1.1523739261024246172
1.1523620461813490756
1.1522968801874515776
1.1521811748328469882
1.1520314323180504967
1.1518704938879849031
1.1517257296438645486
1.1516182052258849833
1.1515565159672405127
1.1515385653856999859
1.1515555450778487412
1.1515948084504505911
1.1516433242526558089
1.1516876091438914553
1.1517146627202343723
1.1517094210724694303
1.151655959833628895
1.1515408964260287483
1.1513564346330726895
1.1511068056921076597
1.150811850044411111
1.150506046494328638
1.1502335666350911314
1.1500356904008124381
1.1499389349759547851
1.1499479503888030418
1.1500431783988551704
1.1501799888909984837
1.15031276502471691
1.150393216130936036
1.1503981949124115758
1.1503244729824753101
1.1501929467442140176
1.1500367522708436763
1.1498927118765542854
1.1497937476409758606
1.1497588090023866947
1.1497932503211063526
1.1498904499097650778
1.1500332605050713752
1.1501998853416330881
1.150367133216018356
1.1505136837193454813
1.1506245962309686881
1.1506892368741310495
1.150703511785930333
1.1506659647638652899
1.1505801750679161
1.150453369130797876
1.1502983594591713601
1.1501322053294051884
1.1499768648444259611
1.1498546266344784605
1.1497844913951285051
1.1497789263061584109
1.1498384339560503431
1.1499541561519630584
1.1501053566068524248
1.150266415660295749
1.1504096177378124732
1.1505121012384367241
1.1505603988826973438
1.1505533066257545016
1.1505017385422382503
1.1504225299961075013
1.1503400003134935936
1.1502769414466798015
1.150252292934751619
1.1502781751450503744
1.15035566554462787
1.1504742118464201805
1.1506163491596452797
1.1507607924721208192
1.1508853731539050447
1.1509724700283308074
1.1510116941271171243
1.1510016482196112619
1.1509474423015710887
1.150858676064087982
1.150746869628249458
1.150621370039223601
1.1504914887198121054
1.1503611184907729381
1.1502340868876932412
1.1501102193601686619
1.1499919998473269178
1.1498827238354984992
1.149788339783080815
1.1497167965036370063
1.1496757934156180969
1.1496677781072581759
1.1496901482572112752
1.1497309481414945687
1.1497735994097817436
1.1497969659015983002
1.1497854874664010794
1.1497298317347914853
1.1496334963010075292
1.1495107980971583927
1.1493872213474289889
1.1492908544609636845
1.1492446037285279914
1.1492624254648169391
1.149343614832018412
1.1494720554612498642
1.1496212005842683102
1.1497602646686202466
1.149861334597767959
1.1499060060065871003
1.1498892336459805019
1.1498190608316503081
1.1497131008431040744
1.1495940150678214398
1.1494853381586398466
1.1494055579453634763
1.1493649354063077972
1.149364626128829503
1.1493956707161643305
1.1494440758485113818
1.1494937211662006327
1.1495276757266050804
1.1495372977769922063
1.1495170056611079268
1.1494681052223953976
1.1493922801141149836
1.1492949282220923379
1.149178725611807117
1.1490498602473715462
1.148916857521619761
1.1487882769830286556
1.1486738103106102216
1.1485848183032592029
1.1485327168273873344
1.1485278878003040148
1.1485782350840667565
1.1486864837641859172
1.1488475783705369704
1.1490467646667588131
1.1460065502740008903
1.1457934289842530706
1.1446115819590696461
1.1447187845938016082
1.1450712208761604227
1.1442656559948822803
1.1437281356487134509
1.144657320134695011
1.1457741782524835106
1.1462400942362511724
1.1460882898170570154
1.1454941275378185406
1.1450761026998850234
1.1454224410807232193
1.1461226179627541644
1.1467090491885354453
1.1470681350132723164
1.146871143042177188
1.146484375506957365
1.1467895031975336995
1.1476017211200075785
1.1480140269594452107
1.1477349868810762246
1.1472075849485336985
1.1468431992419434451
1.1466347843161135422
1.1465515330600457578
1.146644533936051813
1.1468499855048472913
1.1470373248237615282
1.1473053567331232827
1.1476408342500323823
1.1477961023469003266
1.1476800279930101656
1.1475271595855327522
1.147611878748027836
1.1479283400046671471
1.1482630328698557598
1.148484488981998064
1.1485073524592592786
1.1481731926779010777
1.147562222956629574
1.1470691406838926518
1.1470761346890545607
1.1475525974491462833
1.1481810522378466111
1.148568038798675861
1.1486540052813289936
1.1485753882086582323
1.1484708911433028078
1.1484540390783191111
1.1485953722628092777
1.1489865219456656398
1.1495509340699829881
1.1501114366269236111
1.1505164741905966608
1.1506921878364133605
1.1506478205013455085
1.1504067003249067724
1.1501223091925465436
1.1499948874368359775
1.1500578199496960252
1.1501850114437852657
1.1502555147253934464
1.1501965763887018745
1.1499234765204695563
1.1494363682533395021
1.148920702216303269
1.1486208384363580937
1.1486290757071901947
1.1488080610801991721
1.1489617638325213544
1.149047615807617273
1.1491250572512858863
1.1491789893571884296
1.1491433290791510657
1.149034755090957205
1.1489989526383121987
1.1491481512351413574
1.1494212849265865728
1.1496601851557790575
1.1497592619498293587
1.1497024693109332283
1.1495615967737538021
1.1493787367460754911
1.1492533815980807699
1.1493102370962169356
1.1495612976414832929
1.1498818544325479785
1.150128594723541342
1.1502534001816813181
1.1503018196280285768
1.1503150438412175216
1.1502835307866774439
1.1501946164710072917
1.1500844303291637427
1.1500366381510314095
1.1501030897731967517
1.1502841800950363016
1.1505251044487887491
1.1507413526177960872
1.150836331769186982
1.1508051098453540018
1.1506969182629886994
1.1505972518868770038
1.1505046048859770558
1.1503625904305869732
1.1501685335305529279
1.1500069635895591169
1.1499781160768345334
1.1501080816198914203
1.1503439999568538799
1.1505998014254599227
1.1508162128917740485
1.1509369782101790403
1.1509189190028701333
1.1507733013572960523
1.1505781269884891582
1.1504337939934583535
1.1504182441714094765
1.1505448176895551882
1.1507765736872250795
1.15106230969810297
1.151340758229294714
1.1515314546178800903
1.1515581670695449468
1.1514246082096419865
1.1512145970677920559
1.151063488885887498
1.1510701784442021189
1.1512383095500453578
1.1514832705755098097
1.1516842669879188144
1.1517588083467287241
1.1517208587462974823
1.1516547692678626991
1.1516454311410848632
1.151717830936593634
1.1517938490055705802
1.1517638890590855549
1.1515816491736885485
1.1513114077799375679
1.1510775020391290635
1.1509590618655725081
1.1509685296380032238
1.151048344438160953
1.1511380533212687283
1.1512078050432050791
1.1512284985803402648
1.1511664649526403004
1.151025472332156685
1.1508537096145150525
1.1507251462805345721
1.1507049168755369983
1.1508084529697726328
1.1510036320535819154
1.1512368464335753782
1.1514448687431790841
1.1515815733226206774
1.1516243911378254428
1.1515820454265137673
1.151483469626511269
1.1513655747801350149
1.1512669566770381557
1.1512092743815625084
1.1511956515123076272
1.1512220763804048573
1.1512683880853600282
1.1513299478075331717
1.1514068098304381937
1.1515166722790994847
1.1516828882180589755
1.1519115653452594028
1.1521830349396910975
1.1524563322069707461
1.152684394155254477
1.1528332391232509746
1.1529041160242683439
1.1529260521805766437
1.1529371346402954579
1.1529525208910176293
1.1529685295526361788
1.1529700740174149143
1.1529564148228288456
1.1529513008425475995
1.152983628899516777
1.1530760884121833421
1.1532265012094473633
1.153405938236658157
1.1559674096848100433
1.1559464948807314233
1.1559135265380089397
1.1558944766703380669
1.1559033071755875355
1.1559306147867729475
1.1559451164017413571
1.1559180761646394853
1.155841868112142734
1.1557405102295470467
1.1556522114733198681
1.1556141173297416191
1.155642171931036577
1.1557229525257648461
1.1558211436977634534
1.1559009460623057564
1.1559378313614483424
1.1559277657426545449
1.15588772986392474
1.1558410201944941953
1.1558020777136357449
1.1557716718988797489
1.155745457069756732
1.1557217231493135401
1.1557027309930569814
1.1556997135471831495
1.1557265519467714299
1.1557817516992465734
1.1558647287413619242
1.1559595048971313958
1.1560460022819543102
1.1560985633035989473
1.1560911379551006561
1.1560166473808866083
1.1558902850703367537
1.1557500308634260922
1.1556457592094726561
1.1556126535756463536
1.1556587832738696164
1.1557602443149421756
1.1558675786777858896
1.1559322030282435101
1.1559386865289900115
1.1558993694173727018
1.1558444493828197164
1.1558007372629923726
1.1557742210229968727
1.1557450788830927468
1.1556830033915734823
1.1555641069087181361
1.1553858614121996773
1.1551768148429848448
1.1549859531062682816
1.1548644168053829873
1.1548485580226781622
1.1549427422067393145
1.1551190443206984515
1.155318831494559717
1.1554779313900023219
1.1555481296447462913
1.1555131040185717683
1.1553919496021416435
1.1552261423907506099
1.1550606026763516887
1.1549266814816616655
1.1548351566182268879
1.1547810170359804616
1.1547562638520634248
1.1547617187739676048
1.154809647474328127
1.1549107038153685334
1.1550626370451750891
1.1552411617433457902
1.1553979066307953349
1.1554820561927736655
1.1554542682946837839
1.1553065310750278982
1.1550620699724611917
1.1547721647963815617
1.1544960688065131205
1.154280745455609436
1.154150002496127092
1.1541045602379951251
1.1541250960134363801
1.1541802250050268164
1.1542399008142216754
1.1542824859391542791
1.1542962348075114232
1.1542791801543583752
1.1542353522444463998
1.1541699102100553276
1.1540876178688135312
1.1539875885569614855
1.1538678138586613287
1.1537284908482849932
1.1535733456714269973
1.1534118239319310906
1.1532597212093338435
1.1531365307189771485
1.1530558056197652839
1.1530245969040000542
1.1530353723883912664
1.1530723582437383268
1.1531124594448771692
1.1531334441264866619
1.1531194355196012769
1.15306365348406481
1.1529661033095708333
1.1528382350680985713
1.1526958001863898406
1.1525604379122207366
1.1524483217430732118
1.1523784571022590573
1.1523568842802356382
1.1523810669958187702
1.1524347625534097084
1.1524929684102225291
1.1525252491005286704
1.1525049650174457039
1.1524131831090804745
1.1522522524815752565
1.1520418360975885896
1.15181427506276024
1.151605506014157676
1.1514480730672373987
1.1513591519053729684
1.1513397734957273588
1.1513776251640575055
1.1514506785208606932
1.1515358579553502949
1.1516107542917104478
1.151656752622256974
1.1516563636858228037
1.15159717858899735
1.1514682028328273589
1.151264871833568737
1.1509954238529731541
1.1506820649420916869
1.1503646289040454498
1.1500893552738076231
1.1499003257693154456
1.149824168334196095
1.1498618498778736541
1.1499886034510435895
1.1501581886983780478
1.1503151958747781514
1.1504135160380661862
1.1504242827412431982
1.1503458852402912438
1.1502003074965623242
1.1500222321466919695
1.1498502297147421558
1.149716788674674417
1.1496430534966692871
1.1496362977043068643
1.1496924834878863297
1.149799657314322987
1.1499403353865773614
1.1500963344917991549
1.1502505037292654055
1.1503866999961935846
1.150491213300282034
1.150552778828930478
1.1505626876567627281
1.1505163304634618004
1.150417417179076196
1.1502776106595855587
1.1501163194146934998
1.1499585531299263419
1.1498299834305636402
1.149751110698103318
1.1497328691465837913
1.1497743821577390833
1.1498636120472478517
1.1499828078204454851
1.1501105772056792187
1.1502270292014353803
1.1503174439053729383
1.1503719570834767261
1.1503908585393696207
1.1503785828724713003
1.1503470916481139952
1.1503118784187353896
1.1502854962231294778
1.1502809252834480525
1.1503106042605730774
1.1503795074235405593
1.1504834080716939138
1.1506122360759356571
1.1507520195520477557
1.1508850667710093241
1.1509922425800578338
1.1510591744977911599
1.1510777285451980756
1.1510465704267782705
1.1509702740961071932
1.1508570975170073769
1.150718041686359161
1.1505637118620140047
1.150405244465582788
1.1502507869368752136
1.1501068401358731652
1.1499763300373246899
1.1498659771762937964
1.1497825343256831143
1.1497317799206066002
1.1497182546583517571
1.149741664029472199
1.1497959135971205225
1.149868249977622936
1.1499372460075556468
1.1499821711529170098
1.1499835127970985393
1.1499324899345906292
1.1498309135307709372
1.1496958330428275197
1.1495536370907977197
1.1494327555295154042
1.1493588022021932193
1.1493464872727476855
1.1493949740628177647
1.1494894953729748455
1.1496050478231232272
1.1497124500247326573
1.1497855262047051994
1.1498071742431243969
1.1497732068906640901
1.1496909972701008229
1.149577512184010164
1.1494546195956121259
1.1493442927190729019
1.1492638118120401813
1.149223652117220551
1.1492266039941134714
1.1492680410044073813
1.1493345964698935546
1.1494111517010894286
1.1494802820454452785
1.1495252400829318873
1.1495388208350367787
1.1495149548552183738
1.1494539491288653377
1.1493577785531763347
1.1492306398493228325
1.1490812528263696368
1.148920010524044244
1.1487587434166310896
1.1486106281176504673
1.1484890970946095567
1.1484073013543161235
1.1483766072821417481
1.1484048518073817213
1.1484945398515951087
1.1486413359091631747
1.1488331822017843198
1.1437594546350262625
1.1440583763203862055
1.1423701900887006655
1.1423844717962134965
1.1446810676059939738
1.1462494261297566656
1.1457715628665581242
1.1454164652762435228
1.1457759884956251195
1.1458239780505674599
1.1462466605686332244
1.1466826055120840078
1.1467276640038404079
1.1464962881305669207
1.1458843782851912962
1.1455230396090929634
1.1458406462838279793
1.146095376903347951
1.146135867591129287
1.1466075731484974831
1.1475046054156701203
1.1481358899767746262
1.1482347040050782105
1.1480134195168303357
1.1475693689302308709
1.1470172223374193177
1.1466669621852287886
1.1466823722900010285
1.1469329645466730394
1.1470652661923488314
1.1471460457144826428
1.1474216901762117615
1.1478430692884542541
1.1481306848284844602
1.1482243147266664174
1.1483603778705857579
1.148654219155153422
1.1489736469564688637
1.1491614762625885771
1.1490672565398536431
1.1485542429027686406
1.1477274754095627696
1.1472036780470327155
1.1473984468826343708
1.1481192041327383802
1.1487973234001884748
1.1491589618412489937
1.1491873652845621123
1.1489913421093105317
1.1486827596409407981
1.1484674739494220574
1.1485574004324403674
1.1489917204574280341
1.1496218308148618004
1.1502208962653988067
1.1506818965793104148
1.1509433428912096975
1.1509142697496430596
1.1505930369307917349
1.1501673812132753305
1.1499059072348880584
1.1498483956759988356
1.1498745862809442997
1.1498553170818412994
1.1497715264013323999
1.1495480597476119833
1.14918857805693575
1.1487627744070458835
1.1484318922301857135
1.1483601629571131841
1.1485261492029172903
1.1487951961395825862
1.1490793159389607325
1.1493355247131820107
1.1495016021443482668
1.1495120602347539407
1.149403109324470984
1.1492916324232906877
1.1492994169445895913
1.1494489230611597552
1.149630984361305952
1.1497358071539482971
1.1496607059397154771
1.1494753369719683533
1.1492396276013017165
1.1491614737535524871
1.1493393862406779959
1.1497372674238095502
1.1502229766656040244
1.1505975018217733385
1.1507182828150308573
1.1506154383273818897
1.1504146593474950944
1.1502457190539716603
1.1501509788771600018
1.1501358483199983773
1.1501841187492409802
1.1502988566033234274
1.1504790338480539447
1.150678776186480734
1.1508318497754717047
1.1508722440261975883
1.1508128325974895656
1.1507625606494154002
1.1507944552098059443
1.1508520540009403721
1.1508112566812764843
1.1506161190958323903
1.1503533077820382591
1.150196958149547255
1.1502667206541070666
1.1505311460920824018
1.1508519885327883614
1.1510940317503890462
1.1511725617328385507
1.1510708171707344505
1.1508361243289575437
1.1505819884658619046
1.1504280514389748635
1.1504338078539086965
1.1505884755558783983
1.1508404406028625022
1.151142449893717945
1.1514325964887184295
1.151634923155366641
1.1516657719740712729
1.1515073969178517554
1.151246743762801783
1.1510267683804047412
1.1509540541728167096
1.1510566934391710525
1.1512823739263864375
1.1515326157692422626
1.1517122582432297584
1.1517861386693426518
1.1517897734154380895
1.1517877109539729208
1.1518051640427744431
1.1518014118954424951
1.1517080298952797612
1.1515145435442766253
1.1512899782976289131
1.1511397479332670102
1.1511192016767912705
1.1512068672380180168
1.1513227001950245842
1.1513968412467256996
1.1514044725842003114
1.1513335161705287035
1.1511928222812664036
1.1510152452778090737
1.1508488672548289333
1.1507449399894562614
1.1507401405714896558
1.1508352433473461041
1.1510110439374305891
1.1512329260663762831
1.1514477964732914295
1.1516008994018473999
1.1516467851276144252
1.1515709316216675706
1.1514152543414997165
1.1512413453845666833
1.1511095276039851054
1.1510541820727790974
1.1510612033216935934
1.1510986995323666537
1.151137994050227098
1.1511757247042622154
1.1512320709006400588
1.1513576097273803267
1.1515920750613297674
1.1519345292256797375
1.1523312092541875273
1.1526963240731273874
1.1529450655226387568
1.1530320277567374099
1.1529870842035565559
1.1528891177731890316
1.1528191760939545674
1.1528171702304219615
1.1528729224848117685
1.1529512950872933263
1.1530290567230145893
1.1531110835190521158
1.1532108884956928652
1.1533305702898373202
1.1534447097533346849
1.1535241285080186646
1.156113398883374499
1.1560805729677821052
1.1560031520678037964
1.1559143400658848932
1.155848935022111279
1.1558171262445462446
1.1558047277073701942
1.1557849525925627532
1.1557360172628670103
1.1556610277134742315
1.1555830823814865482
1.1555378420084601032
1.1555526740440646982
1.1556316521995775304
1.1557557711704822268
1.1558801180970059708
1.1559670130394121834
1.1559931747947000957
1.1559605968776447416
1.15589260295036933
1.1558171931671783472
1.1557504909218452305
1.1556966271606581298
1.1556540750550117203
1.1556261313411315683
1.1556178932100884538
1.155637001146727405
1.1556875225499818605
1.1557641932377260563
1.1558536566125861
1.1559313889069222636
1.1559737834482501917
1.155964513753863887
1.1559023612383929613
1.1558080626844102756
1.155712321262093889
1.1556519725075145022
1.1556493143863237893
1.1557006930349009721
1.1557745954883575923
1.1558274709594240637
1.1558275744618189407
1.1557763258389128769
1.1556994568221685693
1.1556304191470869736
1.1555918589614646574
1.1555824333202284748
1.1555762365436674788
1.1555354651215297146
1.1554292142725191006
1.1552524084750210864
1.1550359179906766194
1.1548371013630487347
1.1547122021421520888
1.1547046241172052028
1.1548189805688402476
1.1550193205754222259
1.1552485647324195472
1.1554316625821328124
1.1555200973994002034
1.1554935993801351835
1.1553684070698040376
1.1551853972502938994
1.1549881978199458832
1.1548088725958622902
1.1546651530369249627
1.1545624254829960353
1.1545031401173870833
1.1544919737421228678
1.1545397224355318233
1.1546564358623012669
1.1548349186458102267
1.155042789742959819
1.155229801403040657
1.1553375604445867975
1.1553251590348467825
1.1551855933743224725
1.1549470403254606943
1.1546599429569639472
1.1543808632161789429
1.1541544156708223312
1.1540021020058817136
1.1539218631517766944
1.1538989531080610096
1.1539146194388083533
1.1539518923232030545
1.1539993712400336001
1.1540472853150418597
1.1540890116708981683
1.1541124174811010494
1.1541069834214561229
1.1540603034868801569
1.1539632849364034328
1.1538144649708910183
1.15362083448427577
1.153399151968249825
1.1531751842424298182
1.1529806635948154359
1.1528415538712226684
1.152775326255735644
1.1527856976046371162
1.1528605577468871157
1.1529723951637256274
1.1530869307642164223
1.1531731079074913904
1.1532090883211991716
1.1531853282471125066
1.1531055483314784915
1.152983256129979317
1.1528372253631771205
1.1526905736876322806
1.1525635553964996838
1.1524735369950844799
1.1524320121100486425
1.1524371624478233489
1.1524756869381933555
1.1525232338284763234
1.1525476170605033488
1.1525205723932474555
1.1524181542558644686
1.1522396243819323924
1.152005553736758392
1.1517523606511363976
1.1515235996352675141
1.1513574462983522384
1.1512766414326094377
1.1512829293908448669
1.151356321105736491
1.1514641582827258581
1.1515719371976862462
1.1516503702200786563
1.1516772942910249444
1.1516398303004973247
1.1515316337622272247
1.1513501545141531235
1.1511012645697569212
1.1508002378988375636
1.1504738308192630214
1.1501610901112961916
1.1499055561840685336
1.1497453744094727757
1.1497018642887251172
1.1497696122451539491
1.1499188563730629031
1.1501032205747026005
1.1502667638010091178
1.1503653984823973833
1.1503714381109968468
1.1502867115080690485
1.1501316398795109475
1.1499429499261191179
1.1497587673762206251
1.1496112563494789161
1.1495225458068405455
1.1495006062542578729
1.1495415499108576629
1.1496344897612322811
1.1497623120310676015
1.1499084646855786129
1.1500577092937815937
1.1501931461888490471
1.1503001120559086523
1.1503639224418054088
1.1503756750750404603
1.1503309486010222518
1.150235574196523558
1.1501045050408982284
1.1499610942175804151
1.149832713215089175
1.1497416564323243993
1.1497026277113691073
1.1497183904239658414
1.1497790593050600805
1.1498667072434891612
1.1499624391189957606
1.1500515416340943986
1.1501253308819769927
1.150178781666070682
1.1502110982736823974
1.1502248797748164666
1.1502261185303928048
1.1502222856985708788
1.1502205370782436766
1.150228774331733872
1.1502543062032282162
1.1503042281766882038
1.1503839517284772942
1.15049365386666258
1.1506268680813351857
1.1507721275618607581
1.1509127860190182524
1.151030235862340545
1.1511086067194145066
1.1511355318939484604
1.1511061611442965358
1.1510221489238694481
1.1508933172127329136
1.1507347108843501982
1.150562628385204178
1.15039351347021368
1.1502385921859459295
1.1501073477544729862
1.1500023602803823852
1.1499253452712430157
1.1498783187187318067
1.1498604676691537296
1.1498704044375103184
1.1499059271507015012
1.1499605860609722896
1.1500240099205909505
1.150081027795904598
1.1501136358156893724
1.150108365028233548
1.1500560675600510763
1.1499613534681654148
1.1498371198540129345
1.1497060356157646765
1.1495938921462358628
1.1495213026332276041
1.149499121421195813
1.1495252924076120316
1.1495850249224282003
1.1496548024225210494
1.1497097200093355784
1.1497279490288945247
1.1496971478325352933
1.1496180010443606268
1.1495030094345028981
1.1493714314650487207
1.1492445355570459764
1.149142888145903374
1.1490805052598944691
1.1490643226300214508
1.1490941261986131749
1.1491631240365600686
1.1492596271888975146
1.1493652727072567465
1.1494630938786674079
1.1495355316669551016
1.1495701320423008518
1.1495578328744222585
1.1494974698501587707
1.1493910590806653005
1.1492461614145468296
1.1490737680575597857
1.1488860168566414899
1.1486978676562169532
1.1485263212316760839
1.1483869088132563352
1.1482924278776602822
1.1482532313035624938
1.1482760744420899002
1.1483621725357517906
1.1485049296005693797
1.1486904269218978225
1.1488984188091475591
1.1458122787283899768
1.1454023078511539335
1.1451328066355279667
1.1455467515453638949
1.1465549779597761226
1.1477136295718861625
1.1475434341427741547
1.1470332685325603794
1.1464036996967150728