/*--------------------------------*- C++ -*----------------------------------*\
  =========                 |
  \\      /  F ield         | OpenFOAM: The Open Source CFD Toolbox
   \\    /   O peration     | Website:  https://openfoam.org
    \\  /    A nd           | Version:  12
     \\/     M anipulation  |
\*---------------------------------------------------------------------------*/
FoamFile
{
    format      ascii;
    class       volScalarField;
    location    "0.012";
    object      alphat;
}
// * * * * * * * * * * * * * * * * * * * * * * * * * * * * * * * * * * * * * //

dimensions      [1 -1 -1 0 0 0 0];

internalField   nonuniform List<scalar> 
75962
(
5.5465832079282607997e-07
6.9169059727543739642e-07
7.6269131158574324121e-07
8.5622025492862640842e-07
1.0417209504152224248e-06
1.2181029570646629864e-06
1.3057288076680972834e-06
1.3543300446042898538e-06
1.4471539678024371676e-06
1.5660425263691916092e-06
1.6521757726802826836e-06
1.709005452774530045e-06
1.7777460711095386006e-06
1.8803246199462586932e-06
1.9895609151101906946e-06
2.0673870722450644244e-06
2.1078956928117546722e-06
2.1422073516574285286e-06
2.2109774109572726882e-06
2.3329731743013813483e-06
2.4884298996462148886e-06
2.6571737690849228651e-06
2.8129179874852388332e-06
2.9363410702228965724e-06
3.0309887007287430564e-06
3.1104777609737739755e-06
3.1771780669423911732e-06
3.2220772338333757374e-06
3.2467571952988677733e-06
3.2735435387607866156e-06
3.3325413782808276634e-06
3.4511331565073056879e-06
3.576811008008468121e-06
3.6755403120326890292e-06
3.7347997941611413536e-06
3.7669196099045352302e-06
3.8030337357183804258e-06
3.8798199618956369554e-06
4.0683942196710908384e-06
4.2949672587960644179e-06
4.4731375765758802699e-06
4.5858463878530587618e-06
4.6402665170709371542e-06
4.6565063246724178241e-06
4.6567767714016712288e-06
4.6564113023581633574e-06
4.6653316314236919227e-06
4.7127689055388232527e-06
4.8590232351264502517e-06
5.0078481045723238015e-06
5.1067754118574673565e-06
5.1629225530043996092e-06
5.190841635686455691e-06
5.2103355663923655244e-06
5.2424224045282516148e-06
5.3151739795092778208e-06
5.457016800913879487e-06
5.618033867021897039e-06
5.769453799614291375e-06
5.8879585103037678775e-06
5.9623587956925193192e-06
5.9965027614799664069e-06
6.0061618245280138588e-06
6.009469860794527234e-06
6.0192684819646379945e-06
6.0543441222705452474e-06
6.1775174392260764666e-06
6.3933505096462128688e-06
6.5804361382894338458e-06
6.7242441392739355947e-06
6.8217242806930205825e-06
6.8766312620897825813e-06
6.8997547414430452739e-06
6.9052387615336873725e-06
6.9056810390189169433e-06
6.9101659421790753051e-06
6.9276093183636097377e-06
6.9894641023404142477e-06
7.1282902912289306026e-06
7.254833139889014036e-06
7.3451569626401374673e-06
7.3950801720355002137e-06
7.4131921238495062127e-06
7.4153292157988576964e-06
7.4165633775701504644e-06
7.4268745165891278075e-06
7.4604750711682527909e-06
7.5373090970522476319e-06
7.6325934462911376477e-06
7.7266161055820862667e-06
7.8047437770522431745e-06
7.8659439324913291446e-06
7.9216252210477968029e-06
7.9857767166805770795e-06
8.0645735915396788503e-06
8.1529725195164568066e-06
8.2371749316410983806e-06
8.3042543259155880507e-06
8.3488998810289851576e-06
8.3755558399263426654e-06
8.3937226335680974128e-06
8.4112321426905630459e-06
8.4310900426015718316e-06
8.4514622236358864467e-06
8.4687212580935053934e-06
8.4831796843429559541e-06
8.5018899750695028916e-06
8.5365872519588541657e-06
8.5965566673056251885e-06
8.6815351004826398716e-06
8.780314388918036882e-06
8.8770036902393252733e-06
8.9608424437685220421e-06
9.0294667212314115107e-06
9.08645513027320521e-06
9.1381163528611714493e-06
9.1895593845333513582e-06
9.2436082486446218871e-06
9.3006120007313823064e-06
9.3573878857196937924e-06
9.4085141830547141921e-06
9.448377362539684367e-06
9.4744711829576778458e-06
9.4875769725015556504e-06
9.4904666227863873623e-06
9.4869859727416979529e-06
9.4814514433039424435e-06
9.4782239871563301247e-06
9.4830606777771699571e-06
9.5151761591545204e-06
9.6261070107311959596e-06
9.7722702590338095539e-06
9.8905908803160709415e-06
9.9786265119391568675e-06
1.0039270915464805321e-05
1.0079100563940931011e-05
1.0107039825269098035e-05
1.0131833025497545428e-05
1.0160698305469014074e-05
1.019752273991537558e-05
1.0243133854508692845e-05
1.0295959119507274283e-05
1.0352460676343313103e-05
1.0408497114344196784e-05
1.0459072232524407853e-05
1.0498763169981495066e-05
1.0524957062618022679e-05
1.0537203366819313183e-05
1.0539228352411664967e-05
1.0535822669488527901e-05
1.0531220181358911901e-05
1.052774493207446008e-05
1.0532326962221015584e-05
1.0569157634715793464e-05
1.0649298358364440181e-05
1.0721631312546963958e-05
1.0780530509987361722e-05
1.0826175607308487626e-05
1.0862249547900242925e-05
1.0894272642004820993e-05
1.0928659726776666415e-05
1.0969457118524344151e-05
1.1017980294339114821e-05
1.1073524700570244782e-05
1.1132247972619834005e-05
1.1189910528371798626e-05
1.1240597769908549836e-05
1.1278481426718500627e-05
1.1299758323916300247e-05
1.1305744788636110169e-05
1.1301579773675795635e-05
1.1293656150160851913e-05
1.1277818528153158931e-05
1.1260626384383158122e-05
1.1252245551475278007e-05
1.1248141293262313935e-05
1.1256485177948703631e-05
1.130491183324257076e-05
1.1378218572206568249e-05
1.1438248265625154448e-05
1.1488727094925126878e-05
1.1535350649071072566e-05
1.1580964916304183884e-05
1.1628081894478677235e-05
1.167544107745519708e-05
1.1722543150356809274e-05
1.1766608637989898624e-05
1.1805701493960070887e-05
1.2409193240152818045e-05
1.2418889808134145553e-05
1.2479321242194551476e-05
1.2584726705917850586e-05
1.2681525234090044153e-05
1.2766357530517649112e-05
1.2836026838045478635e-05
1.2888033463079710082e-05
1.2923735498770326754e-05
1.2945887896671189052e-05
1.2958819291318534483e-05
1.2964463733911784987e-05
1.2965210321588121694e-05
1.2961298741034853166e-05
1.2953931094027919163e-05
1.2944286785641011364e-05
1.2925871514980541424e-05
1.2877893607639926803e-05
1.2786001039018803411e-05
1.2705607770038482375e-05
1.2643052183262767403e-05
1.259846400610300581e-05
1.2569168708986770797e-05
1.2550960290363197071e-05
1.253961817013588169e-05
1.2531919895209922813e-05
1.2533393752525619021e-05
1.25639137775412909e-05
1.2675607777779669233e-05
1.2827938431643119718e-05
1.2959556902564517094e-05
1.3064546737663012123e-05
1.31402173323608917e-05
1.31876919007215355e-05
1.3212557256804604523e-05
1.3221724558276330431e-05
1.3221952104925491599e-05
1.3218105792664950048e-05
1.3212504263742698847e-05
1.3206296388191682823e-05
1.3197687356636800379e-05
1.3178246709804566334e-05
1.312381091589229619e-05
1.3025401422552102977e-05
1.2935037868223878824e-05
1.285916852499876388e-05
1.2799370110410405256e-05
1.2756410692437729465e-05
1.2728481870421075182e-05
1.2712224289116360663e-05
1.2702413752929817334e-05
1.2697263367411884338e-05
1.271245087376962751e-05
1.2797697054377861394e-05
1.2976426643499220203e-05
1.3130756496046520191e-05
1.3249937600344641609e-05
1.3334877403230944686e-05
1.3391783704382407015e-05
1.3427288429725663736e-05
1.344797515075502113e-05
1.3458160005675044423e-05
1.3460192000943515178e-05
1.3456160053974185143e-05
1.3448063648209629956e-05
1.3438580743234096709e-05
1.342658169831371878e-05
1.3405185529379084003e-05
1.3352963229715328019e-05
1.3248726010625066273e-05
1.3145573007475625936e-05
1.3052745183847741579e-05
1.2973760897472719046e-05
1.2912212659801788772e-05
1.2869175290668434679e-05
1.2843597674980555809e-05
1.2830427095150531878e-05
1.2822638104960669197e-05
1.2829736526092424742e-05
1.2889962323827808746e-05
1.3059952075012198341e-05
1.3224640552844467407e-05
1.3352977467260027672e-05
1.3447076876780217236e-05
1.3511143180006264283e-05
1.3550543258078844486e-05
1.3571896768798250363e-05
1.3580959438302174454e-05
1.3581208613927125305e-05
1.3575352038896317932e-05
1.3565923347504115986e-05
1.3555082237446322704e-05
1.3540425768624208514e-05
1.3513251047960341233e-05
1.3444173338209907065e-05
1.3294657437548039244e-05
1.3150568853801108005e-05
1.3034471470105682127e-05
1.2951370447535455525e-05
1.2901081003279663006e-05
1.2877205531488030717e-05
1.2866974266963173277e-05
1.2866379209158503193e-05
1.2900391743507721277e-05
1.3030328550453948683e-05
1.3189536513757518809e-05
1.3313009837565454056e-05
1.3402880966942546734e-05
1.3463422924347962263e-05
1.3501267050387789816e-05
1.3523102071093016666e-05
1.3535092931537202795e-05
1.3541967736055713554e-05
1.3546789676048764399e-05
1.3552336272888063334e-05
1.3557626933222403519e-05
1.3561102258202415458e-05
1.3560945906329614742e-05
1.3556217877929064127e-05
1.3548161718612528897e-05
1.3536076890751809194e-05
1.3507944937569883493e-05
1.3424734672393833865e-05
1.3228299964740618843e-05
1.303860480626905308e-05
1.2892667476518478609e-05
1.2796023280851392338e-05
1.2745429837588861225e-05
1.2724601788937425157e-05
1.2717048669440272275e-05
1.2737593918186212557e-05
1.2855795704609442211e-05
1.3112753723738420454e-05
1.3334564649434635657e-05
1.3511065001975556329e-05
1.3650222657130253026e-05
1.3764763350221650043e-05
1.3865772281544073839e-05
1.3959021874326656598e-05
1.404213896919701224e-05
1.4107554307397058329e-05
1.414872730252760485e-05
1.4163110101111734743e-05
1.4158254704330430567e-05
1.4141511307177475934e-05
1.4086129818256181801e-05
1.390126151193590029e-05
1.3629322525604415151e-05
1.3427361547873166379e-05
1.3302756258621080415e-05
1.3242643447412718298e-05
1.3220503255548838749e-05
1.3215095744965754489e-05
1.3251022541065690986e-05
1.3370683805611717203e-05
1.3471580903887176147e-05
1.3532508200578355497e-05
1.3562890179627378075e-05
1.3573850683375873944e-05
1.3574798758020565934e-05
1.3572251312220604696e-05
1.3568850595627205289e-05
1.3564661810120277061e-05
1.3558706205177364302e-05
1.3547950092558938768e-05
1.3521611116960172345e-05
1.344661734263564968e-05
1.3279343988370146589e-05
1.3112724747585139599e-05
1.2970681749212116464e-05
1.2857669119240108479e-05
1.2775478393123984223e-05
1.2721033197571255836e-05
1.2688718715277236821e-05
1.2671244842217509321e-05
1.2661349385134492852e-05
1.2654755037168616947e-05
1.2655281741343605192e-05
1.26733388822573613e-05
1.2693679038096034576e-05
1.2706425503104301823e-05
1.2712463678078837171e-05
1.271211081619321168e-05
1.2706771829868955244e-05
1.2698301493160165727e-05
1.2688118378687653616e-05
1.2675853967685715983e-05
1.2657687943200811128e-05
1.2621863302517253677e-05
1.2567854750775406099e-05
1.2516715746217953539e-05
1.2469916962666052651e-05
1.2428635555512217143e-05
1.2393383460365634831e-05
1.2363787058541868535e-05
1.2340036141191670146e-05
1.2321474988023667802e-05
1.2307403795078788889e-05
1.2296955494878638161e-05
1.228877352783392361e-05
1.2282056089355079559e-05
1.2277111185193530056e-05
1.2276626659898207025e-05
1.2281773646473449269e-05
1.2285972106248416991e-05
1.2288368584972510203e-05
1.2289204616635858975e-05
1.2288702687489255419e-05
1.2287383046894011083e-05
1.2285428399640975597e-05
1.2282820625074500906e-05
1.227951315297530103e-05
1.2274183514971593654e-05
1.2263962093137324632e-05
1.2251720405225618402e-05
1.2240172469060086937e-05
1.222967784199510486e-05
1.2220443464855172973e-05
1.2212051142081152899e-05
1.2204825962945876151e-05
1.2198226120616840139e-05
1.2191453915279130269e-05
1.2184316359254804569e-05
1.2176865666645354412e-05
1.217002048411631936e-05
1.2167495195984954909e-05
1.2170449608195931361e-05
1.2172093322054424429e-05
1.2172269804350332466e-05
1.2170804605033614591e-05
1.2167801148538445426e-05
1.2163490630789158348e-05
1.2158372054101305968e-05
1.2152503866893936077e-05
1.2146303699798416688e-05
1.2139860170871676263e-05
1.2132996812088550097e-05
1.2124881957925160125e-05
1.211221348416819284e-05
1.2095749609725478575e-05
1.2079977686490186558e-05
1.206527408738952932e-05
1.2051810624418640911e-05
1.2039653680692595768e-05
1.2028726799680891711e-05
1.2018787030419480981e-05
1.2009389496487086896e-05
1.2000347947287856183e-05
1.1991949108246319891e-05
1.198585440625949265e-05
1.1986313569877207123e-05
1.1990978844610977535e-05
1.1994742966026816127e-05
1.1996960865724522649e-05
6.0459489447187454517e-07
7.4499784195402683119e-07
8.2365054081303346194e-07
9.0311238353280723591e-07
1.0541543124787346286e-06
1.2014864369637947279e-06
1.2870001260619686696e-06
1.3593346604392001355e-06
1.4762913671105488925e-06
1.6282044668981725969e-06
1.7536868267513024511e-06
1.8164978162701571471e-06
1.8658773592296210282e-06
1.9646402928138506919e-06
2.0855929228261878251e-06
2.1920737478820733247e-06
2.2797094167704546267e-06
2.3584455390847332219e-06
2.4352096904013345799e-06
2.5173299293271737388e-06
2.6192207773730978271e-06
2.7514803661641740132e-06
2.9026969910128596104e-06
3.0471346144782682639e-06
3.1683181055440866828e-06
3.2627560684115438802e-06
3.3288757316782804391e-06
3.3669151051078890819e-06
3.3922688215414738444e-06
3.4341043686534957014e-06
3.5285910074066860022e-06
3.6713384114894435935e-06
3.8201309814161190246e-06
3.9444950520063005897e-06
4.0269446760765042285e-06
4.0701744200989626405e-06
4.0971614476984971869e-06
4.1418713459449370639e-06
4.2537306360896510175e-06
4.4710216541276978804e-06
4.6606975845536781559e-06
4.78575946027461644e-06
4.8484616508149183775e-06
4.8696678507702148859e-06
4.8743458201834561656e-06
4.8801157285936917071e-06
4.8996076601074307831e-06
4.9721600922283584796e-06
5.1554478949839999762e-06
5.3269055504287644748e-06
5.4488702305402073799e-06
5.522080653043273271e-06
5.5584141629849480469e-06
5.5772864863675795295e-06
5.6006897420161985159e-06
5.6505077811265997702e-06
5.7417020051789483993e-06
5.8661681544314617939e-06
6.0059630356446797668e-06
6.1341249334694180161e-06
6.2276737160270843546e-06
6.278794221326429586e-06
6.2965561895421216161e-06
6.3011497446957525826e-06
6.3112315908052516231e-06
6.3438959185327669531e-06
6.448532193398671688e-06
6.6124796439523019482e-06
6.7640620963678747737e-06
6.8900441660879792067e-06
6.9837221193163354926e-06
7.0466073787570601388e-06
7.0885115411125641362e-06
7.1251071573561360593e-06
7.1700493559463979136e-06
7.2319303967269769269e-06
7.3133336265712963392e-06
7.4086975965400106775e-06
7.506116598996508299e-06
7.591346888027147723e-06
7.6522046810253607134e-06
7.684732575412176809e-06
7.6946437902739505885e-06
7.6945285133697512354e-06
7.6974595258282483222e-06
7.7152320991095915822e-06
7.7821512189665150686e-06
7.9090144779834144635e-06
8.0234321483505524836e-06
8.1190619427770689996e-06
8.2053867857874230641e-06
8.2955543284849078944e-06
8.3912242169415728169e-06
8.4829665413940748763e-06
8.5598140304740979436e-06
8.6171432805710631821e-06
8.6576134367447113167e-06
8.6892559500564382823e-06
8.7212461695709541103e-06
8.758643127188848264e-06
8.7994485304483765185e-06
8.8359541548173792838e-06
8.860989396302384433e-06
8.8731243941330485329e-06
8.8771031285117201441e-06
8.8812542969295223176e-06
8.894911001810002941e-06
8.9333700442688737301e-06
9.036937531238836734e-06
9.1792476289903938112e-06
9.31681229720052523e-06
9.4293384838046809005e-06
9.509267278659020269e-06
9.5631702777794878352e-06
9.6032658847165004479e-06
9.6411529124144349954e-06
9.6840578195364824437e-06
9.7347880970421702491e-06
9.7929716912901392732e-06
9.8552953102480278031e-06
9.9164346905624907479e-06
9.9698296186835304983e-06
1.0010118909406618985e-05
1.0034878375417047959e-05
1.0044765749553492097e-05
1.0044308013050099319e-05
1.0040450064991970409e-05
1.0040854606447566864e-05
1.0054849562422397399e-05
1.0109307042360572454e-05
1.0198701482968258131e-05
1.0283842619265971973e-05
1.0356111973692488356e-05
1.041347442123366905e-05
1.0459717868561611652e-05
1.0502219572878334481e-05
1.0548198788619169564e-05
1.0602130012907887732e-05
1.0663884757353687244e-05
1.0729472570372436743e-05
1.0793690501419730922e-05
1.0851964909298087098e-05
1.0901956046545849193e-05
1.094307840330488358e-05
1.0974281202443092573e-05
1.0995439337075858232e-05
1.1006032762786748978e-05
1.1008503102535013285e-05
1.1006388378160677244e-05
1.1004506990261379542e-05
1.1006967463007344678e-05
1.1025211002576432826e-05
1.1099251285765827872e-05
1.1229034353601410307e-05
1.1344907220442511123e-05
1.1437028154556540664e-05
1.1503483988752924197e-05
1.1548901302202146466e-05
1.1582171575569890284e-05
1.16120336389298967e-05
1.1643952979946790166e-05
1.1679291629036582666e-05
1.1716146296413010465e-05
1.1752691590006685129e-05
1.1786468453327727588e-05
1.1816802606863823275e-05
1.1841938411559088933e-05
1.1860012344252334339e-05
1.1868848605757404793e-05
1.1869037029216928267e-05
1.1863765670722304811e-05
1.1856591445417369028e-05
1.1845827990915199873e-05
1.1836375221258213424e-05
1.183165705991961004e-05
1.183170264611207454e-05
1.1853137038674588854e-05
1.1934157956291683813e-05
1.2026518190421431171e-05
1.2099814418193009338e-05
1.2161289175847639577e-05
1.2217640450320137492e-05
1.2272236419983999949e-05
1.2325060039830173123e-05
1.2374451688006261204e-05
1.2417893508374256318e-05
1.2453328611626739557e-05
1.2478906052335517801e-05
1.2495018416449551414e-05
1.3043645494104107977e-05
1.304834463343652064e-05
1.3101374721518097583e-05
1.3234494587823381287e-05
1.3356668468685802686e-05
1.3456903806167942392e-05
1.3534001675009561916e-05
1.3587581123370865292e-05
1.3619090041457035636e-05
1.3632297991391080117e-05
1.3632646928953558892e-05
1.362558205236666801e-05
1.3616653786947024627e-05
1.360780372238822413e-05
1.3599398416077742324e-05
1.3591160058528814686e-05
1.358048214888009505e-05
1.3559082106730535011e-05
1.3502682083982054054e-05
1.3410643270727522978e-05
1.3329999297848783502e-05
1.3265699928169775526e-05
1.3219352551166310206e-05
1.3188722968334555064e-05
1.3170419070783730015e-05
1.3159023634695734756e-05
1.3151998601026337576e-05
1.3158901763166847766e-05
1.3210833553311898556e-05
1.3354302963642093364e-05
1.3499427864504074542e-05
1.3621012299665598009e-05
1.3717796407203982864e-05
1.3790080255201739065e-05
1.3841562939655167373e-05
1.3876127071631111181e-05
1.3898616643385789337e-05
1.3911780946328784799e-05
1.3917581487700425761e-05
1.3917554461865227464e-05
1.3912967952263799337e-05
1.3905810630284072549e-05
1.3891795726229046689e-05
1.3854839025655953645e-05
1.3760483914243224341e-05
1.3652928843034617274e-05
1.3562568275639524034e-05
1.3490916289779786985e-05
1.3439578797529503265e-05
1.340668510034853421e-05
1.3388400242373831462e-05
1.337804223761694436e-05
1.3373669599616138442e-05
1.3395314368227838225e-05
1.3504876992870185369e-05
1.3694190419630987218e-05
1.3848606941349296418e-05
1.3963577994354394376e-05
1.4042676912268437796e-05
1.4093843625231725154e-05
1.4124463294164268571e-05
1.4141129400729202131e-05
1.4147977885809457757e-05
1.4147266893491463897e-05
1.4141130013261135536e-05
1.4131558588801450355e-05
1.4121067234935757675e-05
1.4108033273797989063e-05
1.4085204540519510931e-05
1.4029745467045617364e-05
1.3920675166333483109e-05
1.3811213965663490807e-05
1.3710115607325276536e-05
1.3621584824633565565e-05
1.3550167450152282724e-05
1.3498782369964791843e-05
1.3466856730762104478e-05
1.3450300736792900679e-05
1.3440638901846897513e-05
1.3439804796018425172e-05
1.3472864465529664477e-05
1.3604018782385762787e-05
1.3774965280783558504e-05
1.3915583115154559016e-05
1.402758793384113624e-05
1.4115232103982246577e-05
1.4182960368917875188e-05
1.4234250322361059892e-05
1.4271339731825555022e-05
1.4296404483976447186e-05
1.4308860540125653026e-05
1.4310062340749103e-05
1.4302008560432305455e-05
1.4290095490078999518e-05
1.42714840487439103e-05
1.4228941429378494642e-05
1.4109296783913803322e-05
1.3935636597925672879e-05
1.3794097049083125676e-05
1.3691585426446074429e-05
1.362763439521546413e-05
1.3595659534356793226e-05
1.3582881534659310265e-05
1.3578486213325300841e-05
1.3598729661559591308e-05
1.3692952464571153846e-05
1.382339080044355828e-05
1.3926251307551151259e-05
1.400388199124887128e-05
1.4060825855588484184e-05
1.4101006220986808925e-05
1.413063840832918184e-05
1.4153537313052793267e-05
1.4173463906152966582e-05
1.4191806910919900741e-05
1.4209652567017633609e-05
1.4226781118964141397e-05
1.4239730113605389355e-05
1.4246853674905109131e-05
1.4246319232949667684e-05
1.4239632258459743142e-05
1.4229216631922746622e-05
1.4208675485103517506e-05
1.4150793139357605341e-05
1.3983464535630592127e-05
1.377227048147265816e-05
1.3606054601828648109e-05
1.3492256230206049465e-05
1.342977983423602155e-05
1.3403349584175806283e-05
1.3392974008058870569e-05
1.3403413831599046428e-05
1.3488327293159048118e-05
1.3744150519153235275e-05
1.4005785918784614843e-05
1.4208154831981766161e-05
1.4360276362905965246e-05
1.4477407724876153241e-05
1.4577144060052909811e-05
1.4670348026831876462e-05
1.4759398596038532457e-05
1.4835542989416816093e-05
1.4889388168571078479e-05
1.4914093113261241868e-05
1.4914150064289794097e-05
1.4900671302702062191e-05
1.4858739245791311402e-05
1.4711893298946046604e-05
1.4425164951305815308e-05
1.4199586923712295905e-05
1.4055366396535009518e-05
1.3982848749730868201e-05
1.3954961336165749676e-05
1.3945437794453029656e-05
1.3966552473646498851e-05
1.4065409656693868558e-05
1.416579199180542947e-05
1.4228446263174541101e-05
1.4262594717561721583e-05
1.4278772102114242938e-05
1.4285047990480487318e-05
1.4287045703327324922e-05
1.4286499403004634102e-05
1.4283862337084533687e-05
1.427897902625159498e-05
1.4270710419439608624e-05
1.42528461405896673e-05
1.4204742029873042387e-05
1.4070324542824432491e-05
1.3890269435609737514e-05
1.3735585983234908407e-05
1.3611255067543853785e-05
1.3519255862463383427e-05
1.3457304752979696279e-05
1.3419657808046191113e-05
1.3399018015218211545e-05
1.3387806408718088609e-05
1.3380284661276679688e-05
1.3376732862855249338e-05
1.3384601664043389936e-05
1.339698393742075375e-05
1.3403546534379697029e-05
1.3404319346261724089e-05
1.3399890802018756388e-05
1.3391915283921566884e-05
1.3381779279312773951e-05
1.3369951659007841809e-05
1.3353575122465790725e-05
1.3323693469435383339e-05
1.3270463251675150516e-05
1.3217555172114171466e-05
1.3169100168289594232e-05
1.3125574307678610007e-05
1.3087712782851991541e-05
1.305567783708491438e-05
1.3028815091459865506e-05
1.3007063732451073517e-05
1.2989858870098166898e-05
1.2976483135119004419e-05
1.296627860960550369e-05
1.2958121242785370058e-05
1.2951422254267809625e-05
1.2946125287567764866e-05
1.2943956881667189051e-05
1.2944785473792863768e-05
1.2944949902275034459e-05
1.2944233595753734474e-05
1.2942816413104429123e-05
1.2941028883161245547e-05
1.2938889036559492732e-05
1.2936242902484324866e-05
1.2933044873545103954e-05
1.2928415214753676457e-05
1.2920172597738586469e-05
1.2909533474420877868e-05
1.2899036369961158546e-05
1.2889035373695327714e-05
1.2879874901780407487e-05
1.2871535229245954782e-05
1.2864048641949303432e-05
1.2857508326822214944e-05
1.2851280507574827696e-05
1.2844747556056702244e-05
1.283785094083788823e-05
1.2830519294519344826e-05
1.282412192939092518e-05
1.2822372909856045512e-05
1.2823203336846549004e-05
1.2822302914783459968e-05
1.2819784650292086255e-05
1.2815755147558621833e-05
1.2810460988821057771e-05
1.2804381526912532175e-05
1.2797672328162540417e-05
1.279077586125882108e-05
1.2783742483873804425e-05
1.2776389097358409206e-05
1.2767751119394244919e-05
1.2754784735851490508e-05
1.2739717493265939553e-05
1.2725770990281697956e-05
1.2712787539240380616e-05
1.2700967191750499273e-05
1.2690219068730426358e-05
1.268038495597051968e-05
1.267091153673228414e-05
1.2661578370668582721e-05
1.2652355303346989106e-05
1.2643680063184698029e-05
1.263679163673241289e-05
1.2634826726809679108e-05
1.2635815737052335644e-05
1.2636105739070694836e-05
1.263542238848569089e-05
1.2633795253692903969e-05
6.2657318005317553686e-07
7.4494084250448719448e-07
8.1625592216489604166e-07
9.5320689028827955547e-07
1.1208553867269760699e-06
1.208145587170315464e-06
1.2781784962689120214e-06
1.4273915421049659181e-06
1.6087502274564191828e-06
1.7255108875454973034e-06
1.7989303856204300834e-06
1.8835542487489781956e-06
1.9967974544769341455e-06
2.1004131917472960162e-06
2.16527182071829463e-06
2.223436546510340713e-06
2.3212649698507755564e-06
2.4499284799033205199e-06
2.5634407502829188556e-06
2.6432984428293678883e-06
2.7174151338649614224e-06
2.82839025709601713e-06
2.9828097407898038239e-06
3.146868590087953024e-06
3.2863798846792076361e-06
3.3887288266942472754e-06
3.4563102195643434944e-06
3.499014331825756198e-06
3.5379998377174051302e-06
3.6005039235793032202e-06
3.7047920040797933492e-06
3.8493251489825487899e-06
4.0128419774476713688e-06
4.1619932821236449016e-06
4.2682750793835655143e-06
4.3248519004170666238e-06
4.3521979302201611512e-06
4.3880548134778323065e-06
4.4750545373998371185e-06
4.6820440715320380302e-06
4.8828230940036949608e-06
5.0146133656899899807e-06
5.079705276120608087e-06
5.102081272993770889e-06
5.1089275371950553371e-06
5.1186227109378552164e-06
5.1457455140780552073e-06
5.2375538551952347942e-06
5.4466629044402368928e-06
5.6366622254960058126e-06
5.778630862211900082e-06
5.8708473213895409244e-06
5.9209742166701862323e-06
5.9426216427426708835e-06
5.9539510446393709118e-06
5.9741703071284697863e-06
6.0269613521281286078e-06
6.1553944002444964671e-06
6.3069119480373400235e-06
6.4410988015163244284e-06
6.5383544383303047841e-06
6.5906409751696269601e-06
6.607856184744492157e-06
6.6134171395163983883e-06
6.6300622333456478468e-06
6.6895375777408771774e-06
6.8223875194118217417e-06
6.9354255698554571327e-06
7.0203508578471037602e-06
7.0902280048549288241e-06
7.1581456875041103309e-06
7.2318272197382202392e-06
7.3125848569549739531e-06
7.3984295044816987994e-06
7.4887439873470264129e-06
7.5868814999039908942e-06
7.6949920899681040383e-06
7.8101896303677656778e-06
7.9208332565183434804e-06
8.0118668451217078466e-06
8.0714033463652079835e-06
8.0980231184144138508e-06
8.1029083345631268924e-06
8.1023714321947881944e-06
8.1106627186754170654e-06
8.1515401287686939293e-06
8.2914564257042104351e-06
8.4844961374646269022e-06
8.6409939969548583055e-06
8.7496699247376649131e-06
8.8095032927313009051e-06
8.8329079206828776369e-06
8.84272352778180332e-06
8.8641208396715568036e-06
8.92551018436991625e-06
9.0283163677473483904e-06
9.1336547532975380923e-06
9.221877002372233677e-06
9.2820637104509149193e-06
9.3139953029234600951e-06
9.3248232022532689435e-06
9.3230652772365397508e-06
9.3160959610419845719e-06
9.3087951237605253855e-06
9.3044345262657204859e-06
9.3086402067116216666e-06
9.3396252361939256233e-06
9.4551085772448581598e-06
9.646543324080606959e-06
9.8167821072714606876e-06
9.954663680510688153e-06
1.0053147263389447503e-05
1.011474466306138938e-05
1.0150630683410716409e-05
1.0175731365007140486e-05
1.020274807954947639e-05
1.0238669968521752198e-05
1.0285361038758811223e-05
1.0341745613180353423e-05
1.0404914229437292567e-05
1.0470099290236398952e-05
1.0531263170006570742e-05
1.0581464903577626166e-05
1.0615772217240675499e-05
1.0632269016772009636e-05
1.0634228651137229114e-05
1.0628608860225724679e-05
1.0623544045760725812e-05
1.0625481256760021422e-05
1.0652159051685005769e-05
1.07453349871345006e-05
1.0857686387970667669e-05
1.0947271829819887632e-05
1.1014507454269111152e-05
1.1066020287033528124e-05
1.1110027488930885938e-05
1.115549860620177467e-05
1.120792346354511056e-05
1.1268532739194233176e-05
1.1333357767059948327e-05
1.139773623335796945e-05
1.1456122760644279381e-05
1.1505994142517806238e-05
1.154456209949306489e-05
1.1570640903026856508e-05
1.1584326770178256079e-05
1.1590157046814742194e-05
1.1595368211966496745e-05
1.1610026093653448131e-05
1.1641576016266877937e-05
1.1694705584361093486e-05
1.1767144526500689127e-05
1.1850365122269156977e-05
1.1932525822323081623e-05
1.200327186841960227e-05
1.2057412420483687695e-05
1.2095874693525590814e-05
1.2125027987032706422e-05
1.2152844513510765033e-05
1.2185218406413041099e-05
1.2224941718944219363e-05
1.2270585976200155411e-05
1.2319782470136395513e-05
1.2368113841834582332e-05
1.2411801970853381943e-05
1.2446972570769156556e-05
1.2471771535841992616e-05
1.2484082815947095978e-05
1.2485326098359305591e-05
1.2479861363867695751e-05
1.2471785007738467991e-05
1.2461106088712421691e-05
1.2446217064353085272e-05
1.2439017812045945251e-05
1.2436048554081415721e-05
1.2440465295080330637e-05
1.2476190958618575984e-05
1.2559030713054290023e-05
1.262911984640883752e-05
1.2688863434217908429e-05
1.274704081175210005e-05
1.280964942041753838e-05
1.2877869199656735724e-05
1.2948992471327123627e-05
1.301828344421462716e-05
1.3079286741911334125e-05
1.3127658269857966271e-05
1.3160061456790668358e-05
1.317692272868552522e-05
1.3789637214450961792e-05
1.3843876798696917992e-05
1.39707890157873474e-05
1.4076618161445180355e-05
1.4157428959076359052e-05
1.4217726011182973373e-05
1.4261718334036719709e-05
1.4292157938990548098e-05
1.4312129681925274372e-05
1.4323985498494740199e-05
1.4329842397404193914e-05
1.433046465885029632e-05
1.4327816885477623679e-05
1.43222758854055625e-05
1.4314922441067790091e-05
1.430665265051928259e-05
1.4293285080172042658e-05
1.4258636622835836252e-05
1.4166870131054263483e-05
1.406176607824274415e-05
1.397698321921375001e-05
1.3914846593974242989e-05
1.3873993703339154731e-05
1.3850397310692393711e-05
1.3837061770298226816e-05
1.3829108430014220579e-05
1.3836189078322459682e-05
1.3891742499789435153e-05
1.4019115905588873979e-05
1.4139476566464459308e-05
1.4246422228931970277e-05
1.4339527784822405127e-05
1.4419134265556953633e-05
1.4486153722620680279e-05
1.4543319392695855556e-05
1.4592220803518742453e-05
1.4632952735003865524e-05
1.4663914317003610543e-05
1.4683549217187640056e-05
1.4691013665678577947e-05
1.468854658432500533e-05
1.4680516593848412591e-05
1.4664385372363844304e-05
1.4621055624431133458e-05
1.4508384674156202159e-05
1.4381629768529155105e-05
1.4278959137800955519e-05
1.4200639815726293636e-05
1.4146957312938327408e-05
1.4114145957581103406e-05
1.4096593642414622917e-05
1.4086449944506415847e-05
1.4084432358457480008e-05
1.4116647661598356425e-05
1.4246010749871076384e-05
1.4407559916978465137e-05
1.4537176626028962639e-05
1.4639124256543710505e-05