/*--------------------------------*- C++ -*----------------------------------*\
  =========                 |
  \\      /  F ield         | OpenFOAM: The Open Source CFD Toolbox
   \\    /   O peration     | Website:  https://openfoam.org
    \\  /    A nd           | Version:  12
     \\/     M anipulation  |
\*---------------------------------------------------------------------------*/
FoamFile
{
    format      ascii;
    class       volScalarField;
    location    "0.012";
    object      p_0;
}
// * * * * * * * * * * * * * * * * * * * * * * * * * * * * * * * * * * * * * //

dimensions      [1 -1 -2 0 0 0 0];

internalField   nonuniform List<scalar> 
75962
(
100028.13984440665809
100138.82994536568003
100279.07957594460458
100371.26120799886121
100401.20653329616471
100305.35572253982536
100165.87928980268771
100167.41054536530282
100291.25089132989524
100353.18400290019054
100332.72546920288005
100231.40739974188909
100125.81697166289086
100136.58124707611569
100249.11343256296823
100362.55991282097239
100409.57491045451025
100372.34404305106727
100317.21907753513369
100333.89223619110999
100392.44842982391128
100402.55141252020258
100337.46272257999226
100264.96420334219874
100234.47785149270203
100228.51809251292434
100233.86906712010386
100246.87599442519422
100255.45994818914915
100268.43511556833982
100298.02887524360267
100325.74796503911784
100323.53553947717592
100296.68984215767705
100279.00015824999718
100286.57493745174725
100306.96118312174804
100313.46621647579013
100308.07211640712922
100297.53574504399148
100292.44270503420557
100292.53450349856575
100291.02505936582747
100292.3848523816996
100290.1616959500825
100288.90000135723676
100293.23154749495734
100293.36306367415818
100287.76049249386415
100286.96869580050407
100295.78138744160242
100311.72539106466866
100341.37317609510501
100386.04601103407913
100424.67360728357744
100436.61937368380313
100426.40770671628707
100413.88484005208011
100405.08731553195685
100399.60628665755212
100400.53552780362952
100406.43248516741733
100412.62122612903477
100410.00740083388519
100394.86762930435361
100363.33418736666499
100317.80398186565435
100279.47015068777546
100274.37808186167968
100301.86238425082411
100327.25481961327023
100317.67892162731732
100278.24708508986805
100239.26207852399966
100216.19000427865831
100200.10782162117539
100183.5393927028199
100180.88116761195124
100207.01021818225854
100252.20660922749084
100287.90929699582921
100291.52658786159009
100272.24555086957116
100253.12211397623469
100252.01614727303968
100271.44630857597804
100306.21730530800414
100346.46943908318644
100377.55113611735578
100390.03330469336652
100392.23974651510071
100400.69977445773839
100420.63672584561573
100439.9083847400907
100444.70513079101511
100438.91453972096497
100436.80341940979997
100449.37676707556238
100472.73188987722096
100498.0437564473541
100515.70843933979631
100523.30820329271955
100521.30084779970639
100514.14159521705005
100508.36970948506496
100506.9192341783928
100508.57079190247168
100514.64421799749834
100530.80708637271891
100557.88298673903046
100586.70008684204367
100604.94558789509756
100609.1870576490619
100606.17133761721198
100604.18720439739991
100604.1695221511909
100602.40244644676568
100597.16833913879236
100591.83612362710119
100591.41031986536109
100597.46753140696092
100607.93005201740016
100620.42699949379312
100631.25760565848032
100638.44487010181183
100640.72392347930872
100640.25037315653753
100643.10444567033846
100655.9781589571503
100681.89117841528787
100716.01208190877514
100746.10918272237177
100758.58085896767443
100747.30517245328519
100717.79930993344169
100684.85479030758142
100664.32058782270178
100660.86578645448026
100665.2659083964827
100660.72553953199531
100635.69179464696208
100593.36658806468768
100546.07304576484603
100506.93999847640225
100481.72047249974275
100470.34542487862927
100471.93628964680829
100486.04768202331616
100509.81562765834678
100535.69748115605034
100554.8029732232535
100560.85066633120005
100556.27195873681922
100548.31408903536794
100544.65050131887256
100549.40737884619739
100561.67032146526617
100577.42585265739763
100593.36526034833514
100608.75741514335095
100622.61911887914175
100633.37291435153747
100638.56861295354611
100637.25648456104682
100631.16027883734205
100623.26554262486752
100617.39256045612274
100615.60219303506892
100617.75245942651236
100623.42842747354007
100632.78760280828283
100646.65408078105247
100664.44229992118198
100686.60870227789565
100712.57668795424979
100741.45107949487283
100771.34228110054391
100799.35546266405436
100822.59998683285085
100838.77831807738403
100845.70517169134109
100842.25523475884984
100827.60746281547472
100804.50351927737938
100776.18444225283747
100746.92541965577402
100720.92337336084165
100700.5958032591443
100591.84678153059212
100590.76463867579878
100591.59435710168327
100597.4271894388803
100608.37887213841896
100621.1262036053231
100629.33278683960089
100630.14196469826857
100621.22959358429944
100607.67663498299953
100594.75983521273884
100586.23378981791029
100582.82453190081287
100582.30911427634419
100582.04387413103541
100580.5728695759899
100578.2714035641402
100576.53262871211336
100576.50604322412983
100578.62532090625609
100582.87193823236157
100588.89644268731354
100596.24657727029989
100604.43546893318126
100612.99850778072141
100621.88259845058201
100631.51224673603429
100642.87279002681316
100656.43133274809225
100671.26303002898931
100684.45554316416383
100691.69237833241641
100689.95641737664118
100678.56313275416323
100660.49118582899973
100641.22592536819866
100626.6907581766427
100621.42298774060328
100626.87125403148821
100641.1583223806083
100660.22844373925182
100680.23298226328916
100698.72902104441891
100715.19893273164053
100730.46762350054632
100745.87339427486586
100762.21535413050151
100778.76037104148418
100793.58410765252484
100804.50151749193901
100810.00509696477093
100809.83004312828416
100805.62753790082934
100800.39801531213743
100797.53315746724547
100799.51108032102638
100806.57642641568964
100816.55069753949647
100825.48330589538091
100829.10762397685903
100825.11136663721118
100813.81658609020815
100798.33364809611521
100783.38695753207139
100773.22332576915505
100770.03688470413908
100773.55677290352469
100781.83974194001348
100792.46397275025083
100803.79723256005673
100815.25132450519595
100826.73695507369121
100837.95217367823352
100847.75817901201663
100854.64310828484304
100857.54879824123054
100856.33383229398169
100852.08519384557439
100846.46396380574151
100840.92801734831301
100836.07154810514476
100831.58386377732677
100826.41490378158051
100819.645833569768
100810.51067694454105
100799.15762017866655
100785.98941080765508
100771.16772791727271
100754.89512227803061
100737.25640114632552
100718.23897796716483
100698.32563479935925
100678.09460762586968
100658.66856688258122
100640.73673531970417
100625.17279568348022
100612.12101371283643
100602.01677200176346
100595.17673221639416
100591.94715474999975
100592.45803087997774
100595.89880939658906
100600.45583789751981
100603.81385105691152
100603.62213481229264
100598.36216636846075
100587.83983074704884
100573.44240791573247
100557.34283614771266
100541.9252590216056
100528.94613879173994
100519.43461346915865
100513.42157689190935
100510.43863278982462
100510.1112355079531
100511.8361816147808
100514.71816644861246
100518.25724269772763
100521.24536909157177
100522.71880781145592
100521.89447417185875
100518.59557473103632
100513.04835036720033
100505.60008566385659
100497.13716524613847
100487.90297197182372
100478.03079792227072
100467.33466383731866
100455.56105510982161
100443.30297897885612
100432.11588373342238
100424.35324676595337
100423.06635834435292
100430.90898003290931
100448.79965737530438
100475.35875268619566
100507.29375675407937
100539.73099816826289
100567.8331510519638
100588.34505380656628
100600.21771386658656
100605.00424878955528
100606.01680084226246
100606.56371013582975
100608.94482208200498
100613.33967457315885
100618.06294318899745
100620.32123389432672
100617.39383249204548
100608.15704341568926
100593.40613895782735
100575.76082222962577
100558.4235077767371
100544.34190294034488
100535.36757235290133
100532.24124557398318
100534.52662239981873
100541.52789376344299
100552.64019738118805
100568.01111449688324
100587.73399429865822
100611.64132843112748
100638.52418010403926
100665.96824085178378
100690.36692855952424
100707.90683310148597
100715.92525920842309
100713.42575067114376
100701.31778827708331
100682.09679463422799
100659.18696975629427
100635.83497438504128
100614.67434803499782
100597.06950218378915
100583.30831868934911
100573.32076537190005
100566.61511059530312
100562.66823400523572
100561.03436412781593
100561.31462238458334
100563.01006223919103
100565.50166387233185
100568.064283999498
100570.05977024119056
100571.16527505015256
100571.46259919820295
100571.33955373743083
100571.19286627732799
100571.2439636469644
100571.33421286633529
100570.97569268918596
100569.46500044864661
100566.15310991030128
100560.7000090641086
100553.25393869412073
100544.49903782864567
100535.43193069149856
100527.02169100269384
100519.92723164142808
100514.45860247414385
100510.61877318752522
100508.24107545490551
100507.22740648474428
100507.71220228156017
100510.00187617226038
100514.40023101953557
100521.01696957519744
100529.62219767342322
100539.6747647728771
100550.38143350432802
100560.81544895547268
100570.24962466607394
100578.47930828486278
100585.91628085295088
100593.49457103699388
100602.31176098475407
100613.04284811753314
100625.50234521308448
100638.54365147148201
100650.2696590374544
100658.54809294092411
100661.66500251393882
100658.78645676729502
100650.13874023742392
100636.98154743220948
100621.3578938129067
100605.57871329715999
100591.78185505332658
100581.61213812755886
100576.00568203255534
100575.21304308302933
100579.02201682614395
100586.94607652108243
100598.37699292268371
100612.6004915045487
100628.80010299233254
100646.05103013548069
100663.28261210002529
100679.31773946828616
100693.02790228168305
100703.53445388408727
100710.30917474487796
100713.18275102773623
100712.35045422642725
100708.40376734474557
100702.2369588198344
100694.83177132700803
100687.0526645683276
100679.51635506299499
100672.6412069946382
100666.77912503997504
100662.20606639345351
100659.08522165592876
100657.52003476582468
100441.09272505041736
100418.06989221074036
100275.72067148495989
100240.1754156062525
100276.20482543813705
100150.68236807388894
100071.37730488518719
100185.73007795540616
100329.65488132026803
100381.00227039205492
100348.95433793656412
100258.59546430254704
100161.92423036131368
100160.59723439540539
100228.22235299590102
100314.64089044535649
100379.24383171870431
100372.02458075343748
100327.32095478213159
100340.4230931467755
100399.93392073166615
100420.02780939529475
100375.33315270559979
100314.10959248176368
100273.9089437079092
100245.69518278101168
100233.63607857466559
100239.22292208854924
100243.03536283668655
100246.79891818006581
100269.33889859479677
100311.42866400358616
100346.48439150197373
100355.98144299910928
100353.77628856920637
100361.67507701268187
100380.53928375845135
100394.21207015383698
100403.0736823414336
100402.07750274421414
100376.42321055414504
100314.00280782335903
100262.12280526329414
100255.69952839745383
100286.29648135816387
100320.4904532898945
100335.81655859420425
100328.54489417777222
100311.62524547018984
100305.13611010910245
100319.17549167040852
100352.06013875176723
100396.24708522603032
100438.63409248377138
100462.67033799424826
100468.36390397424111
100467.73099484211707
100465.87893603024713
100456.2673263054312
100445.18706300138729
100438.8309649022849
100437.47397603484569
100422.97267612861469
100395.22364246664802
100363.82445287088922
100331.04182811515057
100296.72955110040493
100270.67398993558891
100268.64836125624424
100288.33898052075529
100302.55127177904069
100290.5880966908735
100260.98710537068837
100237.49413928393915
100227.8602168042853
100225.06314819556428
100226.21095882702502
100238.20633053097117
100264.98965673687053
100292.8577694662963
100304.72729648137465
100296.15467497699137
100274.68006760456774
100253.60413893220539
100244.48971969285049
100255.99910408323922
100292.20883229607716
100345.92313459800789
100399.5038015578175
100435.31255353729648
100448.99054329082719
100449.69904746722023
100448.81344095322129
100449.36865479007247
100448.96667539875489
100448.34357747463218
100452.00589023003704
100465.02258976225858
100484.70892594371981
100505.31261798962078
100519.28271457889059
100521.50743483910628
100513.02609674392443
100505.12534519279143
100509.1678450016625
100524.87674897212128
100542.31979656542535
100554.97422109839681
100565.61988489478244
100580.45874334963446
100599.46318437467562
100616.0760655583872
100625.6575994509476
100628.83434721799858
100627.70315829959873
100621.14281277875125
100608.45893808030814
100593.83724294834246
100584.72922846935398
100585.38893782830564
100594.18117491071462
100606.29172287142137
100619.34393810961046
100631.19208213753882
100638.91164103314804
100639.73201863205759
100634.94822896717233
100632.21284936118172
100640.4494534979458
100664.41695019122562
100699.90028659922245
100733.2525889872195
100748.91129687479406
100739.05498704960337
100710.12991504714591
100678.67201719126024
100660.39612253748055
100660.41877185602789
100668.546835513509
100666.54735332677956
100642.22303357922647
100599.45896823050862
100552.47721016664582
100516.01774511147232
100496.09248931382899
100492.37265231326455
100500.92543592110451
100520.73799581208732
100545.28917939841631
100566.85750626705703
100576.71883476947551
100571.58261721205781
100556.36210255618789
100539.78604747301142
100529.9105921000737
100531.2182806818746
100543.90909434876812
100563.67626813820971
100585.30407168727834
100604.83490294934018
100617.55734444469272
100623.54450811892457
100622.834955683109
100617.56889328843681
100611.12252326990711
100606.35368638615182
100604.04329817257531
100603.19918461839552
100603.76576902803208
100606.89207498681208
100615.9380526393943
100634.21160503958527
100663.4204385617777
100700.32123064715415
100739.05015780488611
100773.24043800725485
100797.79111077502603
100811.2136062134814
100815.70612175902352
100815.63487747775798
100813.59545594009978
100809.1332380923559
100799.84545878686185
100783.58751626127923
100761.20509429108643
100735.98817864191369
100711.58121458633104
100690.00686452352966
100670.72051359228499
100578.924538305233
100581.80123626546992
100579.35766671797319
100575.60602184502932
100574.77465331966232
100578.56364440028847
100585.17061343364185
100589.4017898079037
100586.60690393562254
100575.83527988404967
100560.84243966426584
100546.46083306444052
100537.21200031365152
100534.73476019008376
100537.54740631721506
100542.70660056662746
100547.67519219369569
100551.10877167967556
100552.70266700838692
100553.11538055166602
100553.57137825418613
100555.46736108354526
100559.92362747713923
100566.97260485106381
100575.41288683886523
100584.03089640568942
100591.97066255235404
100599.78538454465161
100609.19799164093274
100621.3863098402071
100635.54553034609125
100648.54703427589266
100656.23794822166383
100655.46674384847574
100645.99766092497157
100630.84690187730303
100615.51319796722964
100605.39771144355473
100603.6523611768207
100610.46866771385248
100623.21384022847633
100638.37702750679455
100653.38326238251466
100667.50916572730057
100681.75673465382715
100697.74071263862425
100716.30779406682996
100736.68405030983558
100756.71229892446718
100773.41492088926316
100784.29125564459537
100788.2237342379085
100785.89745635875443
100780.0065558480419
100774.52926056418801
100773.57521868606273
100779.34841273991333
100791.41723746010393
100806.47649400334922
100819.30878742090135
100825.00303687744599
100820.63435592188034
100806.99957970727701
100787.87769921761355
100768.69924283915316
100754.74768369723461
100749.42062637963681
100753.19713426037924
100764.46027602732647
100780.20984954667802
100797.7410214128613
100815.11149489904346
100831.10754500509938
100844.98355000359879
100856.01720728930377
100863.56118926193449
100867.3510193641996
100867.29902866427437
100863.83993610863399
100857.81861674594984
100850.0654175329837
100841.23123978545482
100832.12995483452687
100823.25603838785901
100814.88549424201483
100806.9085738153226
100799.03622272780922
100790.48495610810642
100780.24335796650848
100767.36706062746816
100751.53062028757995
100732.67816489373217
100711.60852071330009
100689.56866814111709
100667.47253471695876
100646.69940125937865
100627.67205609772645
100611.4223730355734
100598.51363308477448
100589.48058205038251
100585.39559687567817
100586.50260073077516
100591.82838633752544
100599.36437709524762
100606.52312400461233
100610.59538020488981
100609.80107503000181
100603.6808239632519
100593.20358949626097
100580.20512981065258
100566.57786725254846
100553.74954310726025
100542.56830022038775
100533.3940113971039
100525.87441242365458
100519.9788302887755
100516.29030693638197
100514.75918308830296
100514.95112745846563
100516.32826047287381
100517.70749050888116
100517.89120423902932
100515.91726288663631
100511.28072175693524
100504.28640749963233
100495.05509457101289
100484.22781013511121
100472.22185478669417
100459.24452813738026
100445.8332789624983
100432.9797569118673
100422.54206797615916
100417.1369735358312
100419.39876060638926
100431.11865688035323
100452.38845248971484
100481.24405011646741
100513.67420308687724
100544.84259090361593
100570.34484759357292
100587.75860250458936
100597.14466282054491
100600.86741599821835
100602.20254737990035
100604.20489034795901
100608.38609200711653
100614.17622848477913
100619.20189858484082
100620.56226539771887
100615.96864158354583
100604.66277173133858
100588.19136205615359
100569.61365459124499
100552.26822668826208
100539.11153163424751
100531.62565553864988
100529.87234337776317
100533.08444471796975
100540.25709552729677
100550.93199772624939
100565.57951834166306
100584.79224287533725
100608.51924112734559
100635.48575130893732
100662.95642986324674
100687.04533428027935
100703.84446282108547
100710.48822465955163
100706.2413106696622
100692.65240397883463
100672.74147583034937
100650.3948702460475
100629.09223542299878
100611.17413819988724
100597.5385116518446
100587.86208233957586
100581.21716290793847
100576.6008733514318
100573.21983618439117
100570.74288581142901
100569.07077993619896
100568.31148434535135
100568.45092194197059
100569.23439917231735
100570.35190641775262
100571.54547581997758
100572.74101457637153
100573.99050587590318
100575.2403787416697
100576.33399576377997
100576.89700626896229
100576.37915449483262
100574.34322537800472
100570.59188262265525
100565.24502027042035
100558.69260021547962
100551.61140662369144
100544.74882696858549
100538.65560542182357
100533.52960651803005
100529.21987082605483
100525.42547644181468
100521.92000272736186
100518.7830866540462
100516.47490449187171
100515.70324192679254
100517.16266431397526
100521.26067939131462
100527.89152858548914
100536.45171580852184
100546.0333612524264
100555.5654724870983
100564.19261541690503
100571.71678125379549
100578.63842840267171
100585.91198432707461
100594.656419716237
100605.67213251486828
100618.95182437822223
100633.48851802718127
100647.4019670967391
100658.40961384979892
100664.48513922642451
100664.43076099107566
100658.14626932240208
100646.58297817921266
100631.60497812331596
100615.59028443638817
100600.9405837420054
100589.66232771989598
100583.06951077558915
100581.70105428155512
100585.51162222528365
100594.04346758777683
100606.57873118351563
100622.21448262772174
100639.87016438032151
100658.3649655051122
100676.48438877348963
100693.01455564098433
100706.8405196734675
100717.11777707845613
100723.41835121471377
100725.78122257476207
100724.63320080854464
100720.71158506182837
100714.95902603422292
100708.34162031831511
100701.72167788176739
100695.73544214727008
100690.73606132611167
100686.89190906363365
100684.33560930195381
100683.22499448370945
100683.69362802914111
100198.36091403572937
100219.51944589849154
100046.50934621765919
100005.93379055417608
100206.58292196829279
100363.31917738050106
100294.39871274190955
100278.22096591244917
100310.34773568066885
100305.34736776354839
100313.14041759427346
100325.99349433426687
100318.44157367033768
100284.99634832797165
100219.0440549995983
100189.76472688856302
100251.66655318866833
100299.91058487910777
100302.64080968106282
100330.48861154154292
100390.77372914919397
100424.30818998454197
100421.82300910545746
100388.97689248107781
100333.51458813014324
100271.29337938113895
100239.16853686243121
100246.82928442191042
100260.99095026563737
100258.28835290075222
100256.63466008346586
100288.06047797371866
100350.6735023851943
100407.21647943858989
100435.14114846943994
100447.96543081809068
100458.65376264664519
100472.57416521497362
100483.20948195195524
100476.99897555305506
100423.43050217398559
100338.63890487070603
100282.99971868054126
100290.59748707839753
100340.36287601724325
100385.73050976332161
100401.67063108370348
100390.84323451141245
100367.09908437936974
100347.63370252819732
100345.30225819794578
100367.62581642765144
100408.29433742600668
100445.12375832955877
100463.71977117907954
100472.52129605328082
100484.98823660520429
100495.02169661918015
100492.05956578157202
100472.77779447961075
100457.51613939960953
100437.72378788002243
100403.97326281527057
100362.49677837894706
100327.70374311519845
100303.83725637271709
100286.01460707375372
100272.54488509542716
100266.55436051618017
100267.90078325777722
100266.27947507188946
100255.26278002666368
100243.79562921477191
100244.76302449325158
100257.18642409908352
100271.64705856773071
100282.19976127341215
100292.55516512333998
100302.80138475622516
100311.03558473142039
100310.76195273191843
100299.20413971350354
100277.20900817819347
100253.94240516668651
100243.97401944128796
100259.89807454062975
100304.50866192007379
100371.79776469529315
100441.43856589958887
100487.70181562686048
100498.38113793307275
100481.86120498305536
100458.13098811761301
100442.6554158879444
100440.88884778904321
100449.33737786722486
100464.55955339704815
100483.14187658118317
100504.04589537289576
100520.66631877500913
100529.16478979137901
100524.05092445071205
100512.1251215031516
100509.75658547089552
100527.63483251175785
100559.70733074066811
100588.12741516633832
100599.10252268709883
100594.47087325522443
100589.28503290152003
100595.89729082200211
100613.66227536032966
100632.83435707815806
100644.52691162483825
100644.65372248334461
100632.30044041195652
100611.16250334442884
100590.80738625302911
100580.16385644205729
100582.20527787890751
100591.82257908133033
100603.81962099301745
100616.58676483208546
100629.58461101618013
100640.71789895035909
100645.8449301179644
100642.6159216191445
100637.13302029273473
100639.37436809162318
100654.54888199808192
100680.37843049701769
100707.37551871041069
100723.49116470909212
100720.8127803401585
100702.7092902581644
100680.86568985148915
100667.30198952861247
100665.94875614858756
100669.40069353414583
100662.78772413053957
100637.58256234203873
100598.65373424848076
100560.1432114882482
100534.13002713193418
100525.21103865999612
100529.3524070878193
100542.61675140289299
100559.575835298936
100576.15790976317658
100586.11557555054605
100585.12311887351098
100573.01824970882444
100553.54202125966549
100533.96448350202991
100521.45501275497372
100520.36470795351488
100532.58824529916456
100555.88669924208079
100583.78552400902845
100605.84979100526834
100616.46790040525957
100613.11225341720274
100602.55092874437105
100590.62940243825142
100582.01187292125542
100578.29022463165165
100577.84614243285614
100577.38557955161377
100575.97626848374784
100577.41742752071877
100588.08613549845177
100613.26910473137104
100654.64156425828696
100705.15150327519223
100754.11443367727043
100789.89926389609172
100805.79869919775228
100803.51681483071297
100790.84883684410306
100777.44325417345681
100769.39546354096092
100766.27926155584282
100763.72525151114678
100756.86511007530498
100744.49053848562471
100727.68227797865984
100708.04674342129147
100685.72788898077852
100659.34659771625593
100565.78872968562064
100569.41093940997962
100564.05340098340821
100553.35486223193584
100542.90796354350459
100537.21629138116259
100536.49475887724839
100537.47931799000071
100534.81387538059789
100526.88808873447124
100514.60511123297329
100502.19231320645486
100493.79306793487922
100491.99434025064693
100497.39934276501299
100507.69388928412809
100519.5848130081722
100529.64837706989783
100535.77125544431328
100537.36735962907551
100535.93180604693771
100534.56660262258083
100535.91338193918637
100540.99319202362676
100548.40166918667092
100556.31276386739046
100563.6299433329259
100571.17073988851917
100580.52720898506232
100592.85006243651151
100607.15218130841095
100620.24135458355886
100628.0262255944981
100627.53390273464902
100619.31006092547614
100606.73257310777262
100594.76786323674605
100588.05349475797266
100588.67032745998586
100595.59231046651257
100605.93006345939648
100616.77467480937776
100626.72029903971998
100636.68239846083452
100648.81639899029688
100665.10986696771579
100685.85995414167701
100709.14195292184013
100731.65112417069031
100749.55518581345677
100760.12629407788336
100762.67429657778121
100759.20305783207004
100753.26346246653702
100749.13794063749083
100751.10082734831667
100760.99059307819698
100777.55841050841263
100796.17023151568719
100811.16248376994918
100817.50391198211582
100812.54417129054491
100797.44954781026172
100776.34069866320351
100755.14520027102844
100739.54288987290056
100733.04769937322999
100736.71923732488358
100749.03364339590189
100767.10597066147602
100787.85801745546632
100808.58060194151767
100827.44984615466092
100843.80974673766468
100857.20835550775519
100867.48839541450434
100874.38594062818447
100877.34394268337928
100875.75497590255691
100869.30384316123673
100858.60351705295034
100844.95740980096161
100830.55323461844819
100817.57469540122838
100807.58672632185335
100801.10589355973934
100797.00089599753846
100792.90580147155561
100786.73864668721217
100776.65648225491168
100761.66226987390837
100742.66689054036397
100720.97383380601241
100698.17555581714259
100675.56017683072423
100653.86467276155599
100633.75011417087808
100615.99587919590704
100601.33408904701355
100590.85177554693655
100585.61045845481567
100586.13735484251811
100591.98387014251784
100601.28625233640196
100611.21082627710712
100619.06620249577099
100622.66735713506932
100621.26570261771849
100615.0114627910807
100605.14709581696661
100593.08792331589211
100580.10368732784991
100566.78267677927215
100553.68786221076152
100541.46875363518484
100530.39628462748078
100521.11372068893979
100514.91802092356374
100511.66287314773945
100510.95020476955688
100511.82877856380946
100512.63276279601268
100511.93253235684824
100508.88444410302327
100503.10476435677265
100494.68468484401819
100484.08810151751095
100472.08817937124695
100459.46778333291877
100446.90224104914523
100435.6405076643714
100427.64060499492916
100425.0987223017728
100430.0948456658225
100443.67239954581601
100465.45545224712987
100493.15963045744866
100522.8648325791728
100550.22231481608469
100571.55685094596993
100585.2866359037871
100592.42653522401815
100595.26961780257989
100597.19846073049121
100600.21629986209155
100605.31758843953139
100611.14588022259704
100615.38272566227533
100615.21245926326083
100609.19679166843707
100597.33880155484076
100581.46504264933174
100564.62563064787537
100549.91636521134933
100539.59661723129102
100534.53466997093346
100534.45388442865806
100538.13333758327644
100544.68997635814594
100554.12805204375763
100567.0453312509926
100584.32709267470636
100606.11982257995987
100630.9941055161471
100656.05989601877809
100677.39132337082992
100691.32509241261869
100695.44093071580573
100689.37191891411203
100675.12979614903452
100656.28206558046804
100636.66892655375705
100619.64754886516312
100606.98936418813537
100599.02092799957609
100594.74972811424232
100592.52609923576529
100590.81696043121337
100588.70829163517919
100585.90408586237754
100582.81651875619718
100579.98578836939123
100577.93099183755112
100576.94606708089123
100577.02016691653989
100577.94820777054701
100579.43338072075858
100581.24514738698781
100583.09009375069581
100584.54192595132918
100585.12626793076925
100584.40879044758913
100582.16806923525291
100578.4217519780359
100573.46750295360107
100567.82859856980212
100562.0773199480318
100556.7026483311347
100552.00347005670483
100547.98553808462748
100544.34910911889165
100540.72222850332037
100536.89234466903144
100532.98681501224928
100529.51912767448812
100527.19840932781517
100526.74680594870006
100528.60348161062575
100532.6765662994876
100538.39024768947274
100544.96137716311205
100551.59452997907647
100557.72249689541059
100563.31925045829848
100568.99575089057907
100575.7515564202622
100584.61614277256012
100596.29843311257719
100610.78930094755196
100627.12104833235207
100643.4282672729023
100657.35954073420726
100666.72809536353452
100670.05796694125456
100666.90444529560045
100657.92141697692568
100644.74225120306073
100629.67591162239842
100615.22320787381614
100603.63049322301231
100596.54443286612513
100594.80638254529913
100598.52157710351457
100607.24073965610296
100620.10985087526205
100636.06092171970522
100653.90833562499029
100672.37509362812852
100690.17406357706932
100706.11621123424266
100719.24151398389949
100728.91612764685124
100734.88771709530556
100737.2872107734147
100736.57536327063281
100733.51387918739056
100729.04320291310432
100724.08471923820616
100719.38770374791056
100715.46397015691036
100712.59703628034913
100710.89403280512488
100710.39264081089641
100711.14832121778454
100713.22912717326835
100716.70885638476466
100456.49828498957504
100367.63457819839823
100333.90521848040225
100370.31135329707467
100434.81966838693188
100518.36970476209535
100474.60282100460608