/*--------------------------------*- C++ -*----------------------------------*\
  =========                 |
  \\      /  F ield         | OpenFOAM: The Open Source CFD Toolbox
   \\    /   O peration     | Website:  https://openfoam.org
    \\  /    A nd           | Version:  12
     \\/     M anipulation  |
\*---------------------------------------------------------------------------*/
FoamFile
{
    format      ascii;
    class       volScalarField;
    location    "0.012";
    object      pPrime2Mean;
}
// * * * * * * * * * * * * * * * * * * * * * * * * * * * * * * * * * * * * * //

dimensions      [2 -2 -4 0 0 0 0];

internalField   nonuniform List<scalar> 
75962
(
1532026.7612018585205
1511600.7951469421387
1503002.9351768493652
1497145.0778179168701
1492690.5931568145752
1488957.4925289154053
1485540.5057601928711
1482272.0980911254883
1479082.0505046844482
1475957.4546489715576
1472906.723913192749
1469941.5038833618164
1467088.2348346710205
1464359.5672626495361
1461773.8791007995605
1459339.4405326843262
1457040.1551208496094
1454873.0574398040771
1452809.8672485351562
1450780.9517822265625
1448738.8507995605469
1446689.8813362121582
1444684.9941577911377
1442757.2516212463379
1440933.4148387908936
1439247.2027797698975
1437716.7840309143066
1436352.5949745178223
1435161.8992786407471
1434116.4234294891357
1433170.6859569549561
1432295.1414337158203
1431470.4763870239258
1430676.7445373535156
1429895.0963916778564
1429101.670072555542
1428275.7711486816406
1427418.8327102661133
1426536.6998424530029
1425645.2988586425781
1424760.7164573669434
1423882.265079498291
1423004.3782844543457
1422112.7735786437988
1421192.6108074188232
1420231.5352535247803
1419217.1576194763184
1418143.2273006439209
1417014.4583587646484
1415830.2215480804443
1414581.3210620880127
1413266.5671482086182
1411880.6690578460693
1410415.4003276824951
1408878.5269680023193
1407292.5167217254639
1405680.7575778961182
1404061.0990467071533
1402443.5465335845947
1400840.7083911895752
1399268.4789581298828
1397738.1609115600586
1396252.2270030975342
1394804.7571258544922
1393386.6504993438721
1391994.1664085388184
1390626.375171661377
1389283.648868560791
1387956.4186248779297
1386625.1223468780518
1385276.7086524963379
1383911.726936340332
1382532.9845447540283
1381140.1879692077637
1379734.187707901001
1378316.6761322021484
1376891.6976680755615
1375459.9025001525879
1374017.306713104248
1372551.3519020080566
1371055.4471626281738
1369542.267053604126
1368031.3264217376709
1366532.2102375030518
1365039.5147819519043
1363543.2672691345215
1362038.7708511352539
1360529.0079154968262
1359023.4278507232666
1357537.2925224304199
1356082.7842559814453
1354660.5425701141357
1353261.8960666656494
1351883.6908836364746
1350536.1348896026611
1349234.7227993011475
1347983.3689422607422
1346768.4383411407471
1345573.957052230835
1344388.7603664398193
1343208.5557041168213
1342034.2178592681885
1340869.5691337585449
1339716.3997955322266
1338570.5352516174316
1337426.2912616729736
1336277.8030567169189
1335117.8831691741943
1333936.4045867919922
1332721.3753395080566
1331463.6961421966553
1330164.6750087738037
1328831.6497364044189
1327468.0565299987793
1326069.0722618103027
1324626.8041515350342
1323140.1339912414551
1321614.2161502838135
1320053.3501205444336
1318457.0128326416016
1316822.3044586181641
1315147.4776401519775
1313435.8506450653076
1311693.7964973449707
1309925.6333675384521
1308133.8735523223877
1306322.4457721710205
1304496.6093368530273
1302660.1650886535645
1300815.0569953918457
1298965.3652801513672
1297121.0807266235352
1295297.1932773590088
1293509.6346416473389
1291767.5593776702881
1290071.4542293548584
1288415.1449508666992
1286791.0440139770508
1285196.7101287841797
1283637.8526020050049
1282124.5777626037598
1280664.4147453308105
1279257.315616607666
1277893.9338073730469
1276560.2913055419922
1275242.7402572631836
1273930.8312072753906
1272616.7524185180664
1271290.7439632415771
1269944.189640045166
1268570.7784519195557
1267168.528694152832
1265739.5910110473633
1264287.2718353271484
1262812.4125900268555
1261311.6355476379395
1259780.5896244049072
1258218.7707099914551
1256629.5594482421875
1255016.8464031219482
1253380.2274971008301
1251715.331672668457
1250020.8477172851562
1248305.0896911621094
1246582.0821857452393
1244861.4980430603027
1243144.8422985076904
1241428.2734985351562
1239711.7355136871338
1238002.4828758239746
1236308.4104232788086
1234629.4369602203369
1232958.6083335876465
1231289.9793395996094
1229624.3082485198975
1227968.3281917572021
1226330.6164321899414
1224717.3257122039795
1223130.4936103820801
1221570.0044479370117
1220034.6499671936035
1218524.4797382354736
1217042.4952545166016
1215596.0470523834229
1214192.6110324859619
1212834.5545539855957
1211515.59690284729
1210223.5929565429688
1161970.066291809082
1160788.295072555542
1159603.7017364501953
1158408.9959583282471
1157199.1957149505615
1155974.6585063934326
1154738.323709487915
1153492.2438507080078
1152235.5198345184326
1150966.7189540863037
1149685.7642860412598
1148395.0197010040283
1147098.0749664306641
1145798.3598251342773
1144498.1003189086914
1143196.8028812408447
1141890.9768447875977
1140575.6146984100342
1139246.4368267059326
1137901.1295871734619
1136539.7982578277588
1135163.3587684631348
1133772.682804107666
1132368.6344909667969
1130953.6168193817139
1129532.0314350128174
1128108.275806427002
1126683.8892765045166
1125257.6115779876709
1123828.5673770904541
1122398.5878295898438
1120972.6605949401855
1119559.0984630584717
1118168.8167915344238
1116812.9531364440918
1115499.0459671020508
1114228.3598556518555
1112994.6536426544189
1111785.9238529205322
1110588.2898960113525
1109391.5671501159668
1108193.2007503509521
1106997.7455368041992
1105812.2642631530762
1104642.0095825195312
1103487.3342247009277
1102343.8639850616455
1101204.8817806243896
1100065.4107360839844
1098925.9563446044922
1097792.955020904541
1096675.7403602600098
1095581.1909809112549
1094509.6664237976074
1093454.0434646606445
1092401.812313079834
1091340.5116024017334
1090263.555721282959
1089172.7771892547607
1088076.1913890838623
1086982.4237117767334
1085895.7205467224121
1084814.64430809021
1083733.9853763580322
1082648.3717384338379
1081554.4865818023682
1080450.9896621704102
1079337.2626075744629
1078211.5544776916504
1077071.4429149627686
1075915.6306381225586
1074744.9326648712158
1073561.3888816833496
1072366.0075511932373
1071158.2018375396729
1069936.8316059112549
1068701.1514186859131
1067451.4484748840332
1066188.9349136352539
1064915.8102531433105
1063634.7293891906738
1062347.1370429992676
1061051.5408782958984
1059743.1452732086182
1058416.5296401977539
1057068.8522033691406
1055701.6032066345215
1054319.969554901123
1052930.3280868530273
1051536.6705837249756
1050138.5109176635742
1048733.0194568634033
1047318.7753963470459
1045898.6867256164551
1044478.9376621246338
1043065.3193531036377
1041659.2728881835938
1040256.418306350708
1038849.1697483062744
1037431.4986324310303
1036002.1964931488037
1034564.94407081604
1033125.7899341583252
1031690.940881729126
1030265.1030826568604
1028850.4882202148438
1027447.3976764678955
1026055.4806327819824
1024674.7875003814697
1023305.1273365020752
1021945.6457214355469
1020595.482795715332
1019255.0534896850586
1017926.230863571167
1016610.8590908050537
1015309.2475757598877
1014019.8807621002197
1012741.0286998748779
1011472.5888195037842
1010216.6269607543945
1008976.1585674285889
1007752.9178791046143
1006546.3599891662598
1005354.366849899292
1004174.5073413848877
1003004.5053958892822
1001842.3848514556885
1000686.0660362243652
999533.82262420654297
998385.06394577026367
997240.84235191345215
996102.84537315368652
994971.38562202453613
993844.2133960723877
992715.9672966003418
991579.7485523223877
990428.92924499511719
989258.08510780334473
988063.44951057434082
986843.38796234130859
985599.10686492919922
984334.9904727935791
983057.75000762939453
981774.35210418701172
980490.2032527923584
979208.01054382324219
977928.13404083251953
976649.65013885498047
975371.79158782958984
974094.06815528869629
972815.36352729797363
971533.2188835144043
970244.33408355712891
968946.28583145141602
967639.16329956054688
966325.37424087524414
965008.27625465393066
963690.81717681884766
962375.02492332458496
961062.46075820922852
959754.6038990020752
958452.6988697052002
957156.94020462036133
955865.67671775817871
954575.9554386138916
953285.4481315612793
951994.61275100708008
950706.92649841308594
949427.59674835205078
948161.54998397827148
946911.88175392150879
945679.81379699707031
944465.39613342285156
943268.23897361755371
942087.83874320983887
940923.64486885070801
939775.02786254882812
938641.26728439331055
937521.55305480957031
936415.19811820983887
935321.93295860290527
934241.69189834594727
933173.87456893920898
932116.81237411499023
931067.75922012329102
930023.45609474182129
928980.91809463500977
927938.18312454223633
926894.8209400177002
925852.04325866699219
924811.98443222045898
923776.59848594665527
922746.97734069824219
921723.43950843811035
920706.297119140625
919696.41029930114746
918695.07428359985352
917703.13664054870605
916720.06656074523926
915743.63036155700684
914770.35885429382324
913796.50210189819336
912819.01113319396973
911836.23353958129883
910848.21468925476074
909856.19338035583496
908861.49733924865723
907864.47847938537598
906864.00134468078613
905857.54848480224609
904841.66570091247559
903812.82489204406738
902768.53985977172852
901708.27173233032227
900633.4058723449707
899546.05603218078613
898447.49854469299316
897337.41013526916504
896214.21646690368652
895076.25022888183594
893922.92738342285156
892755.73909568786621
891578.71897888183594
890398.13803100585938
889221.4610652923584
888055.55615425109863
886904.9035587310791
885770.49722671508789
884649.74356269836426
883537.36900329589844
882427.29715538024902
881314.9106502532959
880198.82425880432129
879081.17509651184082
877966.2331428527832
876858.14605522155762
875759.0670280456543
874668.71274566650391
873585.34412956237793
872507.22649765014648
871433.62603378295898
870365.16501617431641
869303.74886322021484
868252.2447624206543
867213.8643741607666
866191.18413925170898
865185.43168830871582
864196.46669960021973
863223.35070610046387
862265.03997421264648
861320.71928977966309
860389.74289512634277
859471.48643112182617
858565.20339012145996
1545293.7680511474609
1520546.5718154907227
1510060.2845039367676
1502340.0991725921631
1496451.5618381500244
1491795.2998714447021
1487913.9154453277588
1484410.5671272277832
1481046.5591850280762
1477731.8064765930176
1474434.1805038452148
1471196.636739730835
1468057.6266479492188
1465029.6957550048828
1462140.9609298706055
1459421.4505462646484
1456882.4084739685059
1454531.6043472290039
1452392.7429962158203
1450416.7579784393311
1448511.9128875732422
1446620.647741317749
1444753.1313552856445
1442926.8836059570312
1441141.3726654052734
1439413.510046005249
1437781.3793430328369
1436260.7117729187012
1434878.314001083374
1433659.4661407470703
1432599.3655643463135
1431676.3895740509033
1430863.9479923248291
1430124.1034145355225
1429419.0699882507324
1428717.2426853179932
1427987.4824600219727
1427211.0011463165283
1426375.5460205078125
1425477.1830101013184
1424532.6592845916748
1423572.4153594970703
1422609.7249240875244
1421632.9392871856689
1420619.0261325836182
1419553.2586326599121
1418436.2795467376709
1417276.2491493225098
1416076.780834197998
1414835.2406826019287
1413542.2154674530029
1412186.8578929901123
1410766.895170211792
1409280.5820598602295
1407735.7805786132812
1406145.2841358184814
1404524.4652442932129
1402880.506498336792
1401227.4795398712158
1399587.3199501037598
1397984.1714668273926
1396439.5916175842285
1394965.6848449707031
1393560.3238430023193
1392210.9039554595947
1390902.3938503265381
1389624.7764663696289
1388370.2513580322266
1387127.9368324279785
1385879.5295486450195
1384609.9313278198242
1383311.333080291748
1381983.8211059570312
1380633.174201965332
1379267.1330661773682
1377890.248685836792
1376503.0495719909668
1375100.966760635376
1373675.5364665985107
1372220.6853733062744
1370736.9364681243896
1369239.7300987243652
1367748.4395599365234
1366272.424144744873
1364803.2954349517822
1363328.0005531311035
1361841.3930244445801
1360347.1014709472656
1358853.5106391906738
1357373.2532997131348
1355919.4210815429688
1354496.9907894134521
1353102.1231670379639
1351731.380823135376
1350390.8506145477295
1349090.9078998565674
1347835.4927558898926
1346615.5535717010498
1345418.1871700286865
1344230.1471633911133
1343042.4556713104248
1341852.4319839477539
1340667.0085601806641
1339492.0206928253174
1338324.0297985076904
1337153.2349452972412
1335971.3678607940674
1334774.3795394897461
1333559.6066360473633
1332321.282600402832
1331051.9175338745117
1329747.4122905731201
1328408.308500289917
1327034.0560626983643
1325621.5935764312744
1324171.0459842681885
1322689.2022876739502
1321181.7765274047852
1319645.3359241485596
1318071.3156356811523
1316453.2060604095459
1314790.5645980834961
1313088.4559650421143
1311354.0010471343994
1309592.4822864532471
1307805.9186515808105
1305997.4706783294678
1304172.1744422912598
1302334.5224418640137
1300487.4403171539307
1298635.2103080749512
1296785.56982421875
1294952.2186050415039
1293149.8493385314941
1291387.6310482025146
1289668.6043796539307
1287989.59814453125
1286344.1920032501221
1284729.2733898162842
1283149.6765899658203
1281615.0860843658447
1280134.7921867370605
1278710.9560871124268
1277334.1946487426758
1275986.4655151367188
1274650.640625
1273316.7208213806152
1271980.0530376434326
1270635.4137096405029
1269276.5627593994141
1267898.5079212188721
1266499.6821269989014
1265081.8650150299072
1263647.5534763336182
1262195.8704452514648
1260721.1863994598389
1259217.2531147003174
1257682.1802730560303
1256119.5625038146973
1254535.2498950958252
1252931.035795211792
1251305.1388454437256
1249657.1366653442383
1247993.3261852264404
1246323.132755279541
1244653.0621509552002
1242984.0113201141357
1241312.4457683563232
1239637.6202049255371
1237964.0993270874023
1236297.3454837799072
1234637.8615627288818
1232980.9117622375488
1231321.7960739135742
1229661.4630031585693
1228006.0990695953369
1226364.4632625579834
1224745.7268753051758
1223156.8196411132812
1221599.9799461364746
1220072.653299331665
1218571.0333251953125
1217094.4719715118408
1215646.6092758178711
1214234.4842128753662
1212862.0503578186035
1211525.4825458526611
1210215.0902690887451
1208921.6628608703613
1163164.140905380249
1161956.1479396820068
1160752.723949432373
1159547.9460277557373
1158335.2216663360596
1157110.7482814788818
1155874.9802837371826
1154631.2650814056396
1153380.3781833648682
1152120.4623680114746
1150848.834020614624
1149564.9872550964355
1148272.2764835357666
1146976.5454940795898
1145682.2151298522949
1144390.3619556427002
1143097.3442802429199
1141796.3808116912842
1140481.5061435699463
1139149.3348636627197
1137800.2272682189941
1136437.1943912506104
1135063.0957412719727
1133679.1090126037598
1132285.2241363525391
1130881.8968391418457
1129471.3448352813721
1128056.5445957183838
1126638.5143871307373
1125215.9191474914551
1123788.2398338317871
1122357.5980472564697
1120929.7668514251709
1119513.6845893859863
1118120.4924983978271
1116761.4803733825684
1115443.870325088501
1114167.6535339355469
1112925.3932666778564
1111704.4682083129883
1110491.7575035095215
1109279.4915542602539
1108067.4700546264648
1106861.6854953765869
1105668.7188720703125
1104491.637601852417
1103327.8689708709717
1102170.4016361236572
1101011.4164257049561
1099846.7519054412842
1098678.9603404998779
1097517.4047164916992
1096374.6139316558838
1095259.8059349060059
1094173.4089813232422
1093106.0606842041016
1092042.5677261352539
1090968.949068069458
1089878.5122776031494
1088773.2329654693604
1087660.0001983642578
1086546.0243225097656
1085435.2316036224365
1084327.9900817871094
1083222.5816516876221
1082116.4880886077881
1081006.9999485015869
1079891.5086212158203
1078767.1871147155762
1077630.6792755126953
1076478.7077579498291
1075309.79860496521
1074125.7881908416748
1072930.2414989471436
1071725.0388813018799
1070508.9206619262695
1069279.036527633667
1068033.5679702758789
1066772.9089164733887
1065499.5289993286133
1064217.303352355957
1062929.876823425293
1061638.6941890716553
1060341.3959503173828
1059031.8561687469482
1057703.4516754150391
1056352.5560703277588
1054980.74143409729
1053593.4992694854736
1052197.2683696746826
1050796.3485717773438
1049391.0927848815918
1047979.3058776855469
1046560.0413074493408
1045135.97780418396
1043713.8156414031982
1042300.1099987030029
1040897.2787818908691
1039501.0729789733887
1038103.3934726715088
1036697.0815544128418
1035279.6399078369141
1033854.0737056732178
1032426.3673934936523
1031002.7509517669678
1029587.4746055603027
1028182.4016933441162
1026788.0374794006348
1025404.9160289764404
1024034.5240039825439
1022678.0023536682129
1021334.802152633667
1020003.183557510376
1018682.2011165618896
1017372.8308048248291
1016076.9297523498535
1014795.4639377593994
1013527.2024822235107
1012269.9155921936035
1011022.9862842559814
1009788.5696449279785
1008570.0423030853271
1007369.2131729125977
1006185.3069763183594
1005015.8843517303467
1003858.342113494873
1002710.8823280334473
1001571.7849407196045
1000438.9177207946777
999310.07090187072754
998184.07032203674316
997060.88680458068848
995940.71367454528809
994822.8398551940918
993704.6860294342041
992582.21511650085449
991450.65327453613281
990305.5852165222168
989143.1767520904541
987960.25463485717773
986754.91219139099121
985527.02010154724121
984279.04764938354492
983015.65503311157227
981742.30221176147461
980463.57137489318848
979182.42378044128418
977900.38536262512207
976618.58600425720215
975338.34403038024902
974060.51034164428711
972783.98163223266602
971505.48931121826172
970220.9334659576416
968927.43234825134277
967624.86327171325684
966315.40816307067871
965002.53157615661621
963689.6302661895752
962379.81525039672852
961075.53700065612793
959777.92990112304688
958486.5172004699707
957199.19745445251465
955912.99001312255859
954625.46090888977051
953336.47135162353516
952048.90975570678711
950767.8849048614502
949498.60072708129883
948244.50681495666504
947006.87398147583008
945785.37891960144043
944579.28273582458496
943387.87642097473145
942210.72374534606934
941047.60412788391113
939898.36834907531738
938762.95171356201172
937641.06379127502441
936532.29244804382324
935436.31220054626465
934352.71440696716309
933280.58234405517578
932218.12002754211426
931162.66826438903809
930111.08782577514648
929060.31180572509766
928008.0437068939209
926953.6152458190918
925898.47358894348145
924845.72890853881836
923798.77071380615234
922759.83175849914551
921729.36831283569336
920706.55640411376953
919690.43405914306641
918680.69359397888184
917677.63080787658691
916681.34532165527344
915690.97230529785156
914704.4439640045166
913718.96404838562012
912732.01453971862793
911742.25144958496094
910749.64450263977051
909754.85494232177734
908758.22260665893555
907759.0930233001709
906755.76618957519531
905745.72866821289062
904725.92292404174805
903693.17573356628418
902645.14251136779785
901581.34228515625
900503.33124351501465
899413.6266918182373
898313.89889144897461
897203.89044380187988
896081.5822811126709
894944.30027770996094
893790.36139869689941
892620.29006004333496
891437.23940086364746
890246.68594360351562
889055.77382469177246
887872.2973461151123
886703.16050338745117
885552.4599437713623
884419.79896545410156
883300.0733528137207
882185.41964340209961
881068.5974235534668
879945.73104858398438
878817.1762580871582
877686.36087036132812
876557.6369743347168
875434.57192611694336
874319.25090599060059
873212.4567756652832
872114.16956329345703
871023.97867774963379
869941.26487350463867
868865.57999801635742
867797.27431488037109
866737.98951530456543
865690.47377395629883
864657.6380558013916
863641.66679000854492
862643.74919700622559
861664.39152336120605
860703.71040153503418
859761.39634323120117
858836.34034729003906
857926.34003829956055
1524728.2843189239502
1508853.5393371582031
1501795.240026473999
1495788.0762596130371
1490811.2795314788818
1486703.2971458435059
1483347.8867568969727
1480502.3819370269775
1477864.7544116973877
1475280.8983592987061
1472653.9371032714844
1469927.3451080322266
1467116.7543354034424
1464290.9526996612549
1461498.6530647277832
1458804.6658420562744
1456244.80739402771
1453837.7082958221436
1451628.7115631103516
1449614.455961227417
1447736.4075222015381
1445935.0672435760498
1444165.5995540618896
1442427.635082244873
1440727.5954208374023
1439089.6404857635498
1437527.6520519256592
1436045.6203155517578
1434655.4566040039062
1433378.3238868713379
1432240.8063583374023
1431237.6702728271484
1430355.1775302886963
1429556.2551593780518
1428801.4239368438721
1428067.2369346618652
1427334.6332950592041
1426582.8743133544922
1425796.7758522033691
1424951.5503673553467
1424043.9206981658936
1423104.885498046875
1422144.2558765411377
1421144.5522804260254
1420086.9147186279297
1418961.5744247436523
1417775.5897121429443
1416549.8637046813965
1415291.024393081665
1413988.0624160766602
1412633.3952541351318
1411223.7363529205322
1409760.1560325622559
1408246.3125782012939
1406691.5351619720459
1405099.3938217163086
1403468.1365337371826
1401801.4054222106934
1400117.7289733886719
1398449.3517589569092
1396821.6346111297607
1395253.4654922485352
1393760.1923065185547
1392346.080997467041
1390997.4285106658936
1389695.552713394165
1388427.0933094024658
1387189.8017120361328
1385977.3583354949951
1384773.0454959869385
1383560.5644111633301
1382323.0796451568604
1381053.7058162689209
1379758.4826774597168
1378447.8227062225342
1377129.4613590240479
1375801.655912399292
1374459.0692653656006
1373091.5139102935791
1371690.1467838287354
1370254.9050006866455
1368798.1405334472656
1367340.9532623291016
1365891.7493209838867
1364441.7230262756348
1362977.8218574523926
1361496.0754833221436
1360001.5858249664307
1358502.5295181274414
1357010.48779296875
1355542.506067276001
1354110.830867767334
1352714.68625831604
1351348.502836227417
1350011.3530826568604
1348709.4483623504639
1347447.9937343597412
1346219.7622852325439
1345011.6131992340088
1343809.3256397247314
1342603.8388576507568
1341395.4907321929932
1340191.4378986358643
1338997.4440803527832
1337808.2972278594971
1336609.452657699585
1335389.6873741149902
1334151.5695686340332
1332905.1995258331299
1331653.3876724243164
1330387.2708263397217
1329092.4803600311279
1327760.9049701690674
1326388.9881706237793
1324977.0701465606689
1323533.0311985015869
1322070.3941459655762
1320594.2294254302979
1319094.6459121704102
1317555.6837882995605
1315968.2104072570801
1314333.5123043060303
1312657.2744636535645
1310945.2103214263916
1309201.2017688751221
1307427.082088470459
1305626.1440906524658
1303804.4653396606445
1301968.3827342987061
1300123.4302082061768
1298275.4834957122803
1296432.4582195281982
1294604.6541576385498
1292801.1163883209229
1291028.5254249572754
1289290.4437446594238
1287587.0569438934326
1285916.0903549194336
1284276.2950897216797
1282673.7565784454346
1281118.2241554260254
1279617.7816829681396
1278172.417516708374
1276771.3512783050537
1275394.6669044494629
1274024.8815689086914
1272654.5300769805908
1271283.8415012359619
1269913.5904769897461
1268540.5150833129883
1267159.4399967193604
1265765.7226982116699
1264359.0754776000977
1262940.0039806365967
1261506.5536193847656
1260053.3992786407471
1258575.2482662200928
1257069.8112850189209
1255539.3054504394531
1253989.0281658172607
1252423.1127796173096
1250844.4149379730225
1249255.8904342651367
1247661.8624382019043
1246065.947301864624
1244469.0449371337891
1242868.7106170654297
1241261.4193706512451
1239646.3768863677979
1238026.6978530883789
1236406.7922439575195
1234786.9166469573975
1233163.1385364532471
1231531.2977619171143
1229890.7336559295654
1228245.7724590301514
1226606.3063068389893
1224986.3071002960205
1223397.8253707885742
1221845.3489284515381
1220325.5447444915771
1218831.9034061431885
1217358.7695732116699
1215906.2010593414307
1214478.7838649749756
1213081.0443878173828
1211712.4892883300781
1210368.1881465911865
1209044.1632614135742
1163169.242790222168
1161934.0285892486572
1160703.7968578338623
1159472.688720703125
1158234.98876953125
1156988.6645259857178
1155735.688814163208
1154479.5545024871826
1153220.1645088195801
1151953.3818454742432
1150675.0613231658936
1149384.5499172210693
1148085.9533653259277
1146785.9735012054443
1145489.9657459259033
1144198.3941612243652
1142905.9240531921387
1141604.4069652557373
1140286.7683715820312
1138950.1054821014404
1137596.7359828948975
1136231.7013549804688
1134859.9142913818359
1133483.9574775695801
1132104.2209892272949
1130719.8226261138916
1129330.4542121887207
1127936.2581424713135
1126536.7611770629883
1125130.5186805725098
1123717.0066242218018
1122298.7087287902832
1120881.7474536895752
1119475.2013206481934
1118089.3080902099609
1116733.5357837677002
1115413.9848747253418
1114130.3218879699707
1112875.1563835144043
1111636.7352523803711
1110404.2033824920654
1109173.3063278198242
1107946.5649147033691
1106730.1955394744873
1105529.0272998809814
1104343.0377597808838
1103166.344367980957
1101989.8285312652588
1100805.9175605773926
1099612.4736442565918
1098415.2103137969971
1097225.9200477600098
1096058.3731441497803
1094922.0209827423096
1093816.3687648773193
1092730.2854595184326
1091647.3833541870117
1090553.8837795257568
1089444.3248405456543
1088320.7926158905029
1087188.708683013916
1086052.9163131713867
1084917.1939449310303
1083784.3757553100586
1082655.8735542297363
1081530.8612098693848
1080406.2162113189697
1079277.6200542449951
1078140.6943092346191
1076991.4368419647217
1075827.1296195983887
1074646.9835090637207
1073453.1320495605469
1072248.7778949737549
1071035.1545066833496
1069810.0362930297852
1068569.9257984161377
1067313.4727420806885
1066042.115650177002
1064759.689001083374
1063470.8984870910645
1062179.636116027832
1060886.6276302337646
1059588.8656368255615
1058279.8754444122314
1056952.9199466705322
1055604.3601608276367
1054235.2601985931396
1052850.1214656829834
1051454.3692665100098
1050051.959342956543
1048644.4844665527344
1047231.7867374420166
1045814.0567493438721
1044393.8511867523193
1042976.4572982788086
1041568.0086479187012
1040171.0117454528809
1038782.6350479125977
1037395.8639068603516
1036003.5460300445557
1034602.7765712738037
1033195.5602493286133
1031786.6928005218506
1030380.6953144073486
1028980.2660293579102
1027586.5695476531982
1026201.0497741699219
1024826.370267868042
1023466.0996150970459
1022122.6018524169922
1020795.3538036346436
1019481.7301712036133
1018179.9567203521729
1016890.747673034668
1015616.4666137695312
1014358.5463924407959
1013116.0660648345947
1011886.6513996124268
1010668.7289447784424
1009463.067024230957
1008271.805757522583
1007096.2975902557373
1005935.8970241546631
1004788.8222808837891
1003653.2523365020752
1002527.7739334106445
1001410.2670116424561
1000297.6691989898682
999187.13718223571777
998077.2552604675293
996967.69468116760254
995857.95288848876953
994746.56554412841797
993631.07602882385254
992508.828369140625
991377.29707527160645
990234.32752799987793
989077.96072006225586
987905.84119415283203
986715.5842342376709
985505.57946014404297
984275.92377471923828
983029.10789108276367
981769.23557472229004
980500.52591705322266
979226.30227088928223
977948.88372230529785
976670.3876781463623
975392.8969554901123
974117.26187515258789
972842.09219741821289
971564.01882553100586
970279.61482429504395
968987.50954055786133
967688.60810661315918
966385.16991233825684
965079.88018226623535
963775.60533714294434
962475.39907646179199
961181.839111328125
959895.57381820678711
958614.68978118896484
957335.54365539550781
956054.66544151306152
954770.54252815246582
953484.74981689453125
952201.78277778625488
950927.44846153259277
949666.70418739318848
948422.23940658569336
947194.22021675109863
945981.11161041259766
944780.86043548583984
943591.91050910949707
942413.52719306945801
941245.96757125854492
940090.21663284301758
938947.23329734802246
937817.47878456115723
936700.72577667236328
935596.12154769897461
934502.50658988952637
933418.45903396606445
932342.36510276794434
931272.47331809997559
930206.76139640808105
929142.89429092407227
928078.67623710632324
927013.05100440979004
925947.01490020751953
924883.52919578552246
923826.24661254882812
922777.83563804626465
921738.98408126831055
920708.61294746398926
919684.96987724304199
918666.55125427246094
917652.49276542663574
916642.37919616699219
915635.83507537841797
914632.27085494995117
913630.83655548095703
912630.61629486083984
911630.90259742736816
910631.28658485412598
909631.28499603271484
908629.91321182250977
907625.67021369934082
906616.89043235778809
905601.70293045043945
904577.69515228271484
903541.98786735534668
902492.11772918701172
901427.27180480957031
900348.73038101196289
899258.88967704772949
898159.43696212768555
897050.01042556762695
895928.17198944091797
894790.71962928771973
893635.53741073608398
892463.01410102844238
891276.10682106018066
890079.58897972106934
888879.37984466552734
887682.48188591003418
886496.45928573608398
885327.63841438293457
884178.43377494812012
883045.8072509765625
881922.38542747497559
880799.74709892272949
879671.91312217712402
878536.98693656921387
877396.55599975585938
876253.95870208740234
875112.74209785461426
873975.92271995544434
872845.96431350708008
871724.98707580566406
870614.49492454528809
869514.83305549621582
868425.11981964111328
867344.10720634460449
866271.4299430847168
865208.40524673461914
864157.6292667388916
863121.80098724365234
862102.87198638916016
861102.05177879333496
860120.31677436828613
859158.62251663208008
858217.30538368225098
857295.15406227111816
856389.03337860107422
1538280.2253742218018
1515940.2575092315674
1505777.6327705383301
1497940.0336494445801
1491509.9796562194824
1486186.3466930389404
1481819.2788028717041
1478252.0236186981201
1475234.3599071502686