/*--------------------------------*- C++ -*----------------------------------*\
  =========                 |
  \\      /  F ield         | OpenFOAM: The Open Source CFD Toolbox
   \\    /   O peration     | Website:  https://openfoam.org
    \\  /    A nd           | Version:  12
     \\/     M anipulation  |
\*---------------------------------------------------------------------------*/
FoamFile
{
    format      ascii;
    class       volScalarField;
    location    "0.012";
    object      rho;
}
// * * * * * * * * * * * * * * * * * * * * * * * * * * * * * * * * * * * * * //

dimensions      [1 -3 0 0 0 0 0];

internalField   nonuniform List<scalar> 
75962
(
1.1602776490954942457
1.1615117583490990327
1.1629351586874716595
1.1637732813611452176
1.1638249271748080105
1.1628041339165275936
1.1615352359330028964
1.1615322701104693337
1.1626851079597100291
1.1635202348591457966
1.1638402775070793016
1.1634468638812587304
1.162664818688910362
1.1624103265646676952
1.1628168548700632545
1.1634014378453045868
1.163789454803692669
1.1637633568308332066
1.1636740693740399433
1.1641303705689403092
1.1648520026580984066
1.165091779099254321
1.1646243632900457055
1.1640458164279847697
1.1638463684119522146
1.1639395574228352803
1.1641926100470330052
1.1644861105581354455
1.1646244126060372182
1.1646515825632743901
1.1647438518549586561
1.164872292240668461
1.1648828453782014147
1.1648126871563875273
1.1648740141970463924
1.1651293054814562122
1.1654411377706608288
1.1655948657903030252
1.1656385932550843432
1.1656609271549782658
1.1657533870829555056
1.1658970365729866003
1.1659979890365854693
1.1660647912243622404
1.166035834386617287
1.1659538606419805884
1.1658768539608932446
1.1657426306811049521
1.1655549499948953951
1.1654267149089290179
1.1654300415797476109
1.1655634776490162441
1.165873050782758602
1.1663376037034638433
1.1667400056622154736
1.1668724491516435648
1.166767117487083727
1.1666194050417963979
1.1665249472675283116
1.1665026822917243798
1.1665705400587835783
1.1666823688986764918
1.166760494745330945
1.1667031224829296221
1.1664752164395226774
1.1660635768682197089
1.1655139656356778843
1.1650245991739534013
1.1648308234592528176
1.1649426275311618451
1.1650780979251720293
1.1649575910421958724
1.1646142302495101628
1.164300687922399602
1.1641540224773374579
1.1641006569451204378
1.1640629597701064313
1.1641376823193001488
1.1644331360116690899
1.164864295784059367
1.1651937697648246939
1.1652289302274467797
1.1650382749969301344
1.1648072872760633079
1.1646822994952197305
1.164689345697625944
1.1648000298950684783
1.1649590871960298077
1.1650746670001523864
1.1650868161539138512
1.1650642558009287608
1.1651285086581832928
1.1653011777042125985
1.1654597042554308839
1.1654774907489364733
1.1653921322792211157
1.1653451006656563305
1.1654537787995904452
1.1656966457295729889
1.1659846819688934882
1.1662006253997427851
1.1662826534823178548
1.166209719203320283
1.1660229740882184224
1.1658110017498588551
1.16564798471555231
1.1655648005923673338
1.1655834484574925103
1.1657276122943311947
1.1659578880629835052
1.1661498578380857793
1.1661734180447618225
1.1660095272020258861
1.1657620306697196177
1.1655682367059374549
1.1654941148129935868
1.1655293970641871226
1.1656328436674829874
1.1657694845859103427
1.165908331100028672
1.1660076513060595449
1.1660320190253481432
1.1659832794061915084
1.1658795385999287664
1.1657582540069766353
1.1656468715491721255
1.1655726588772368224
1.1655681469049721244
1.1656550908673881661
1.165824388497537667
1.1660148530364147224
1.1661227394943058933
1.1660496572714926788
1.1657679290324345356
1.1653474531116174706
1.164930300009273223
1.1646610205780629776
1.164585023305397149
1.1646249132885628796
1.1646299338184633587
1.1644824310652241994
1.1641813563823746325
1.1638028550926258209
1.1634393985644548852
1.1631361892037352934
1.162904405463161206
1.1627611775833679442
1.1627303404330802117
1.1628122320719485039
1.1629517378611688994
1.1630616242638767144
1.1630582639192721395
1.1629245287544094367
1.1626940666574774319
1.1624278388708844112
1.1621855982184237099
1.162008175174387814
1.1619167180651324145
1.1619262120789446424
1.1620458834810498683
1.1622510634372309468
1.1624853865444451095
1.1626734238896458962
1.1627575789533837192
1.1627236771781077618
1.1625967765169724633
1.1624344398787131993
1.162294427205989189
1.1622147020070838774
1.1622157318686694438
1.1623014276395395861
1.1624611859454370144
1.1626596067654166866
1.1628675232104332959
1.1630552140151473317
1.1632058642105487234
1.16331317288446634
1.163378893476812781
1.163414931315348344
1.1634387147675553376
1.1634593107056019345
1.1634771782631363468
1.1634745911133967944
1.1634443475256224243
1.1633722060479925187
1.163251700653612275
1.1630861482315451028
1.1628830883962362197
1.1601575444263898529
1.1600371475093238516
1.1600259783834747651
1.1601301642391066427
1.1603179564253964795
1.1605236299141852285
1.1606621177111233756
1.1606896318162385207
1.1605851087860026283
1.1604062516978663755
1.160224890850933388
1.1601029684120265362
1.1600699413522168602
1.1601156417888722761
1.160208197136479269
1.1603096812506534796
1.1603880573622511463
1.1604195761651787677
1.1603868736925917471
1.1602818701373598387
1.1601115804024313416
1.1598987779070086823
1.15967819749214196
1.1594878930432916952
1.1593587555166424696
1.159308548367110614
1.1593377981631147744
1.1594324183239834714
1.1595620324137807522
1.1596833154286376733
1.1597459897590078892
1.1597058625977025859
1.1595500437139290018
1.1593021942796311041
1.1590244338614716924
1.1587964827698413739
1.1586877577395819916
1.1587355519176940621
1.1589306247116777371
1.1592202416192158854
1.1595270035385971674
1.1597794424882135189
1.1599316217724746636
1.1599731031919093827
1.1599246869869075383
1.1598268244987506304
1.1597221865212912206
1.1596374797112796173
1.1595774438292054676
1.1595283592698681918
1.1594667334701060923
1.1593696367565557992
1.1592285836395606058
1.1590530613038867447
1.1588684783789884314
1.1587067848217564858
1.1585927301887055663
1.1585356574270981866
1.1585265383597456168
1.1585431633522904615
1.1585649395029473663
1.1585790680949750175
1.1585866091459529059
1.1585992309031671876
1.1586284965575837091
1.1586776422082252225
1.1587397823382303841
1.1588035962085614372
1.1588600741051566789
1.1589087744087951393
1.1589558032828441991
1.1590066715898235117
1.1590594519786505678
1.1591003796686893956
1.1591099901638619585
1.1590729013402250036
1.1589844916575058331
1.1588549295942141004
1.1587039220139747631
1.1585530844639952974
1.158418310802627138
1.1583072930429660907
1.1582191685855365293
1.1581506253139213225
1.1580962770795268924
1.1580551436673911514
1.1580261042268724658
1.1580047258971184476
1.1579860916628896828
1.1579639954996878703
1.1579311363178208527
1.1578837292632215838
1.1578185554866058382
1.1577367332072470152
1.1576365034131304022
1.1575195499424126844
1.1573846860499987788
1.1572368818235048149
1.1570846409090653761
1.1569402129472130536
1.1568167738948804679
1.1567208171036178488
1.1566494318722959633
1.1565927035957519475
1.1565363303175608678
1.1564682071750205239
1.156383041926359212
1.1562856558092535764
1.1561861955579619821
1.1560973138629744295
1.1560283759453708896
1.1559853477928609955
1.1559691984072080206
1.1559791043155216439
1.1560161213224842136
1.1560789330537777353
1.1561623113514620798
1.1562607839917933283
1.1563588694292545878
1.1564393234666756616
1.1564840151601243345
1.1564798251638399584
1.1564193210677800039
1.1563005548769691444
1.1561315948503465556
1.1559212097981788059
1.1556817020447336386
1.1554253002980099385
1.1551634890385489296
1.1549125301349585371
1.1546936181060178939
1.1545321066248315223
1.154458268964417389
1.1544995183604338518
1.1546704632829110082
1.1549668204804290905
1.1553663651649395128
1.1558285752005035274
1.1563050286747700302
1.1567505859900204523
1.1571290832057306019
1.1574195775934514874
1.1576139445353488266
1.1577088144787723856
1.157702930144806075
1.1575928064981990673
1.1573770752638208315
1.1570613649255336863
1.1566631238965385808
1.1562170061167029722
1.1557698964055651558
1.1553741694942778473
1.1550749047720696439
1.1549029579582692495
1.1548697851172964324
1.1549705058292554227
1.1551854581507765563
1.1554892266332701389
1.1558544664595380436
1.1562585265378813038
1.1566787176620840771
1.1570926361330229337
1.157473719169534343
1.1577916539461472478
1.158013119238113342
1.1581101671996032465
1.158070815375190632
1.157902429425689661
1.1576320870158804954
1.1573015457549373775
1.1569597250345784456
1.1566511939420778265
1.1564107146103257406
1.1562564683497740248
1.1561910647153148535
1.156207630147395804
1.1562903445648455847
1.1564191441801092708
1.1565726684172583649
1.1567301269799310504
1.1568718977009557758
1.1569806725537292724
1.1570422870948917637
1.1570474257912870542
1.1569931790943814853
1.1568831729893465088
1.1567262167870522305
1.1565332937627181842
1.1563156189513306149
1.1560825385173227886
1.1558414856858745257
1.1555984144549713566
1.1553594506591802205
1.1551324737524266695
1.1549281468043164356
1.1547600116390477343
1.1546425271504763277
1.1545881518578571256
1.154604930021237541
1.1546961425593402772
1.1548607215138422255
1.1550944450764146776
1.1553919993819143919
1.1557485783793783884
1.156159724687661372
1.1566202762518751346
1.157123159389970013
1.1576584697700316173
1.1582139021455601924
1.15877547001716108
1.159328628380970283
1.1598611472363238306
1.1603659679051510079
1.1608421583061865334
1.1612941912612892992
1.1617290165689291292
1.1621511404018809444
1.1625587833723798337
1.1629427803171179523
1.1632880693756335599
1.1635777132120264099
1.1637982277955301047
1.1639434882904207136
1.1640163410266664012
1.1640284825163080829
1.1639985529583745105
1.1639479062828377298
1.1638968205722959315
1.163861702903928208
1.1638531575871193802
1.1638759905272704209
1.1639308988473233697
1.1640159141020731681
1.1641275978300094085
1.1642611670493618892
1.1644105326720683991
1.1645683377647089163
1.1647257063299680802
1.1648726123984467495
1.1649992311442307624
1.165097706746488937
1.1651630651028523911
1.1651933795739213284
1.165189915406075194
1.165157482054553828
1.1651036895857287412
1.1650371007657962519
1.1649654581926440766
1.1648945898951312827
1.1648286936587495255
1.1647713982424587886
1.1647255652122814329
1.1646930457782898038
1.1646749895106216499
1.1636800967478995172
1.1638793336763368913
1.1629925663373907874
1.1627395956971262603
1.1628851266668069897
1.1616005079329021488
1.1606931702258587169
1.1615285238322039518
1.1628406948672576071
1.1636457336530336981
1.1639387762505220003
1.1636880701163478946
1.1630136583467247657
1.1626798165599365742
1.1627079353766718306
1.16302463153602198
1.1635046452859971744
1.1637020470208507827
1.1637102116839315169
1.164162016562528601
1.1649118872882022746
1.1652379201860472158
1.1649303418427483514
1.1644341479925366389
1.1641458663127703943
1.164054570831023927
1.1641769565658888208
1.1644379313585011548
1.1645692206826514514
1.1645352131888953018
1.1645493345984747613
1.1647484402709529228
1.1650218774840974678
1.1652362497191057766
1.1654429688744234461
1.1657345890182744252
1.1660632998147077988
1.1662865360557681527
1.1664407965412721957
1.1665268535082498058
1.1664422805369658587
1.1660594078001811358
1.1657296815445856719
1.1657221025824766603
1.1659678099565313758
1.1661985927971383337
1.1662341400477043152
1.1660488479139730078
1.1657634340936833262
1.165573773495066412
1.1656049492783446819
1.1658731345584922856
1.1663143866804166482
1.1667846503843743999
1.1670904313723604595
1.1671857939650105429
1.1671624833939557853
1.1670959574226882349
1.1669739780323049594
1.1668753781915117695
1.1668506382305277036
1.1668804944273312163
1.1667807000524870187
1.1665208772223130129
1.1661763237594091613
1.1657820262888018981
1.1653580323670422736
1.1650019978718335611
1.164855905853877216
1.1649093747370611318
1.1649402007207383392
1.1647747598969457883
1.1644851913437126445
1.1642796626446967334
1.1642348030697959871
1.1642913369717404759
1.1644054528296843287
1.164607065688233023
1.164907524041342235
1.1651826070970272564
1.1652909926135015528
1.1651997931151676369
1.1649781139706396615
1.1647362207066158657
1.1645652388585394643
1.1645332442770983672
1.1646816205650982745
1.1649737456756776854
1.1652930239739947016
1.1655150139461736281
1.1656065898273810788
1.1656261132886751586
1.165637079677278809
1.1656360354931372125
1.1655891489617111745
1.1655131212949363384
1.1654752379034827303
1.1655531043557767479
1.165741911614246451
1.1659830261177790423
1.1661747467102685505
1.1662270748168077628
1.1661139169785090797
1.1659273896126440828
1.1657978587287514127
1.1657804241004265933
1.1658408271775733134
1.1659385166197600014
1.1660685910552883726
1.1662266359592003973
1.1663549416716050278
1.1663673740897779751
1.1662366133003834179
1.1660213415454174779
1.1658140020655505253
1.16566851957424511
1.1656013034713217369
1.1656191727965889982
1.1657190316453922563
1.1658615903348521492
1.1659764706896351694
1.1660042126239997806
1.1659465836077997913
1.1658365607434781897
1.1657072133427857086
1.1655763101261538139
1.1654652079374450135
1.1654193119642031196
1.1654780112116485125
1.1656455686976270325
1.1658652318440159146
1.166020740670082656
1.1659956950886249949
1.1657457268994291244
1.1653459315189411694
1.1649515901889677671
1.1647062331326525353
1.1646588792682404101
1.1647239189370668377
1.1647388554169546548
1.1645809226566736783
1.1642548796694731639
1.1638536225658404621
1.1634841584784636481
1.1631958961036323874
1.1630007114702993753
1.1628934905776782127
1.1628990598615425167
1.1629912237881263604
1.1631163152548877893
1.1631875188493678852
1.1631399145428535924
1.1629670442324451241
1.1627039588008032389
1.1624070136922703966
1.1621371512732174835
1.161948239100153879
1.1618667237321400609
1.161899898775277995
1.1620353028641656756
1.1622196224039216261
1.1624091725246623596
1.1625476005969492821
1.1626006464024434273
1.1625655620146158054
1.1624637249560143548
1.1623253047010715377
1.1621815996843769536
1.1620724883421240659
1.1620363020301889279
1.1621102353071166569
1.1623091895092434456
1.1626197202853378876
1.1629803052194978008
1.1633111949798300433
1.1635416477196562912
1.1636302057306946445
1.1635841782200566641
1.1634553430759875248
1.1633183041950725389
1.1632270973478606724
1.1631957626976092701
1.1632011415567788948
1.1632031980643167124
1.1631723372138935702
1.16309513710039103
1.1629673959482598189
1.1627866257443457698
1.1625488055487496197
1.160288568594545433
1.1601128402058473732
1.1599862762885213563
1.1599436392875919211
1.1599995057280596544
1.1601322993299267861
1.1602869207900705639
1.1603854306810315045
1.160370044691595437
1.1602310603929892885
1.1600169799986055352
1.1597976740853987998
1.1596435699400522434
1.1595946681141617862
1.1596510716802477248
1.1597824415750270788
1.1599448623185197871
1.1600923963592717492
1.1601837667460441761
1.1601911280476036037
1.1601058448732555206
1.1599410831618324202
1.1597291472451682903
1.159509728083806257
1.1593184986668696457
1.1591849460993757237
1.1591243303184552982
1.1591403948717282635
1.1592244840589147614
1.1593490557046128853
1.1594679797842144531
1.1595257905785143482
1.1594776968633526693
1.1593092436472858253
1.1590492395890648059
1.1587630980835332828
1.1585349005232978836
1.1584348656297231983
1.158493763534669263
1.1586950198896011077
1.1589797742260152802
1.1592718120141136673
1.1595045238675198984
1.1596398235121498921
1.159675024790512321
1.1596358554000603114
1.1595606794429627051
1.1594836134859638488
1.159424353902214877
1.1593826603534149733
1.159343753520227116
1.1592862446894003359
1.159191800449598464
1.1590561343994985055
1.158892934241567918
1.1587309418653648496
1.1585993858073166951
1.1585185692028554527
1.1584906323481158896
1.1584988053167892819
1.1585179375418672709
1.1585242404491020718
1.1585099896014738885
1.1584816163095876806
1.1584555832754193094
1.1584503653394353506
1.1584772688567306353
1.1585346311085167326
1.158613817766863896
1.1587023131908522622
1.1587930150957252984
1.1588834827463474486
1.15897211609136086
1.159054422837771714
1.1591201171801339687
1.1591560632811073184
1.1591518735416914687
1.1591011089948681789
1.1590055089784521147
1.1588746759690626842
1.1587217757634047377
1.1585607975096670064
1.1584077166526827174
1.1582751912893196611
1.1581721094256332005
1.1581018067045496522
1.1580633618518043626
1.1580489767063899542
1.1580461563914998813
1.1580408969468509728
1.1580226077225970194
1.1579817346093381758
1.1579154561704403381
1.1578247479449668145
1.1577093813441612369
1.1575743722246685241
1.1574194905887276175
1.1572521946484335409
1.1570800917797630092
1.1569140653175444822
1.1567727277122441532
1.1566701560079237776
1.15661052728702618
1.1565877282966108286
1.1565873334728353772
1.156589703820324333
1.1565784159685814636
1.1565445140094765542
1.1564888464127884848
1.156419131986647697
1.1563445135604217828
1.1562723005939112841
1.1562073882888259657
1.1561531106832858562
1.1561091731999049159
1.1560795325652057919
1.1560735071327508106
1.1560940551077647509
1.1561389129783656848
1.1562013176085834676
1.1562653985636823784
1.1563121196645169686
1.1563234354750886457
1.1562864314853673608
1.1561983203101304785
1.1560596084127445771
1.1558797037350765358
1.1556697991708850815
1.155440732287285055
1.1552055823782403365
1.1549797859244270715
1.1547842625988189447
1.154645652864353611
1.1545914076442505003
1.1546440522034115972
1.1548135551349443251
1.1550935322849371634
1.1554583857699214366
1.1558701037777774356
1.1562853072042955649
1.1566665626997620908
1.1569876054967140888
1.1572354266795690236
1.1574042625048404087
1.1574923969758674769
1.1574963444320132133
1.1574095381629014856
1.1572253413379418596
1.1569448027684188229
1.1565817202204871084
1.1561643920711384137
1.1557370518496683509
1.1553500723890297586
1.1550483405283111793
1.1548660816992855072
1.1548181863918383083
1.1549013050935319491
1.1550981536939251004
1.1553832745938588111
1.1557306784868168759
1.1561193096280324433
1.1565292488121996506
1.1569378893407074038
1.1573175509305051456
1.1576349561268155508
1.1578546153685747022
1.1579479059543484887
1.1579011321403802626
1.1577234755331893279
1.1574467771938066196
1.1571170833848996029
1.1567871729845944362
1.1565042180489144563
1.1563011925372044253
1.1561932420436937807
1.1561781923888612145
1.1562417230010506586
1.1563626959974182551
1.1565170161697342355
1.1566819980860807426
1.1568368678679035177
1.1569647546390380288
1.1570518318841154226
1.1570872192892505126
1.1570648401548442319
1.1569839408042532636
1.1568493138182436297
1.1566698000847046579
1.1564552565678603013
1.1562156771887857065
1.1559596867749761806
1.1556943795615790549
1.1554274942033460061
1.1551683716572664906
1.154928546696870173
1.1547211687020091375
1.1545609027736436492
1.1544618722789732335
1.154434990427166019
1.1544861587045662787
1.1546158009618607831
1.1548201848734391817
1.1550931550062788489
1.1554282209298882833
1.155819689393705163
1.1562623387524051388
1.1567501553405892256
1.1572749352648392662
1.157825135165635011
1.158386399577727266
1.1589434767894277734
1.1594814953145629044
1.1599889813573440733
1.1604614076419041968
1.1609014710775720225
1.161316829844428522
1.1617174147962634478
1.1621111635186600619
1.1624996361219828156
1.1628760889085862917
1.163226242951463929
1.1635319642228427739
1.1637766937223548158
1.1639503396355095344
1.1640517947590367509
1.1640887705477118708
1.1640768491317670108
1.1640363943155891402
1.1639885592261720593
1.1639517682895788031
1.163939137212113728
1.1639576063296783737
1.1640093590601794382
1.1640931157675158403
1.1642052255549879547
1.1643402001183811301
1.1644907164151372392
1.1646482270966000971
1.1648035266944765098
1.164947033830082912
1.1650695770236272342
1.1651638678720284137
1.1652258164806688079
1.1652550720054164479
1.1652544601088659082
1.165229444346721932
1.1651873832855634827
1.165136067964697153
1.1650826292196660994
1.1650325171198117058
1.1649889373287343197
1.1649536658050567706
1.1649281707296237354
1.1649141945558083577
1.164913196696958142
1.1617223435325350067
1.1624222519842364321
1.1610965895826861338
1.1607094844261194311
1.1621719894970357068
1.1632786456978136957
1.1625442642050949349
1.1623084380135744187
1.1626917296267693658
1.1630435223063846362
1.1636906695962918601
1.1643044905238060238
1.1643612337778042054
1.163754071221738684
1.162672100291009869
1.16203098516938641
1.1625073856580954157
1.1632016693413345099
1.1636263124315426865
1.1641823310762609012
1.1648751198419626807
1.1652243166581386369
1.1651999440427447396
1.1649225127506765975
1.1645344402252153504
1.1641974581023084578
1.1641780890076562915
1.1644633299183406727
1.1646802791265216115
1.1646028853024528171
1.1644456168838905885
1.1646012748076490784
1.1651545205802680272
1.1657998968447362831
1.1662671020909955999
1.1665741726054990046
1.1667869073098338095
1.1669670642376164249
1.1671067180024310428
1.1671304317836004305
1.1667869379776607541
1.1661749958220595236
1.1657733039233169059
1.1658673881758279123
1.166294574927215999
1.1666665045878898965
1.1667599173821441294
1.1665868934518628386
1.1662749056451391372
1.166002206066168112
1.1659172088824949487
1.1661077451319243892
1.1665152379186169984
1.1669172747341731711
1.1671411921647039112
1.1672222722081568858
1.1672774883697751847
1.1672921920044665445
1.167216003505954669
1.167041003439887259
1.1669341763887552954
1.1668070828313703569
1.166548983935262962
1.1661838812480158634
1.1658248187829431952
1.1655202940494517883
1.1652507430291061397
1.165020449869614394
1.1648661387823857627
1.1647900067068841512
1.1647054778111485263
1.1645561621016247145
1.1644194070306301825
1.1644144722903968514
1.1645454543040993922
1.1647330368456116911
1.164911381828590109
1.1650859296874493953
1.1652346661931678451
1.1653294628793884335
1.1653156110198690243
1.1651806366162935635
1.1649398408045912312
1.1646712044340474801
1.1644909947081243384
1.1645023657160409325
1.1647353936679076813
1.1651593075123103382
1.1656327840582425548
1.1659624645003607846
1.16604614255928829
1.1659314152675386289
1.1657503114191141158
1.1656025211131915142
1.1655241380988412558
1.1655034703316309308
1.1655470181009481845
1.1656642050278238631
1.1658637503067410535
1.166077204310784543
1.1662298653326603759
1.1662236893716615427
1.1660766272047462522
1.165923817653620409
1.1658952768427137681
1.1660039058523059552
1.1661546893789183077
1.1662490462575743067
1.1662721441944858825
1.1662877566216065528
1.1663345817875103716
1.1663703529279452198
1.1663213981751927584
1.1661662389067277701
1.1659486182260547782
1.16573083995810034
1.165574272130893263
1.1655379313463587465
1.1656340813250247734
1.1658092201533645227
1.1659553107867310917
1.1659992598834139077
1.1659433622583577073
1.1658349718410832008
1.165720672710057082
1.1656153630831951329
1.1655159745086749457
1.1654559600858405144
1.1654815216288822999
1.1655971921025736204
1.1657569481870375672
1.1658741936757948121
1.1658587096753920687
1.1656646573890556695
1.1653422867119720419
1.1650087119242793499
1.1647795135137086753
1.1646983561051877931
1.1647084008104711117
1.1646792313859752888
1.1645205962964282342
1.1642424756329452507
1.1639313774794735057
1.1636648329436938276
1.1634763109714643115
1.1633480568044887171
1.1632791642311246516
1.1632635497262546753
1.1632960082375991551
1.1633306894757402539
1.1633087573255869174
1.1631852478939967988
1.1629431904138571863
1.1626125724591978017
1.1622558119859871528
1.1619473373428248486
1.1617641899169859343
1.1617504597781465048
1.161893312174492543
1.1621105075847437682
1.1623231020234823241
1.1624525645568437593
1.1624941424836705561
1.162451125798079854
1.1623447280404002324
1.1622013664385955067
1.1620443293214686165
1.1618918664662905016
1.1617755152716631173
1.1617478872861053407
1.161860325057779475
1.1621341362961608024
1.1625487796367743876
1.1630096109802321447
1.163400837540980115
1.1636171385126372613
1.163614666455926816
1.1634373529954096238
1.163189024352579759
1.1629864000840268723
1.1629037530979611237
1.1629413409811444335
1.1630461017545785651
1.1631435185460847759
1.163182323450964617
1.163133529787975684
1.1629858533962476042
1.1627355857004637585
1.1623866663849604652
1.1600635408406625437
1.1599585722799024001
1.1598757499120706527
1.1598321868993377581
1.1598430642493220422
1.1599054706761182665
1.1599832595769954402
1.1600221038874198864
1.159967870724387895
1.159816965624491214
1.1596023258645331566
1.1593932225971887995
1.1592563242738691542
1.159234094631076406
1.1593350698267819165
1.1595248699194697917
1.1597456201984266411
1.1599302975734235854
1.160024064391355747
1.1599954451829623814
1.1598481618331111243
1.1596209205100775907
1.1593680660349707789
1.159142094717644067
1.1589749985312147729
1.1588825446749366765
1.1588655950105073433
1.1589183098557032103
1.159023693058626181
1.1591529139448877306
1.159262759338490989
1.1593047670874394584
1.1592426509041278138
1.1590699405495465957
1.1588251706313856815
1.1585768041486328439
1.1584008824889475697
1.1583547150727067088
1.1584524410646046544
1.1586601541423391382
1.1589128441321128182
1.1591397760465365074
1.1592890498721497572
1.1593445466052281212
1.1593227853964982454
1.1592606350319214492
1.1591962128069577265
1.1591538340759326431
1.1591390727009527328
1.1591374144749471142
1.1591243079574413688
1.1590761394878346113
1.1589836145911074361
1.1588514940531098318
1.1587000944327756624
1.1585638562987616851
1.1584715536503833455
1.1584374947304987291
1.1584517531935523138
1.1584919321053581687
1.158529198702333618
1.1585391996909668588
1.158514347084836249
1.1584618433487678946
1.1584016442117823775
1.158357080823510854
1.1583438640391392482
1.1583696555021356644
1.1584310868538565398
1.158520130876609322
1.1586281660723132259
1.1587461892480854786
1.1588660907515817566
1.1589820955745202546
1.1590840020467010341
1.1591609250070398218
1.1592011120980003636
1.1591932227196712901
1.1591299258696770025
1.1590110116938081575
1.1588474968225366268
1.1586580345053474339
1.1584690389758118823
1.1583056950180623534
1.1581865962648816293
1.1581195641104247152
1.1580970538829886696
1.158099463070914048
1.1581074939535724866
1.1581021271672820028
1.1580694864030531832
1.1580094973008641102
1.1579239343934046857
1.1578167003058690288
1.1576895005556500085
1.1575416309910826484
1.1573743317304108214
1.1571941688853439878
1.1570111428952174482
1.1568418158017337305
1.1567053340663171479
1.1566172204137701307
1.1565843676253955152
1.1565996860108489486
1.1566446360702882235
1.1566976397529091791
1.1567377415329704871
1.1567529242978351611
1.1567373494628838682
1.1566942023502024828
1.1566294188748043048
1.1565496640057582045
1.1564586727666934518
1.1563617513225517008
1.1562665573268586794
1.1561787901289837244
1.1561076640560699058
1.1560670363407363759
1.1560575502010448368
1.1560759978673709192
1.1561118811343333856
1.1561465895298812523
1.1561614851336028398
1.1561429690394440239
1.156082853520809417
1.1559795477358625337
1.1558379803484826187
1.1556685432901296906
1.1554836581556173769
1.1552953503552558789
1.1551195228083472877
1.1549764948582026403
1.1548876891519654908
1.1548734193198442188
1.1549466151795837465
1.1551109534847776583
1.1553567921925493867
1.155661331073147835
1.1559952361119598674
1.1563275276012139337
1.156634369900988446
1.1569022395870238729
1.157120134719616722
1.1572833522802552508
1.1573801562881345095
1.1574009662883690819
1.1573308087989839787
1.1571612102671930966
1.1568913020396172087
1.1565389227410514117
1.1561366269887771718
1.1557299964609641929
1.1553699002500723569
1.155101045662337178
1.1549530027407990396
1.1549356114893174485
1.1550408670722545068
1.1552457164596243722
1.1555237783446459243
1.1558520491786805628
1.1562105668199156305
1.1565825175591641916
1.1569484254548587643
1.1572814572751091156
1.157549758404247342
1.1577206750274930958
1.1577710002059136141
1.1576936265472472787
1.1575025168005197429
1.1572335098616519655
1.1569352924920635051
1.1566569344480723824
1.1564400342657958909
1.1563084445871050221
1.1562686140273432667
1.1563106251416122028
1.1564138119798366144
1.1565539568224314504
1.1567086581060919137
1.1568586270258733872
1.1569899021733678346
1.1570907643969554623
1.1571518885881186822
1.1571661101741690381
1.1571285431558835377
1.1570377672269860359
1.1568962830006335185
1.1567109034618745511
1.1564905453815164105
1.1562443364346814967
1.1559812574061683055
1.1557101151477644496
1.1554405796150881702
1.1551833188212676795
1.1549503846271533813
1.1547549676782540296
1.1546099945332699566
1.1545269315521238251
1.1545146408581099529
1.1545781208662155848
1.1547178270793374555
1.154930983314384374
1.1552131126669507033
1.1555593419119347676
1.1559649941356786584
1.1564245615353700991
1.156931044689897492
1.157474579519915947
1.1580413668123856752
1.1586148152453754623
1.1591784364731421153
1.1597178621236419183
1.1602229280689022595
1.1606901376368967682
1.1611232491218630436
1.1615308716887156049
1.1619230403161291409
1.1623078561135773423
1.1626878057918081932
1.1630573852994465778
1.1634033190486408049
1.1637077582863870617
1.1639536441980697923
1.1641294046865418021
1.1642318690285873295
1.1642670672400377008
1.1642493802326439045
1.1641991395664239572
1.1641386758944751723
1.1640885700338869935
1.1640646941199961351
1.1640763333086419085
1.1641265585444739994
1.1642136199579218303
1.1643320635615002079
1.1644742394061229351
1.1646311531292847796
1.1647927330995548889
1.1649485527456726608
1.1650887833150744832
1.1652053029225573066
1.1652925397101496774
1.1653479889299496186
1.1653723476703155004
1.1653691419264493589
1.1653445287962591603
1.1653063320681440462
1.1652624112254468258
1.1652193647407087518
1.1651819319874674452
1.1651529801663360608
1.1651338967381963396
1.1651253349948733629
1.1651280392864353797
1.1651426839332341689
1.1651699401513930798
1.1638982131145212406
1.1635336306881398638
1.1633779967191064664
1.1636791094062741703
1.164123382026147846
1.1646278218270922356
1.1640317582983052969
1.1635273806754373727