/*--------------------------------*- C++ -*----------------------------------*\
  =========                 |
  \\      /  F ield         | OpenFOAM: The Open Source CFD Toolbox
   \\    /   O peration     | Website:  https://openfoam.org
    \\  /    A nd           | Version:  12
     \\/     M anipulation  |
\*---------------------------------------------------------------------------*/
FoamFile
{
    format      ascii;
    class       volScalarField;
    location    "0.00515";
    object      alphat;
}
// * * * * * * * * * * * * * * * * * * * * * * * * * * * * * * * * * * * * * //

dimensions      [1 -1 -1 0 0 0 0];

internalField   nonuniform List<scalar> 
106891
(
7.3394058039887910739e-06
7.3311309703653679796e-06
7.3214092039957968532e-06
7.3133747145214111495e-06
7.3038957530797106858e-06
7.2963460531085201738e-06
7.2871232453293403983e-06
7.2799024830434182405e-06
7.2709473674215002238e-06
7.2639358148220494222e-06
7.2542436132029978614e-06
1.1182687698648092591e-05
1.1171275601581553332e-05
1.1151856394402647182e-05
1.1128839361167795557e-05
1.1106092716107571176e-05
1.1084782652335720991e-05
1.1063795277641572798e-05
1.1044091183545409334e-05
1.1024508517731773308e-05
1.1006474183838373348e-05
1.0989379204044933964e-05
1.0974521645315068493e-05
1.0960565454496228299e-05
1.0948258012022355325e-05
1.0935822043545626432e-05
1.0924088591622570864e-05
1.0911674708347512432e-05
1.0899501648775235517e-05
1.088631367745759496e-05
1.0873115267035824127e-05
1.0859186500304695419e-05
1.0845753895302549718e-05
1.0832057854613732779e-05
1.0819320503448272126e-05
1.0806290136896332796e-05
1.0793723893899774142e-05
1.0780730299815279244e-05
1.0768814145971324959e-05
1.0756959704742835221e-05
1.0746057063710885221e-05
1.0734591130993085471e-05
1.0723232852851921431e-05
1.0710837994490526499e-05
1.0698694523294051178e-05
1.0685712925315213369e-05
1.0673286937152024937e-05
1.0660059526117900787e-05
1.0646923016445082916e-05
7.8024240970011279249e-06
7.7936661491849093503e-06
7.7864857250364144774e-06
7.7772928925452936629e-06
7.7695331239760444128e-06
7.7597083518767747285e-06
7.7513607315182350645e-06
7.7409737908508243544e-06
7.732151923098763661e-06
7.7214834318424473543e-06
7.7125349965207039293e-06
7.7019356671183438471e-06
7.6932633740644761609e-06
7.6829511339714557798e-06
7.6748206735298670823e-06
7.664754680227210451e-06
7.6569355214739521083e-06
7.6471451503948771296e-06
7.6395715028962911413e-06
7.6289537733806337959e-06
1.1764516691250638173e-05
1.1740015004298833269e-05
1.171445785712795549e-05
1.1690817172750446606e-05
1.1667994337074565186e-05
1.164685224815980868e-05
1.1625756637450288507e-05
1.1605944461233489237e-05
1.1586510794194216108e-05
1.156897513473822766e-05
1.1552378743948337451e-05
1.1537905784237455431e-05
1.1523826431997735728e-05
1.1510977254892523127e-05
1.149778451746411297e-05
1.1485112043266655407e-05
1.1471505721680235311e-05
1.145774799716227367e-05
1.1442825838757857184e-05
1.1427930752104375689e-05
1.1412532650351243452e-05
1.1398440624171399637e-05
1.1384698843295355903e-05
1.1372063811626019231e-05
1.1358949005834084769e-05
1.1346583009443666129e-05
1.1333910788155972417e-05
1.1322338726964530052e-05
1.1310551295450274882e-05
1.1299319318792644488e-05
1.1287160277931066149e-05
1.1275149901202071901e-05
1.1261943081871335606e-05
1.1249124665957529676e-05
1.1235503663371898805e-05
1.1222147989843375462e-05
8.2095914211504925962e-06
8.2001578196132156946e-06
8.1925326091159485806e-06
8.182746555079824409e-06
8.1745862109709566221e-06
8.1641524006009688472e-06
8.1553579152875268148e-06
8.1443086684027292204e-06
8.1349508768050617606e-06
8.1234842592620050693e-06
8.1139374296830783643e-06
8.1025337701743458817e-06
8.0932647841425186147e-06
8.0821287171600807251e-06
8.0734093760887806881e-06
8.062506955377347483e-06
8.0540712538659271899e-06
8.043371939906188774e-06
8.0351300033079693647e-06
8.0234193234985339683e-06
1.2406599165529382228e-05
1.2387951546066005055e-05
1.235862035552364336e-05
1.2330603210605533418e-05
1.2303909911724152297e-05
1.2279351511516095995e-05
1.2255250164428515091e-05
1.2232698036330434191e-05
1.2210712812199006296e-05
1.219069088662417116e-05
1.2171611646970560594e-05
1.2154836520529350267e-05
1.2138638359381107273e-05
1.2123990918161214691e-05
1.2109175831501860384e-05
1.2095120143598505377e-05
1.2080132561381996218e-05
1.2064915244551652356e-05
1.2048328151307578481e-05
1.2031734423192729189e-05
1.2014822159003180773e-05
1.1999693256128220206e-05
1.1985434905302671488e-05
1.1972771107856160011e-05
1.1959805838689736003e-05
1.1947345352863781464e-05
1.1934078669177085186e-05
1.1921434813845559832e-05
1.1908426623667679544e-05
1.1896165116905992165e-05
1.1883312246393957525e-05
1.1870835631401348027e-05
1.1857092335551646498e-05
1.1843534219977686e-05
1.1828988765955390867e-05
1.1814780701891289705e-05
8.6277864377161363267e-06
8.6195606030623237804e-06
8.609044005489392275e-06
8.6004215282086572675e-06
8.5893500633359833399e-06
8.5801067546777271125e-06
8.5683789687474929526e-06
8.5585393063058868407e-06
8.5464344333503632133e-06
8.5363935190075419975e-06
8.5242636880358314561e-06
8.5144758431770460876e-06
8.5025814667788307251e-06
8.4932881745321545314e-06
8.4815121333256637256e-06
8.4724102578869610422e-06
8.460760751654737818e-06
8.4517952723383912698e-06
8.4389178216181959398e-06
1.3046623496616078667e-05
1.3014394642961372346e-05
1.2983566658013900286e-05
1.2955669791798490021e-05
1.2928960122255824471e-05
1.2904221576447323571e-05
1.2879907036206713974e-05
1.2857141210245147739e-05
1.2834828548452665556e-05
1.2814646975789812408e-05
1.2795247584435812574e-05
1.2778015248368897812e-05
1.2761304102354292664e-05
1.274605613141759998e-05
1.2730451963522647962e-05
1.2715040869034862332e-05
1.2698302147784505285e-05
1.2681174153156052659e-05
1.2662968928129754941e-05
1.2645948887184063974e-05
1.2629791873378454567e-05
1.2616172393042655444e-05
1.2603338677043413515e-05
1.2591635884528321561e-05
1.2578667560514915149e-05
1.2565317449630551528e-05
1.2550675717616546672e-05
1.2536594539910426749e-05
1.2522287547995076713e-05
1.2509137158246343987e-05
1.2495314235000728133e-05
1.2481873328200712611e-05
1.2467080533771196431e-05
1.245222260266155773e-05
9.0889648224818806523e-06
9.0775521148403996849e-06
9.0685385560862357589e-06
9.0571036420912436011e-06
9.0479201198385889217e-06
9.0361647605357229803e-06
9.0264790000926162217e-06
9.0141686185828504712e-06
9.0039278286975172672e-06
8.9912059093792070532e-06
8.9807418681486238829e-06
8.9680170583724160206e-06
8.9577849715010528432e-06
8.945177290156407091e-06
8.9353306659572552111e-06
8.9227023704657334958e-06
8.912924866947565623e-06
8.9003030028883772882e-06
8.8905825455216102481e-06
8.8765121298365931676e-06
1.3740008552601957784e-05
1.3706578459219141063e-05
1.3675795715271605579e-05
1.3646516561239810229e-05
1.3619943001065219266e-05
1.3594142821082092959e-05
1.3569810485873723695e-05
1.3545244654624348746e-05
1.3521960992542947526e-05
1.3498745471240655949e-05
1.3477642036966873659e-05
1.3457472737733919323e-05
1.3439518464861017344e-05
1.3422023483632562662e-05
1.3405556894192615017e-05
1.3388298190683240276e-05
1.3370805301984500907e-05
1.3351882056711067363e-05
1.3333544664755674229e-05
1.3315310606827832356e-05
1.3299454366573909027e-05
1.3284931064501733706e-05
1.3272866934243815175e-05
1.3260560656568809031e-05
1.3247971227575345397e-05
1.3233016310838566278e-05
1.3217264144812082693e-05
1.3200348879720310487e-05
1.3184766679933099433e-05
1.3169383692176503235e-05
1.3155525295574215113e-05
1.3140906139942810536e-05
1.3126156421277929292e-05
9.550711528725367027e-06
9.5407198718222019238e-06
9.5282048896892967196e-06
9.5183018214633919593e-06
9.5057448407119383109e-06
9.4955805574637055068e-06
9.4826494950611118736e-06
9.4720366922101986549e-06
9.4587649003387599381e-06
9.4479724042760762631e-06
9.434656174664034136e-06
9.4240078190684635446e-06
9.4107184904825532995e-06
9.4003917605613875985e-06
9.3869549919843970975e-06
9.3765379850815268895e-06
9.3629955436450846255e-06
9.352567105396408491e-06
9.3374477009521120218e-06
1.4421977796561246226e-05
1.4391639972837297294e-05
1.4362543929111821613e-05
1.4336215145794705206e-05
1.4310790237698290051e-05
1.4286611913075773929e-05
1.4261670714316130944e-05
1.423747756283603018e-05
1.4212878975657909522e-05
1.4190251093083248776e-05
1.416854787473948155e-05
1.414933493543107411e-05
1.4130700635450395319e-05
1.411321464008983927e-05
1.4095001847919125796e-05
1.4076834721205457696e-05
1.4057647479464306886e-05
1.4039359489170128795e-05
1.4021091238363113791e-05
1.4004901085867803854e-05
1.3989738370182796623e-05
1.3976861947501164927e-05
1.3963702267475886501e-05
1.3950116832861173875e-05
1.3933842877233888565e-05
1.3916327181328159502e-05
1.389733345148508499e-05
1.3879714037751225323e-05
1.3862699909537455796e-05
1.3847818228388299652e-05
1.3832609261907298444e-05
1.3817527779123978015e-05
1.004883930909572871e-05
1.003774006688333415e-05
1.0023961498407717578e-05
1.001315545167311377e-05
9.9996190706963210943e-06
9.9888750908742178784e-06
9.9752105354987114069e-06
9.964209851659998419e-06
9.9503133033917221634e-06
9.939121114203453491e-06
9.9251265522321969586e-06
9.9140610619385969649e-06
9.9001095978400485931e-06
9.8893705121327795049e-06
9.8752631145145097823e-06
9.8643571028426465651e-06
9.8500505069345913425e-06
9.8390835171070181487e-06
9.8233854053336481182e-06
1.5176438827458401949e-05
1.5144732312443376357e-05
1.5114783477613726823e-05
1.5087413265092809302e-05
1.5060209357813923476e-05
1.5033859074461947787e-05
1.5006422788153196164e-05
1.4980254462453579097e-05
1.4954591921825237686e-05
1.4931512219468849319e-05
1.4909442283351622958e-05
1.4889301943412222836e-05
1.486927374916829152e-05
1.4850078944957062721e-05
1.4830305212416257374e-05
1.4811546779984495332e-05
1.4792354928955803845e-05
1.4774471432594743636e-05
1.475645624279731165e-05
1.4740173511806105237e-05
1.4724057133013176038e-05
1.4708948543065852063e-05
1.4692474439878291497e-05
1.4675153013137887044e-05
1.4655304757887306291e-05
1.4635390504396102204e-05
1.4615082427935806173e-05
1.459717492763628943e-05
1.4580077575491777201e-05
1.4564586685136830704e-05
1.0562139648037664055e-05
1.0546961604809853324e-05
1.053506216290120484e-05
1.052032784298794861e-05
1.0508766613316640386e-05
1.0494145629214008232e-05
1.0482552042947779585e-05
1.0467856972802271022e-05
1.0456165591113713491e-05
1.0441447463303771007e-05
1.0430008246491477035e-05
1.0415442655662214262e-05
1.0404314173779008704e-05
1.0389642861190202903e-05
1.0378423788316714854e-05
1.036360871897114767e-05
1.0352398010112784512e-05
1.0336531289867132561e-05
1.5945705983980223649e-05
1.5916956172754531093e-05
1.5888920198034762478e-05
1.586269772185331059e-05
1.5835526264792086583e-05
1.5809248338169920725e-05
1.5782436506201656467e-05
1.5757479150811470561e-05
1.5733148116869711224e-05
1.5710997042948616841e-05
1.5689174533903299134e-05
1.5668639699680548952e-05
1.5647923673744371217e-05
1.5628894862043721915e-05
1.5609621799907840171e-05
1.5591600147039822133e-05
1.5572593125077111481e-05
1.5554369529373975636e-05
1.5535233871917830163e-05
1.5516834675895974435e-05
1.5497761137671564179e-05
1.5479587773905087314e-05
1.5460046923498877271e-05
1.5440466639734128134e-05
1.5419116249834756335e-05
1.5398636146392514942e-05
1.537814010601247573e-05
1.5359756161034865987e-05
1.1124752706795820438e-05
1.1108669406973973779e-05
1.1095702990628016871e-05
1.1079817958173368499e-05
1.1067210200886213562e-05
1.1051608668841111222e-05
1.1039270874601353085e-05
1.1023929989831996281e-05
1.1011812242213863441e-05
1.0996690803444696412e-05
1.0985004582389957625e-05
1.0970078466405473646e-05
1.0958724969995999832e-05
1.0943893454828968828e-05
1.0932724861406644244e-05
1.0917972219535411677e-05
1.0906989834898474213e-05
1.0891861356724862698e-05
1.6717548593023634772e-05
1.6689462177284903298e-05
1.6663198747360037053e-05
1.6636748866236245444e-05
1.6611763937911292968e-05
1.6586727181364220113e-05
1.6563458070016807299e-05
1.6540463139656739881e-05
1.6519052047449092803e-05
1.6497625118764570987e-05
1.6477386386632495964e-05
1.645737756757406029e-05
1.6439159847736073975e-05
1.6420739650797782017e-05
1.6403100438202238243e-05
1.6384079145254746451e-05
1.6365015012050162824e-05
1.6344566450193603169e-05
1.6324483668915080808e-05
1.6303984890498528991e-05
1.6284885072446751209e-05
1.6265374961365184134e-05
1.6246425328631489718e-05
1.6225843472133576965e-05
1.6205257037653983539e-05
1.6183380276324878591e-05
1.6162748669842285862e-05
1.1668731379599640231e-05
1.1651627672337407074e-05
1.1635687884282297369e-05
1.1618565700398262726e-05
1.1602835420127931043e-05
1.1586130216548526085e-05
1.1570984949865536573e-05
1.1554905565993277283e-05
1.1540275255426412469e-05
1.1524879899786692446e-05
1.1510553845350022527e-05
1.149567974753549361e-05
1.1481700535767148892e-05
1.1467168925928806266e-05
1.1453516897270991568e-05
1.1439222939594797531e-05
1.1425681244606505953e-05
1.727466441674095949e-05
1.724465452119009444e-05
1.7216901885490710139e-05
1.7189973495867980757e-05
1.7165138300697878711e-05
1.714078778092932516e-05
1.7118652804173999625e-05
1.7097027453971603872e-05
1.7077174680815184724e-05
1.7057134690522918305e-05
1.7038190020558883765e-05
1.7019009108817911559e-05
1.7001415710440997536e-05
1.698367425486759267e-05
1.6967097830841875898e-05
1.6949019991450321726e-05
1.6930621597501456678e-05
1.6910241683689356928e-05
1.6889815790341811201e-05
1.6868665169080096413e-05
1.6849155190372763796e-05
1.6829677959450576821e-05
1.6811505744288379543e-05
1.6792415684276240396e-05
1.6773178937494518076e-05
1.6751595879088262346e-05
1.6729750618429115906e-05
1.199568888497430568e-05
1.1979541409414140669e-05
1.1957956384556625028e-05
1.1941970907374423923e-05
1.1920874358203835115e-05
1.190568785909653751e-05
1.1885459444348421725e-05
1.1871113647079548884e-05
1.1851483043656025698e-05
1.183774587950941859e-05
1.1818610316582410917e-05
1.1805450331679388415e-05
1.1786745708764308693e-05
1.1774059626180731773e-05
1.1752591866641590892e-05
1.1748253158783548191e-05
1.3536967014113837984e-05
1.3515408365590686869e-05
1.3494744535028703434e-05
1.3476098120484814963e-05
1.3458342899751435368e-05
1.3442264354181229584e-05
1.3426692840029320883e-05
1.3412919770809308086e-05
1.3399589255610078959e-05
1.3387874590994277462e-05
1.3375785752606265415e-05
1.3364653027349671389e-05
1.3353059226656767541e-05
1.3342477634819252511e-05
1.3330801233497734391e-05
1.3319095362189491431e-05
1.3305556799022099745e-05
1.3291700982119505027e-05
1.327702811165967107e-05
1.3263323816738148262e-05
1.3249631711995950339e-05
1.3237245124500887717e-05
1.3224264936426066496e-05
1.3211366212168967069e-05
1.3197266681983131227e-05
1.3182788698744135061e-05
1.3166975133103110801e-05
1.3151751371800767912e-05
9.3128683740849329094e-06
9.2962487251119994272e-06
9.2840459179948020611e-06
9.2676430179890842718e-06
9.2558572189329290752e-06
9.2399123199996375199e-06
9.2286593344650790237e-06
9.2130508821878738713e-06
9.2022397826550464276e-06
9.1871291761812265642e-06
9.17685393380845212e-06
9.1622110808951635674e-06
9.1523645477519383209e-06
9.1355150394654929433e-06
9.134640153996056571e-06
1.278931855385931361e-05
1.2766813691081037446e-05
1.2746630658111870289e-05
1.2727176035282500185e-05
1.2709393017152439037e-05
1.2692034493845386596e-05
1.2676558475581342565e-05
1.2661666994451270947e-05
1.2648642618076369891e-05
1.2635658622151779866e-05
1.2623513657616731697e-05
1.2610634294033661203e-05
1.2598218939464651909e-05
1.2584576280611380866e-05
1.2570953686417064125e-05
1.255586975343403938e-05
1.2540970353394825988e-05
1.2525589411089057683e-05
1.251127348667395503e-05
1.2496919904339494128e-05
1.2483661986346213251e-05
1.2469669037892019327e-05
1.2455799949302394949e-05
1.2440791040450612282e-05
1.2425807084474769983e-05
1.2409855487043649691e-05
1.239473137868858802e-05
8.852860966527969659e-06
8.8423429569767598502e-06
8.8282931756105237185e-06
8.8179808453171138621e-06
8.8041127352953970714e-06
8.7940829105339063111e-06
8.7804211811289111097e-06
8.770693097470217206e-06
8.7574471575450860985e-06
8.7481866225791184529e-06
8.7353291089207800392e-06
8.7264288893186022075e-06
8.7119445717042837298e-06
8.7062092825874683497e-06
1.2289348922592171348e-05
1.2270486782863400372e-05
1.2252015774064540111e-05
1.2234845027724060824e-05
1.2217779519149414994e-05
1.2202339272679594217e-05
1.218752459578249259e-05
1.2174779244769163916e-05
1.2162401047421137897e-05
1.2150882685125646932e-05
1.2138386375210895033e-05
1.2125861724607218316e-05
1.2111866114152873916e-05
1.2097921521224618173e-05
1.2082918194128813068e-05
1.206850696515463551e-05
1.2053880225437815725e-05
1.2040315050554248289e-05
1.2026567115181231602e-05
1.2013649336951624449e-05
1.1999804825614361365e-05
1.1986061288672045756e-05
1.1971381023287676679e-05
1.1957066408953130975e-05
1.1942065673924391484e-05
1.1927960743605835637e-05
8.5158550008078215599e-06
8.5028397383492021233e-06
8.4932732644847959847e-06
8.4801100003929972258e-06
8.4703911566592770155e-06
8.4571867694045419503e-06
8.4476660971068394119e-06
8.4348503765659822295e-06
8.4258477642395272745e-06
8.4134880307047093774e-06
8.4048391690517737003e-06
8.3912427474649901404e-06
8.3848822786886431359e-06
1.1807897259948014061e-05
1.1790539445199277061e-05
1.1774105809043111288e-05
1.1757485601990741667e-05
1.1742275871308885423e-05
1.1727667653903522255e-05
1.171516379381353145e-05
1.1703169551606866291e-05
1.1692146232006988269e-05
1.1680111113642521249e-05
1.1667758587598287462e-05
1.165372111194422907e-05
1.1639702427722151636e-05
1.1624956902214790002e-05
1.1611145078404631802e-05
1.1597328039379540721e-05
1.158453896678012402e-05
1.1571454253940055852e-05
1.1559027959637650727e-05
1.1545676049701243429e-05
1.1532528896896079452e-05
1.1518745492113155761e-05
1.1505549696345065193e-05
1.1491835417569582083e-05
1.1478813960210670575e-05
8.1805723677393923183e-06
8.171545769523397683e-06
8.1589239272154546979e-06
8.1494164644488807333e-06
8.1365072352547257103e-06
8.1270475521442242853e-06
8.1144950881489989758e-06
8.1056060651232105034e-06
8.0935493411700298346e-06
8.0850744919576069585e-06
8.0718751210998376799e-06
8.065652601445629145e-06
1.1349419175292155975e-05
1.1333410247528595351e-05
1.1317149239854391998e-05
1.1302146103122895818e-05
1.1287638682070084845e-05
1.1275167894042321853e-05
1.1263302108067858176e-05
1.1252539430963656188e-05
1.1240820792785276676e-05
1.1228667221351145295e-05
1.1214741414858924498e-05
1.1200826656224348221e-05
1.1186447651331814476e-05
1.1173294631517259232e-05
1.1160324554485698463e-05
1.1148379409561491379e-05
1.1136082507151025291e-05
1.112443209701694026e-05
1.1111981368950361483e-05
1.1099854067268933542e-05
1.1087207825526523543e-05
1.1075191650557863796e-05
1.1062648347955299758e-05
1.1050604581508931398e-05
1.0904105257249972378e-05
1.0889002092125497906e-05
1.0874887210972411435e-05
1.0861017093234107126e-05
1.0848944245453533516e-05
1.0837389073827869944e-05
1.082694536369477789e-05
1.0815631399952845489e-05
1.0803919677351797485e-05
1.0790477539076926062e-05
1.0777031844127847983e-05
1.0763271250960147881e-05
1.0750932549079136668e-05
1.073897305662305594e-05
1.0728086668545405531e-05
1.0716791431407123397e-05
1.0706051430205230229e-05
1.0694572045236449442e-05
1.0683518056058769404e-05
1.0672055802826000524e-05
1.0661132401324406409e-05
1.0649444478665645751e-05
1.0637846478342909712e-05
1.046666878876344684e-05
1.0452561488362097843e-05
1.0440123030532498383e-05
1.0428286788055032258e-05
1.0417699983276308768e-05
1.0406384564219561448e-05
1.0394796865817642541e-05
1.0381701892689649714e-05
1.0368757261513025425e-05
1.0355668510402976057e-05
1.0344064280892940237e-05
1.0332925433251041115e-05
1.0322915646034764868e-05
1.0312516393257445087e-05
1.0302599378955802474e-05
1.0291969229801186409e-05
1.0281814254194564107e-05
1.0271354616966037838e-05
1.0261312290668553597e-05
1.0250209305620161849e-05
1.0238766483148954752e-05
1.002073141159569811e-05
1.0009714002638609302e-05
9.9985114967291965318e-06
9.9860101845719516605e-06
9.9737635754694322439e-06
9.9614585051927872144e-06
9.9506171251216358781e-06
9.9402164606757655561e-06
9.930893455208810293e-06
9.921176746145309467e-06
9.9119467028536467135e-06
9.9020731100517559353e-06
9.892732828822643724e-06
9.8830044759965642286e-06
9.8734703133393957118e-06
9.8626945583184737849e-06
9.8514227984108458517e-06
9.5999511088888574037e-06
9.5881339332813596775e-06
9.577694784148704614e-06
9.5676299390345529767e-06
9.5585971609259587595e-06
9.5491982978955950936e-06
9.5402896146027111327e-06
9.5308017030589418613e-06
9.5218186545047369285e-06
9.5123832403007423862e-06
9.5029549807918293379e-06
9.4921611702587455962e-06
9.4808157654647672361e-06
9.2277824942875018315e-06
9.2179079777954688708e-06
9.2082095515924773237e-06
9.1994085016230153795e-06
9.1903091223318867482e-06
9.1817304257350368179e-06
9.172602542761114342e-06
9.1638562444443235564e-06
9.1545353540557799821e-06
9.1450625248135919974e-06
9.1341896338509035911e-06
9.1227916528708700723e-06
5.1212257488409749685e-06
5.0937992078785845277e-06
5.0789254779002941363e-06
5.0729258053066323526e-06
5.0703904669592416438e-06
5.0731686681041378672e-06
5.0960866432879066505e-06
5.142477440969344299e-06
5.1780347240673666305e-06
5.1995625716524703421e-06
5.2086738977261523082e-06
5.2083441389467757213e-06
5.2042549412734597246e-06
5.1957679470555502883e-06
5.1746694743225448506e-06
5.1525736608341819451e-06
5.1401886018318507083e-06
5.1347773195569164809e-06
5.1325422031076141369e-06
5.1374634961703062206e-06
6.8712944439203081052e-06
6.8655403436396158338e-06
6.8626860786009453763e-06
6.8605379031860971203e-06
6.8600913732145319703e-06
6.8614989758184706379e-06
6.8628302614124518324e-06
6.8661028109017945028e-06
6.8698078630208455882e-06
6.8720206730225839582e-06
6.8701903091059792679e-06
6.8656924151094818508e-06
6.8578807818247234464e-06
6.8391897694118343421e-06
6.7856271772718549046e-06
6.7030502260035515079e-06
6.636469651906008495e-06
6.5891452846076238394e-06
6.5602759431559974014e-06
6.5453450466417629482e-06
6.5382648793930265834e-06
6.5339549706919492178e-06
1.1137572292166566238e-05
1.10798369690227377e-05
1.1039688110390198232e-05
1.1012620185175383338e-05
1.0992530028800909754e-05
1.097829353895406112e-05
1.096794710765857441e-05
1.0958992892464065283e-05
1.0952035863597413707e-05
1.0946268606222830187e-05
1.0945174951437649347e-05
1.0941266939422998296e-05
1.0934537249332260532e-05
1.0923256574196156215e-05
1.0897056680380254066e-05
1.0825936303285760173e-05
1.0694968905960788047e-05
1.0574493364693255177e-05
1.0476144632473137006e-05
1.040477204098162151e-05
1.035807622655561373e-05
1.0330795896368946148e-05
1.0314594220431633689e-05
1.0303138352325926289e-05
1.0293202621755982048e-05
1.0283506554755977481e-05
2.3804452516505228703e-05
2.3765775135491265204e-05
2.3742294895709499677e-05
2.373038249102460965e-05
2.3723486101628757041e-05
2.3718236590320965494e-05
2.3714542993204484038e-05
2.3708757022840678576e-05
2.3700374654695718853e-05
2.3689367736652502933e-05
2.3673829083621501074e-05
2.3653790901186162103e-05
2.3625756130253707459e-05
2.3579054680733586478e-05
2.3481745349111624613e-05
2.3355817658388173559e-05
2.3226852560996373521e-05
2.3104507621050473891e-05
2.299967255505185691e-05
2.2919018517351018511e-05
2.2863434875814115456e-05
2.2830147292544128234e-05
2.2809190763447523644e-05
2.2791663760975835822e-05
2.2772803013037607118e-05
2.2751635719828784964e-05
2.2727817640138976018e-05
2.2702310439063053723e-05
5.7263491077083461111e-05
5.7199554263543447158e-05
5.7153881433389980716e-05
5.7119038934868776917e-05
5.7086233395170799952e-05
5.7048509994364996498e-05
5.7004832186986969329e-05
5.6958784520355260658e-05
5.6915896834704542682e-05
5.6873238860553029827e-05
5.6826277632651360082e-05
5.6769270380470696329e-05
5.6691550736469764789e-05
5.6567223947723391545e-05
5.6410400597937021593e-05
5.6246251198818985023e-05
5.6084376253411192712e-05
5.5934751287253996579e-05
5.5802028514461976267e-05
5.5688846095707892909e-05
5.5600335835944099448e-05
5.5534358870211773329e-05
5.5480151835047746619e-05
5.5430540478553225463e-05
5.5372926199146543867e-05
5.5308943340861378354e-05
5.5236975504688316698e-05
5.5165016507196926914e-05
5.5090839726026373849e-05
5.501747869934288615e-05
9.8632759996603220926e-05
9.8460880219041266434e-05
9.8294203792388961001e-05
9.8138909234184973471e-05
9.7986906450042352262e-05
9.7824511519487740972e-05
9.7644255747269542039e-05
9.7451777700796189913e-05
9.7259886791221169134e-05
9.7077249270523824375e-05
9.6901757556044912302e-05
9.6724988769117476654e-05
9.6539725095672285042e-05
9.6348922475013090423e-05
9.6163105348872319838e-05
9.5994986056569298646e-05
9.5849540684756823943e-05
9.5719817788422750923e-05
9.5591415371955350743e-05
9.5453212594164043225e-05
9.5302813469630486085e-05
9.5148160883297777332e-05
9.4997436217327950762e-05
9.4852860830165632955e-05
9.4706777687403228541e-05
9.4549954884756069696e-05
9.4377937390918584465e-05
9.4197645830098756864e-05
9.4018256966688819732e-05
9.3849283491761263903e-05
9.3691898849975090223e-05
9.3543224057160651117e-05
0.00012641538902653033823
0.00012617604386677772955
0.00012595301177637568328
0.000125755780891290478
0.00012556964197324099546
0.00012537256087115901068
0.00012515412415106205875
0.00012492402653426314791
0.00012470173695030447561
0.00012449798306022482838
0.00012430487796195408153
0.00012410448701924173764
0.00012388449517486242605
0.0001236505982379437177
0.00012342121980734576943
0.00012321469732241681285
0.00012303585623154087271
0.00012287117043275204127
0.00012269896140943448181
0.00012250525371677598919
0.00012229193769442586216
0.00012207554437322325615
0.00012187252779277494023
0.00012168640159455493342
0.00012150480929732505842
0.00012131180681214680022
0.00012110026904772102155
0.00012087654418031474159
0.00012065262598985604381
0.00012043858438507117829
0.00012023568787716714984
0.00012004083001157686659
0.00011984357166831316238
0.00016242808772634967363
0.00016158544596129716608
0.00016077576052779966377
0.00016001634470785115142
0.00015926396444358923679
0.000158491762522458584
0.00014084480508403358716
0.00014059517588380242748
0.00014036724447975864184
0.00014017158548311765939
0.00013998790686714355407
0.00013978572905494829272
0.00013955173107022521024
0.0001393005075747749059
0.00013905740332282462163
0.00013883613284855849898
0.00013862661425272874288
0.00013840565781169246028
0.00013815904693573140055
0.00013789478467487377455
0.00013763745456485699799
0.00013740986143486949383
0.00013721777720866219904
0.00013704455727505521472
0.00013686207625856637495
0.00013665197741741217405
0.00013641803413386827896
0.00013618131454547541649
0.00013596187062642090004
0.00013576289708608238558
0.00013556853082705052878
0.0001353588564325059146
0.00013512586152045864222
0.00013487706328455404607
0.00013462812377724049087
0.00013439048531532638421
0.00013416736167617555864
0.00013395324886087759384
0.00013374082042360931522
0.0001335162706102492429
0.00015400983495509403291
0.00015309121365723773718
0.0001521387738138627716
0.00015123516474537597627
0.0001503885442687966415
0.00014955744637707698913
0.00014873970374332053557
0.00013233569256250029482
0.0001320899789994030315
0.00013187278416831253302
0.00013168004542039673209
0.00013148177295672870343
0.00013124877350773327556
0.00013098056392130466834
0.00013070338702722274172
0.00013044547004892795132
0.00013021307939459661842
0.0001299886127358829092
0.00012974809835377819778
0.00012948722110037058533
0.00012922432724820530825
0.00012898810496140782999
0.00012879386255936528093
0.00012863216519083922238
0.00012847462185506982853
0.0001282924092581622284
0.00012807743652720862725
0.00012784621502927835473
0.00012762459225955336776
0.00012742730940307466512
0.00012724621172402616359
0.00012705918458024711439
0.00012684853105140368691
0.00012661588547771806526
0.00012637779802427643455
0.00012615349688318644797
0.00012595130662798408559
0.00012576734836665081079
0.00012559077603625475646
0.00012541012353744506488
0.00012521751860686738803
0.00012501188707977168527
6.1506748730716657635e-08
6.1543158496831954322e-08
6.1607225612238867872e-08
6.1651195007192904442e-08
6.170525830907230877e-08
6.1780148338338161023e-08
6.1807379487469463463e-08
6.1921544895423943265e-08
6.1943230270613025513e-08
6.2077159994507803944e-08
6.2046665153882356948e-08
4.4704875265466021956e-07
4.1221325626539513133e-07
3.7887646009483299985e-07
3.4738811669815741484e-07
3.1797744038694955545e-07
2.9077032777744794398e-07
2.6584773869446035859e-07
2.4326260727598790117e-07
2.2303580336228526876e-07
2.0514938484930945039e-07
1.8954311899594366526e-07
1.7612862554441255112e-07
1.6479592296474498066e-07
1.5539712980211035956e-07
1.477197872860168975e-07
1.4150920297430292153e-07
1.3649656683512103878e-07
1.3243215482477067849e-07
1.2906919132381665302e-07
1.262378573980274582e-07
1.2382162012733237837e-07
1.2177576989349670184e-07
1.2004112697918167069e-07
1.1860396267722903543e-07
1.1741434965909533211e-07
1.1643260241051034222e-07
1.1553655321738644383e-07
1.1469767927677774251e-07
1.1390419993011182401e-07
1.1325605723378689045e-07
1.1275235598598385175e-07
1.1234874381749329841e-07
1.1186300350866019718e-07
1.1118725370890927594e-07
1.102586866581538188e-07
1.0919768324494096198e-07
6.4816268337102287071e-08
6.4774280903936122474e-08
6.4728433003134330977e-08
6.4682887362986875146e-08
6.4638010947566780916e-08
6.4595727618763371985e-08
6.4565177945138331076e-08
6.4546337861888058187e-08
6.4544175287331904366e-08
6.4553570808918064847e-08
6.4574228229289978789e-08
6.4582503004179684476e-08
6.4594132207649509908e-08
6.4598832686618017196e-08
6.460505417972798947e-08
6.4631872368194281759e-08
6.4633918752240790598e-08
6.4705645010317119225e-08
6.4703698612516150688e-08
6.4816255605288633768e-08
6.4751887174636405896e-08
4.7201720233024213414e-07
4.3436955362357322583e-07