/*--------------------------------*- C++ -*----------------------------------*\
  =========                 |
  \\      /  F ield         | OpenFOAM: The Open Source CFD Toolbox
   \\    /   O peration     | Website:  https://openfoam.org
    \\  /    A nd           | Version:  12
     \\/     M anipulation  |
\*---------------------------------------------------------------------------*/
FoamFile
{
    format      ascii;
    class       volScalarField;
    location    "0.00515";
    object      k_0;
}
// * * * * * * * * * * * * * * * * * * * * * * * * * * * * * * * * * * * * * //

dimensions      [0 2 -2 0 0 0 0];

internalField   nonuniform List<scalar> 
106891
(
0.012374581475454666038
0.012366474027560275806
0.012353331898538511338
0.012345562174792820004
0.012332625939008251201
0.012325777171184845379
0.012312928179097116371
0.01230646227521208641
0.012293684563990272055
0.012287292984869822854
0.012271236762623979194
0.017941417798290296148
0.017928672279346441476
0.017891536869512125046
0.017843120683203893273
0.017795392452259726351
0.017752687861370113759
0.017712533170775465741
0.017678567791294882983
0.017646485791865965109
0.017619321490570893224
0.017593552398552238236
0.017572535202195892212
0.017552189159852033679
0.017535809717684380099
0.017518759636065514562
0.017504545404401251896
0.017489143838414315801
0.01747578892595581454
0.01746060544491621902
0.017446628158227010102
0.017430834982355890295
0.017416272163725859262
0.017399923803769500041
0.0173857419753805989
0.017370094826103261304
0.017355702230056918589
0.017339513480294790893
0.017325779372008857232
0.017310784300132959351
0.017297547172797782949
0.017282019519624595982
0.017267376476707119171
0.017250388569969656721
0.017234955632595114899
0.017217097748966372212
0.017201149808413567638
0.017183003040121089255
0.017165884817962839132
0.013109481049337484704
0.013096201908287429666
0.013088509146947178291
0.013074584849122661279
0.013066212539616785943
0.013051726443742431294
0.013043065241484843794
0.013028289821968179474
0.013019334195136757909
0.013004470346330381653
0.012995421014250135849
0.012980662717302287462
0.012972045027188280897
0.012957546677680786829
0.012949939259851040579
0.012935419021635675974
0.01292807654856620303
0.012913601286690858799
0.012906390468880124187
0.012888241659835656533
0.018889357841652285042
0.018838195979816015069
0.018783595820163551809
0.018734357792773777274
0.018687566479921462886
0.018647365247074637606
0.01860946428302922076
0.018577509157877092338
0.018547166893485109163
0.018521619404614251408
0.018496799119552022328
0.018476564057283300507
0.018456204846606438091
0.018439342697169208707
0.018421762524587118048
0.018406846822198057179
0.018390469251625921054
0.018375474399114379714
0.018358406695840500528
0.018342158978738164199
0.018323698224405753771
0.018307758541486713472
0.01829102090287494306
0.018276484484001070951
0.018259855513341131938
0.018245439727676403957
0.018229553483277406711
0.018216253394567168827
0.018201267098524875898
0.018187659135618112344
0.018171509547385781419
0.018156802530736624451
0.018139086107345998855
0.018123012750772313217
0.018104568542055124447
0.018087443836370009631
0.013782646903482210013
0.013767836158619747855
0.013759253993330883628
0.013743895230737173188
0.013734736519504095117
0.01371885983486599396
0.01370945344603925059
0.01369334678545885281
0.01368360131376051593
0.01366717704023060441
0.013657293351796193775
0.013641032649404839783
0.013631585760673794669
0.013615474380200741356
0.013607020231960503809
0.013590838662139259271
0.01358261125738869507
0.013566336927130325657
0.013558174768028874099
0.013537657745384306177
0.019959058883469962126
0.019928225483478157615
0.019863002717480551795
0.019800958456153459203
0.019742541234958201068
0.019691708052973766474
0.019644255084142071138
0.0196038386244851634
0.01956631023957933202
0.01953458476896402507
0.01950417455805561473
0.019479092951928130006
0.019454212370464907256
0.019433453830789589739
0.019412191792408182989
0.019394269971156851556
0.019375080216126442517
0.019357399590291941155
0.019337401995198781612
0.019318354277179913825
0.019297405997347447798
0.019279578808706933357
0.019261307536649639738
0.019245714221514068076
0.019228280176231751786
0.019212886912747979828
0.019195664135497746139
0.019180733986368495719
0.019164302654180728064
0.019149737802935003217
0.019133036283063373922
0.019117855160727913189
0.019099257787051310969
0.019081919708439122607
0.019061992642132350589
0.019043801518946024132
0.014473936240974346126
0.014464471321412470869
0.01444762879141302768
0.014437773747283286566
0.014420557755270466474
0.014410436354747179974
0.014392864909120898359
0.014382332707622885043
0.01436463282313044619
0.014353978818661447536
0.014336194199931370091
0.014325929787813431945
0.014308247478096353805
0.014298903725444865598
0.014280925335138871385
0.014271694772927379785
0.014253567673212071132
0.014244397996574568316
0.014221443576360277491
0.02100251698743539272
0.02092887600782160698
0.020858842911576535445
0.020797292261150162468
0.020739653497609849414
0.020689800850993870368
0.020643559426136881552
0.02060427110962801886
0.020567210422121166846
0.020536251831573225368
0.020506010355645892806
0.020480693189858227565
0.020455551650638868072
0.020434585354436134857
0.020413140996626673307
0.020394106483806195146
0.020373312854140509381
0.020353639022688569532
0.020331625316464468217
0.02031228692781213499
0.020292250805419381754
0.020275854549852541375
0.020258407264917475954
0.02024343626675809138
0.020225730002131438179
0.020209352620675618412
0.020190887764495697027
0.020174755826589625685
0.020156994236645464635
0.020141549160532186413
0.020123013945551063153
0.02010579230848666063
0.02008519746455791552
0.020065754393575226111
0.015234014354818060932
0.015215764647097599141
0.015205422194256044965
0.015187065468675695068
0.015176631344721377634
0.015158184719177221142
0.015147440671705229495
0.01512864856061133835
0.015117416170264819444
0.015098248563844654871
0.015086765985440519361
0.015067596609205305067
0.015056476908681875465
0.015037102341733199137
0.015026738958081087977
0.01500691955533139943
0.014996627588736849424
0.014976631426371430147
0.014966419681533118038
0.014941040595584667572
0.022135825901549281008
0.022058624308300023298
0.02198929835150644635
0.021923652513760921029
0.021866208960061979394
0.021812288128762513661
0.021765632843453501521
0.021721333845775372268
0.021683404580544705931
0.02164608726375289588
0.021614056055126739525
0.021582570288068560899
0.021555998031016789657
0.021529808069444773821
0.021507265391056767934
0.021483806021888474796
0.021461983644793503762
0.021437848813950284577
0.021416555374632221392
0.021394236621024735612
0.021375775583329134633
0.021356507824189373268
0.021340881740943111466
0.021323136790599311191
0.021306653889739981395
0.021286822281135282103
0.021268255810853453625
0.02124733910805625195
0.021229371952676129309
0.021209241538863318755
0.02119160496677522168
0.021170754294103838467
0.021150615535240824966
0.015995456328394112161
0.015984162128430963457
0.015964236477438730616
0.015953105353519059922
0.015933346449666641736
0.015922040747511349845
0.015901949555491460414
0.015890051966648086751
0.015869498598586304766
0.015857300841543315456
0.015836544497220036987
0.015824491106672975566
0.015803394007001918264
0.015792104820345966021
0.015770426708208294675
0.015759046374498795334
0.015737233819389538636
0.015726043268666535513
0.015698635565937743563
0.023208506039945620003
0.023140474148094801465
0.023075159958069305782
0.023018008654334867064
0.022964755708486894042
0.022918540932519573111
0.022873985646461987564
0.022835260068225435304
0.022796500699074007806
0.022762885398215599447
0.022729564072649359463
0.022701606759701887378
0.022674086803383439181
0.022650337433237202611
0.022625489876360635466
0.022602524403380289814
0.022577703831048390876
0.02255610091872256584
0.022533248112558242754
0.02251388428369114833
0.022493314449087090795
0.02247608645988892484
0.022456706864924961403
0.022438428383771986258
0.022416482079538564698
0.02239531700455110394
0.022371397732486000137
0.02235038669534200606
0.022327556861240618891
0.022307952391748434723
0.022285761293179402048
0.0222650261176569296
0.016815879569433842683
0.016803597755079554416
0.016781852411680134307
0.016769730049026817381
0.01674835647359235874
0.016736417023659834469
0.016714876730519634407
0.016702430010340045541
0.016680359839511486875
0.016667272075058699177
0.016644665600504031377
0.016631664852403377913
0.016608877606717604297
0.016596816176749570187
0.016573595319083558181
0.016561380051963187771
0.016537919391436620847
0.016525885925878738836
0.016497586023450076798
0.024454746998518392398
0.024380850786485365467
0.02431224164124599213
0.024253226298279570439
0.024198031805329030947
0.024149982184998003421
0.024102267735009810096
0.024060279971199662746
0.024019006667348422046
0.023983560234620081297
0.023948914808099290574
0.023919160426462852953
0.023889652266850414097
0.023863273689320032428
0.023835403182577489384
0.023810869829147329052
0.02378468153469934232
0.023761830273064454139
0.023736779386516942969
0.023714615748145411595
0.023690285450892700075
0.023668142961010930209
0.023643440236858607323
0.023620293155732715457
0.023593490097209544182
0.023568602709246499333
0.023541206667895182153
0.023517926246643783283
0.02349349321176485289
0.023472342798607891828
0.017668709700897192172
0.017644802943107339849
0.017631329740032449654
0.017607979795030398451
0.017595028640499773415
0.017571728338779457612
0.017558479781341420484
0.017534722050511028502
0.017520809025034011358
0.017496530898771893436
0.01748294314124477708
0.017458716110248885534
0.017445945750527099699
0.017421407076971078681
0.017408631332470423519
0.017383865032692295133
0.017371296809969849484
0.017342723257075406962
0.02568544309184180377
0.025622938656526702411
0.025564366989707685424
0.025514333054252213984
0.025464620765179992595
0.025420748406432932404
0.025376605068400566456
0.025338014236812308327
0.025299778771940152622
0.02526674146395049142
0.025233577333149646849
0.025204009631280936687
0.025173409738112429573
0.025147475267387038589
0.02511985324390448443
0.025095744246878951
0.02506849964968496311
0.025043834121319868274
0.025015781222808640416
0.024989190077750290248
0.024959727999739011323
0.024933658842493405805
0.024905140120015538396
0.024879102304363742704
0.024849225565705877067
0.024822244279555330526
0.024793633094443871812
0.024769509501386257483
0.018613161100333550091
0.018588434308159099834
0.018573718330964286705
0.018548860167981615077
0.018534646958941129735
0.018510097439757108861
0.018496148813695045821
0.018471779157101863439
0.018457747953405000824
0.018433203967577947019
0.018419747014004991814
0.018395124268725752265
0.018382189608898476946
0.018357379010032839201
0.01834473229474281944
0.018319865984511057161
0.01830756661096277424
0.018280978265140076372
0.026867243520381930977
0.026812595231012124192
0.026764853908229364887
0.026717834086866402293
0.026676942414109162255
0.026636903763306088444
0.026602715274999556849
0.026568724278180497894
0.026538684298154820163
0.026507439344328358188
0.026478958893098453187
0.026450103101709279002
0.02642588749221052094
0.02640033677718704036
0.026377495032877746467
0.026351381648583766665
0.026326815616484953303
0.026299082301693230829
0.026272705411279028559
0.026244063912307390857
0.026218589444121705168
0.026191090151739083308
0.026166071656015491009
0.026137721462699606972
0.026111606886483864493
0.026082686665203292514
0.02605734710834414769
0.019476241444224894755
0.019449699781196198856
0.019426964389398723027
0.019400051284124288087
0.019377386352824061549
0.019350915356425271024
0.019329035975784343571
0.019303325837499461792
0.019281770639527899547
0.019256921336550526791
0.019234965986167331525
0.019210536064128962835
0.01918852318931175624
0.019164204627552267751
0.019142344389292791085
0.019118095563656005431
0.019096117798128323106
0.027232335629215134731
0.027175182907729387299
0.027125266105689740254
0.027077645733372946585
0.027036442372424734221
0.026996948287007598022
0.026964780777746104323
0.026934328296287106397
0.026909108275260201076
0.02688251238362406384
0.026858320163274721631
0.026832197279505736603
0.026809969794258429326
0.026786673774232768602
0.026767457582508320801
0.026745193177274563523
0.026724541940570695209
0.02670021370048847667
0.026677200848507290343
0.026651590692047817666
0.026629227643392948399
0.026604402345087589665
0.026581918156403247511
0.026556680504190532249
0.026533330217361341535
0.026506105725575671017
0.026480913529440552184
0.01957801373485346455
0.019556095421261864703
0.019516286516628053582
0.019494339352201069809
0.019455055448775022964
0.019434288764223515283
0.019396198875593455291
0.019376462534268029669
0.019338603441487828283
0.01931914551311349898
0.019281251076938687311
0.019262064711142744267
0.019224144340567364542
0.019205291894588995966
0.019157586638299469589
0.019165778792299904137
0.022076868046580634675
0.022036215525050636271
0.021998316977028108121
0.02196689212990156348
0.02193866035937761319
0.021916281787612325316
0.021895581889880579712
0.021880234402711397357
0.021865443830654723856
0.021854957766256389445
0.021842392662147321752
0.021832264492357197211
0.021820269238826881658
0.021811874513841537221
0.02180116861482256016
0.021792555511291847314
0.021780416519924752916
0.021769078770393978511
0.021755548644520304735
0.021744187929152697381
0.021730920841725967496
0.021720016516512757887
0.02170621063598300246
0.021693167950638973102
0.02167798697443382161
0.021663885954632023517
0.02164695239356775186
0.021631585647010988238
0.015593267251785837904
0.015561264395314631723
0.015543736070005868127
0.015511681169236827063
0.015494569380416005691
0.01546299469911455865
0.015446595975498621581
0.01541505152051260083
0.015398957525725964074
0.015367823838687637641
0.015352198493177923039
0.015321427892610947272
0.015306305117423455592
0.015267751112858491194
0.015282931537501730224
0.020512979060299363354
0.020466816753510769927
0.020428433627059906785
0.020393187520242227889
0.02036414312766107737
0.020336702837182821235
0.020314609398676235219
0.020293054653661022485
0.020276089063146731511
0.020258250404760654029
0.020242683834362878298
0.020225037316347574401
0.020209958953595830861
0.020192820222050121559
0.020178052593028971556
0.020160585355346573311
0.020144621785072661102
0.020126632712387772239
0.020110561827333291174
0.020092661628835380844
0.020077164345657223105
0.020059161252490010502
0.020042340305511750082
0.020023120578954820004
0.020005091828005583388
0.019984291032365906343
0.019965306182180755229
0.014665543062951235873
0.01465161233435381162
0.01462566584467940578
0.014611856500293268074
0.014586018908103419792
0.01457262607794424826
0.014546883594075375734
0.01453374781310064201
0.014508406555669036558
0.014495646783530585083
0.014470467834892327894
0.014458081930213830674
0.014427279432578923521
0.014425917801898825027
0.019712929818354964218
0.019676518671938557359
0.01964274610147723199
0.01961455660767931139
0.019587330027894228612
0.019564731469520389717
0.019542606357297934855
0.019525338551888964805
0.019507964815521357943
0.019493069537128992347
0.019475893888697918405
0.019460451915384088112
0.019442654211379369056
0.019427246794692216991
0.019409717066988858847
0.019393907851847264762
0.019375946605476167262
0.019359488196681561012
0.019341075489983882568
0.019325009381125954344
0.019306529579318103262
0.019289266221201938067
0.019269649862242256566
0.019251377759991462196
0.019230464047774203928
0.019211410371894988708
0.014122299629966295759
0.014098100115649610242
0.014085357419168907656
0.014060778100769933535
0.014047711826150274111
0.014023008574591905306
0.014010235853530398492
0.013986084101009224612
0.013974002460192841424
0.013950304903194212305
0.013938616047111050331
0.013910603133713417626
0.013907075403045998999
0.018938808286216027993
0.018906804039492700054
0.018879658382237339553
0.018853028193266872098
0.018830683171711277979
0.018808801805685178288
0.01879170708905907039
0.018774730404723369293
0.018760554483760634448
0.018744290501617622696
0.018729350499858146706
0.018711721556840359149
0.018696184126663316361
0.018678799843911832179
0.018663191146955051408
0.018645289257829825852
0.01862852282149745492
0.018609740237089774512
0.018593329025769999435
0.018574915947850878517
0.018558011958897151911
0.018539303741900867162
0.018522140840603138617
0.018502635468136213737
0.018484610495806606117
0.013561576721352757574
0.013549516781108607646
0.013525908023981509168
0.013512956022097209058
0.013488874321491251679
0.013476098862424075453
0.013452698190726015623
0.013440895499546960667
0.013418093813539946207
0.013406849721823457106
0.013379967567080718743
0.013376642965647519631
0.018208750148724948265
0.018181512789315665279
0.018155022727070622285
0.018132753438713986732
0.018110859859671226552
0.018093548486362919653
0.018076522002205878958
0.018062616797835155669
0.018046875739273549044
0.018032286642903287699
0.018014833279586004583
0.017999205779554255241
0.017981953791116996738
0.017966667262055636273
0.017949165725523418685
0.017932674021603371012
0.017914174173464421369
0.017898248314228440425
0.017880792427177195913
0.017865083479602271443
0.017847732950112646377
0.017832011701076049687
0.017814190315249334162
0.017797833314936707672
0.017493694896105780462
0.017469734461022082272
0.017449518655222318042
0.017429204395031077518
0.017412855101493065341
0.017396491230823839247
0.017383209582165125295
0.017368331509083602404
0.017354658083238997529
0.017338051679984155945
0.017322869772539280231
0.017306153568120923036
0.017291727884255991138
0.017275576735674053747
0.017260615868848024762
0.017243530768826228344
0.01722867851002180678
0.017212289377019955594
0.017197752372119280012
0.017181874305289963206
0.017167592891419340001
0.017151054836998962105
0.017135454065739699758
0.016801868856571231664
0.016780046690579815405
0.016762036219960259331
0.016744452214373928278
0.016730449529554932558
0.016715206779216902622
0.016701274565455170862
0.016684679023813493715
0.016669582816922906554
0.016653267956857707027
0.016639491363858775752
0.016624476191478203962
0.016611017687124370046
0.016595490425829504538
0.016581731645210619902
0.016566145287893203203
0.016552358026896352855
0.016537573711183885944
0.016524419530376421861
0.016508803185370679589
0.016493600303199205948
0.016091541219673245744
0.016076961670616948114
0.016063563233150172233
0.016047593431489797638
0.016033019568792571119
0.016017408207945636744
0.016004504355347008021
0.01599067748983633297
0.015978515727714002331
0.015964256258548883277
0.015951466556100565852
0.015936748439773204544
0.015923760991439092627
0.015909772104143397875
0.015897211476513999767
0.015882182464788837523
0.015867525641127019909
0.015439858007797749306
0.015424110504944512842
0.015411094930677044293
0.015397389393713685826
0.015385517791055401335
0.015371635818558352857
0.015359018369889699054
0.015344435579720041088
0.015331489015976692419
0.015317488596007343069
0.015304635819818813991
0.015289257055193475332
0.015274285157064918655
0.014849039389824620142
0.014836623853398990536
0.014823272460203094567
0.014811629400305025006
0.014798274378341722685
0.014786193967453698309
0.014772147211870576
0.014759398999603733083
0.014745366437792223682
0.014732162956881619115
0.014716412925007310228
0.014701053309092687593
0.008444397513417876977
0.0083589848886046445864
0.008316839869412746139
0.0083055498747065178988
0.0083071202220216626422
0.0083271871568738817238
0.0084142177881624830721
0.0085800589146115564115
0.0087111119683247074247
0.00879560145811700278
0.0088382159590283896483
0.0088487720798419780555
0.0088467831107335997975
0.0088304530745987302315
0.0087719460230509405801
0.0087103907435387237929
0.008681362708613448928
0.0086752915869437140228
0.0086797482723613515049
0.0087090057201343086535
0.015798523989958658531
0.015775965928278189859
0.015771013873793728738
0.015772701382175131901
0.015785100818151848179
0.015808912645140248132
0.015835057176907103155
0.015872292930952856121
0.015912630125760284655
0.015945773280163864222
0.015958970554170039124
0.015958362715285664274
0.015941689555431324404
0.015875266756324401402
0.015649571656688874427
0.015294231024948768891
0.015015119438201817229
0.014823564927380109349
0.014714071116226301594
0.014666699733211068304
0.014655681582443329941
0.014659321092638932446
0.043166827673367838547
0.042708462141851998017
0.042396649054861818007
0.042199049857725823287
0.04206673756574963452
0.041987081131948170154
0.041942618701942852022
0.041915184911298301873
0.041911155266179667134
0.04192415987506339925
0.041977946365303449305
0.042009674644503530727
0.042014782769813192875
0.041979144635306858691
0.041826478639323011466
0.041333220831220499059
0.040395715191486075701
0.039551951605328018735
0.038880792398175975655
0.038409269118589592362
0.038116165523526097936
0.03796467188151305544
0.037898315798981396796
0.037873507147483630175
0.037865394020332135416
0.037860603438677767341
0.205004726012349342
0.20427532213748617052
0.20381062502714153428
0.20359283517230594707
0.20353265998381375734
0.20356149761911399021
0.20365040994419603138
0.20372079778436694153
0.2037714310095129211
0.20381994372698317153
0.20383853280450878187
0.20381016090967779553
0.20364018850192749932
0.20311359530606190593
0.20167672390820398642
0.19973610725799242904
0.19776863239159664376
0.19596125475952244632
0.19449088975245196198
0.19343729650865154612
0.19278352092119954708
0.19247556932829953946
0.19236648257336069756
0.1923372322668277512
0.19232363130091392756
0.19230096042768904385
0.19224051613451978437
0.19213797770489518535
1.2288278281568625339
1.2263433600836264326
1.2245319197332713568
1.2232766506824768182
1.2224646907899303638
1.2219109379041159791
1.2214314855911216906
1.2209390425635240351
1.2205369735801454567
1.2201608385578119886
1.2197891023088713869
1.219261697093031227
1.2180151716777560811
1.2147062326463211601
1.2097247328444447056
1.2041145169889342359
1.1984569473336208478
1.19343453449133996
1.1894080813165497368
1.1864519701415290331
1.1845815568069888446
1.1835080234652972653
1.182744908695646302
1.1821433409056254504
1.1813739528917877042
1.1805986335272395937
1.1796682930645150389
1.1787533674837322728
1.1776159876643630398
1.176341386215098872
3.7719876010642763298
3.7637014601717599938
3.7553341177374548465
3.7470366228624802929
3.7388361415260584764
3.7306039104498527337
3.7221357132427401737
3.7133961410863327579
3.7045112600127581004
3.6957260159039537761
3.6872057101386457312
3.6790351036853832234
3.6711014793084508767
3.6633114069683552216
3.655669170966776349
3.6483730401783582842
3.6416282777515811553
3.635512497524527209
3.6298465804770088106
3.6243730036730550381
3.6187876456322967123
3.6129939691342149999
3.6069303604818192532
3.6006675959051577252
3.5941597696351705871
3.5873871369316696622
3.5802953037419489313
3.5731292165343839784
3.5660319068966441769
3.5592953606089423602
3.5529005464041691909
3.5468252110497067164
6.446406108137464841
6.4320020538640108043
6.4179785080761639904
6.4047032771846099664
6.3920406223477366225
6.379579793722442993
6.36700573969537853
6.3543755239257748713
6.3420396987320071247
6.3302657927804171223
6.3189364284366300595
6.3076655443225408959
6.2960877793977880756
6.2841909007171183887
6.2722699249113587072
6.2607321719864703624
6.2497680859483892846
6.2391610481384569553
6.2284961646611796127
6.2174561907253389492
6.2059635583229235678
6.1943328057081474824
6.1829515178814515863
6.1720071819509660926
6.1612853888247736123
6.1504398190390947576
6.1392567351477298487
6.1278518233175915952
6.1164199113690171927
6.1052074547138621696
6.0941509379827207837
6.0832688983873897115
6.0721407431880214389
10.312434177137223656
10.221086293533041101
10.134667152456250605
10.053995760557393524
9.9776290799459523839
9.9039020511492168453
8.3359183429918015662
8.3197026050620372928
8.3041613897697708069
8.2897462556814431878
8.2759248641691378623
8.2617469133368572898
8.24671362992970991
8.2311903957048535574
8.2158701459166039172
8.2011804009936568605
8.1869215835742483733
8.1724554939840050594
8.1573347175882258142
8.1417269292267704373
8.1262802364732760196
8.1116647380171347237
8.0981206302063526437
8.0852741323148773489
8.0722978005663605927
8.0585538847233877391
8.0441032055367092113
8.0295300480875599902
8.0154476469481075185
8.0020199465296126817
7.9888326614952287485
7.9752917581896083377
7.961117585536116259
7.9464562394421021096
7.9317491508041726433
7.91730031885398855
7.903239028062407634
7.889351417904709507
7.8756255287434697721
7.8613892733182773043
9.6148175218187503788
9.5097512239535717526
9.4071627835847895227
9.3113725422788036212
9.2221232691073904419
9.1381734040033180122
9.0608383292044134549
7.6672422194864502387
7.6511170195833368979
7.636422259046351968
7.6219817968998713198
7.6060579794238840634
7.5879227725299003282
7.5685159304275542169
7.549542008386734615
7.532034819430511341
7.5155872219830968106
7.4991183770118121643
7.4819552133253344195
7.4647086125666701761
7.44878169527291778
7.4352779855349107052
7.4240104275000522449
7.4135364650782928919
7.402092420407447193
7.388755253349901686
7.3740762996438391497
7.3595168889203588236
7.3462347699393957257
7.3342428796483352116
7.3224294779689298451
7.3096595914006634587
7.2955864874981886103
7.2809953246385834547
7.267069309315430381
7.2546837391199359146
7.2438173540355430546
7.2338067391265532535
7.22381202150604107
7.2133044302004813986
7.2022746081201409751
7.1912317823145786022
8.6934191496492551647e-07
8.7153057212194890159e-07
8.7448326305200433951e-07
8.7683832149166335086e-07
8.7946086164936077721e-07
8.8266051288459117724e-07
8.8449950967832577355e-07
8.8884752654725188752e-07
8.9057328437963282279e-07
8.9559751874684551524e-07
8.959386058128502276e-07
2.8723053960756486159e-05
2.4457010476883991635e-05
2.0691752796604697784e-05
1.7420046758271197579e-05
1.4614603539130887805e-05
1.2236012292959054268e-05
1.0241339406919725e-05
8.5869038054494611342e-06
7.2292333133587406845e-06
6.1262633453379826873e-06
5.2386041564488033246e-06
4.5311331540132758676e-06
3.9734062793163112763e-06
3.5385973607184072297e-06
3.202116792165147012e-06
2.9423362915755112559e-06
2.7410109206110647158e-06
2.5835680760244614129e-06
2.4574882677421174129e-06
2.3544646126231736029e-06
2.2688881698905269891e-06
2.1982121027390794881e-06
2.1396181849673651157e-06
2.092129858378354313e-06
2.0536401752796299919e-06
2.0225490752955737833e-06
1.9945099595162008775e-06
1.9685115945901543254e-06
1.944117581305129518e-06
1.9246729593267436233e-06
1.9100669102041808566e-06
1.89879489575493076e-06
1.8848084222579323264e-06
1.8646668494212814039e-06
1.836455980931496423e-06
1.8042676689316596453e-06
9.0320238318099469148e-07
9.0349655975629678824e-07
9.0367328636134478471e-07
9.0382968528427668105e-07
9.0396479050493752988e-07
9.0412767642591735929e-07
9.0457756357964774565e-07
9.0532125099849190553e-07
9.0650707326446608524e-07
9.0799797034144625945e-07
9.0979211969832462013e-07
9.1122255769070395162e-07
9.1273510286272245874e-07
9.1403302920980245323e-07
9.1536312165148734902e-07
9.1726661350932292592e-07
9.1847421357324619777e-07
9.2168387785346040559e-07
9.2282243021697334046e-07
9.272862353794168031e-07
9.267279792991377471e-07
3.04180108483631344e-05
2.579741908178104123e-05
2.1740563482249685979e-05
1.8234420266393594077e-05
1.5248472192639639174e-05
1.2736444465390352995e-05
1.0642135263091531913e-05
8.9085689823162067801e-06
7.4852405296766038668e-06
6.3292598129275968162e-06
5.4023972555568106974e-06
4.6696692664906426195e-06
4.1000850533256467107e-06
3.6650457063133611627e-06
3.3355180402054553421e-06
3.0849709228880935892e-06
2.8911041322258603836e-06
2.7388644877909040705e-06
2.617799469313767508e-06
2.5211837563101089733e-06
2.4423526004000885061e-06
2.3755432960696628421e-06
2.3155812599941301719e-06
2.2617020459014340516e-06
2.2139586098568517435e-06
2.1737024053185328591e-06
2.1381870222597471608e-06
2.106371305196886724e-06
2.0764484172068970255e-06
2.0504775555869295635e-06
2.0280351837299053804e-06
2.0079893438252096416e-06
1.9855180431143712613e-06
1.9588947856342375517e-06
1.9271414660616716295e-06
1.894531959943270525e-06
9.5193174086000153806e-07
9.5235179646378074527e-07
9.5254916107277338186e-07
9.5228034342150469237e-07
9.517757713172319725e-07
9.5108932524387096488e-07
9.5076288443750088606e-07
9.5074304551138929607e-07
9.5116546550128201285e-07
9.5222187706866675627e-07
9.5347002487209798396e-07
9.5444317119887775462e-07
9.5511932806410683139e-07
9.5535760286209291143e-07
9.5567786249578761961e-07
9.5646277589633009022e-07
9.5710471830364953508e-07
9.5922002261781445925e-07
9.5972407692319813268e-07
9.6335711423700895574e-07
9.6221800687105307042e-07
2.7486339941703944194e-05
2.3169968785076958698e-05
1.943909872779971354e-05
1.6259133058622393203e-05
1.3579226060220620347e-05
1.1338654535140311322e-05
9.4774547280729291051e-06
7.9448326293993017398e-06
6.7000386886023174647e-06
5.7059055922640454045e-06
4.9247037225867475524e-06
4.3194306704096007497e-06
3.8554059606108132333e-06
3.501113487869410431e-06
3.2272229189906504666e-06
3.0124727551230852327e-06
2.8437064735718320042e-06
2.7164080232527020473e-06
2.6253823963077084124e-06
2.5618764429753091775e-06
2.5117682447460439958e-06
2.4649376166024043027e-06
2.4178440314090365659e-06
2.3743446290290903682e-06
2.3360198418001848603e-06
2.3036747850624584899e-06
2.2738416812701341008e-06
2.2456067294632002802e-06
2.2168191671156778767e-06
2.1879938467721806144e-06
2.1569088739924964005e-06
2.1246669295683442414e-06
2.0898730759917527049e-06
2.0553574955491593275e-06
1.0015204409469056413e-06
1.0019069298584883599e-06
1.0017260164682006491e-06
1.0012719724324742955e-06
1.0000135676828120404e-06
9.9866740912773268061e-07
9.9830093489160428319e-07
9.9833468817620432551e-07
9.9886963845600660008e-07