/*--------------------------------*- C++ -*----------------------------------*\
  =========                 |
  \\      /  F ield         | OpenFOAM: The Open Source CFD Toolbox
   \\    /   O peration     | Website:  https://openfoam.org
    \\  /    A nd           | Version:  12
     \\/     M anipulation  |
\*---------------------------------------------------------------------------*/
FoamFile
{
    format      ascii;
    class       volScalarField;
    location    "0.00515";
    object      pPrime2Mean;
}
// * * * * * * * * * * * * * * * * * * * * * * * * * * * * * * * * * * * * * //

dimensions      [2 -2 -4 0 0 0 0];

internalField   nonuniform List<scalar> 
106891
(
171388.6002311706543
171382.0942554473877
171387.53297233581543
171403.82880401611328
171437.36762237548828
171491.39594078063965
171576.12935066223145
171689.84830474853516
171837.34785270690918
172021.88583946228027
172224.98970413208008
584424.16031455993652
582470.03660202026367
580540.87627792358398
578630.07999610900879
576729.41412925720215
574831.62022018432617
572933.14315605163574
571033.90732002258301
569136.8439998626709
567246.94139289855957
565367.01071166992188
563494.44741249084473
561624.24246597290039
559754.39594650268555
557885.34634590148926
556015.78863906860352
554143.28487014770508
552267.50978469848633
550390.82509994506836
548517.77894973754883
546654.13596343994141
544802.40763473510742
542960.53610610961914
541126.5177116394043
539302.11643028259277
537491.39612007141113
535697.39768981933594
533921.65391159057617
532165.32111740112305
530427.53679084777832
528701.61102676391602
526976.72123718261719
525246.29704666137695
523512.36484527587891
521779.58783912658691
520047.3646125793457
518310.09317970275879
516563.23882675170898
172454.60358428955078
172202.36091423034668
171977.4294319152832
171777.91082572937012
171604.99492645263672
171462.36316680908203
171353.83661651611328
171280.3730583190918
171237.95358657836914
171218.42251968383789
171212.07263374328613
171213.01676368713379
171219.169189453125
171236.53044700622559
171269.18227767944336
171328.18365669250488
171413.9307746887207
171532.07460594177246
171687.07036209106445
171860.36334228515625
582329.80448150634766
580390.07683181762695
578473.1715087890625
576566.92636489868164
574663.97113037109375
572764.19483184814453
570870.59053421020508
568986.8233642578125
567117.5482063293457
565264.41400337219238
563421.51460075378418
561580.37949180603027
559738.23833847045898
557897.1966724395752
556056.79238891601562
554213.10967063903809
552364.05652809143066
550511.87065887451172
548661.63427734375
546818.07761001586914
544982.28848075866699
543153.20408821105957
541332.19374084472656
539523.27542304992676
537729.75349998474121
535952.03728675842285
534189.12649536132812
532440.84692573547363
530706.43870735168457
528979.85906028747559
527249.06751251220703
525503.6661319732666
523742.90792274475098
521974.32936477661133
520204.95585441589355
518435.30917930603027
172436.07476234436035
172185.22505569458008
171960.52633857727051
171759.07837677001953
171582.00604438781738
171433.51285171508789
171318.04361724853516
171236.9860782623291
171186.5751895904541
171158.80381965637207
171143.98900604248047
171135.70964241027832
171130.95945930480957
171134.28913307189941
171149.01189994812012
171185.53558731079102
171245.40020942687988
171334.67530822753906
171458.91178703308105
171600.05003929138184
582469.88344573974609
580490.72057914733887
578532.56767082214355
576581.96667289733887
574635.46595573425293
572699.6104850769043
570781.59535026550293
568885.89469718933105
567015.83366966247559
565170.33769226074219
563340.20418739318848
561514.8109130859375
559692.16999053955078
557876.69586944580078
556068.38106918334961
554260.16137504577637
552446.42379379272461
550628.83685874938965
548812.8265495300293
547001.84404373168945
545196.12632942199707
543395.88827323913574
541603.85695648193359
539823.12198448181152
538054.08675193786621
536295.3132438659668
534545.08440971374512
532802.82573127746582
531067.99940490722656
529336.2316722869873
527596.45306015014648
525835.92745208740234
524050.80804252624512
522249.89953804016113
520446.11993408203125
518645.42480850219727
172319.6532154083252
172095.87898635864258
171896.81040573120117
171720.71627235412598
171569.22737693786621
171445.21122741699219
171349.95748138427734
171281.10666847229004
171232.90774345397949
171198.02404022216797
171171.46863174438477
171150.56610107421875
171138.69563293457031
171137.77205848693848
171156.24450874328613
171195.35169219970703
171260.59782600402832
171358.10714721679688
171470.61642074584961
580899.25567626953125
578868.40275573730469
576839.4580135345459
574817.00106620788574
572815.39288520812988
570845.63140678405762
568911.72398376464844
567014.92692565917969
565152.36516571044922
563314.22297668457031
561490.52273178100586
559679.98182106018066
557887.4269847869873
556112.29344940185547
554345.42871284484863
552577.90619277954102
550808.67169189453125
549041.65130233764648
547278.7549991607666
545518.7041130065918
543761.08306503295898
542007.49415016174316
540259.11692047119141
538516.34803009033203
536779.5571346282959
535047.96265983581543
533318.23331260681152
531586.29408264160156
529847.71894073486328
528094.2976131439209
526315.31170654296875
524506.84952735900879
522678.17068862915039
520845.25042724609375
172937.32193756103516
172665.80510520935059
172431.6768741607666
172228.30196571350098
172050.66808700561523
171896.24945640563965
171764.48610877990723
171655.18740844726562
171566.64625549316406
171495.29616355895996
171436.51023101806641
171387.55598640441895
171347.07590675354004
171318.10486221313477
171301.48639106750488
171303.38489532470703
171323.93962097167969
171367.37542724609375
171440.11698722839355
171526.30536270141602
581655.94096183776855
579535.31779479980469
577412.1901683807373
575298.03771781921387
573212.75245666503906
571170.60756874084473
569176.21029281616211
567229.40594100952148
565327.91441917419434
563465.74764442443848
561635.33183670043945
559833.21176719665527
558059.7547435760498
556312.52915191650391
554583.25751304626465
552863.17074966430664
551149.58012390136719
549443.19082641601562
547741.60533714294434
546039.24666213989258
544331.80640983581543
542617.78390502929688
540898.80120849609375
539180.37013626098633
537469.04228973388672
535765.12424087524414
534059.63444900512695
532340.15847969055176
530598.33119010925293
528829.35990333557129
527028.59310913085938
525196.21435737609863
523343.41945838928223
173310.02517890930176
173051.27373123168945
172828.79479598999023
172636.59990882873535
172469.55888938903809
172324.34900856018066
172199.16232109069824
172092.36443901062012
172001.66040420532227
171924.11067199707031
171858.15083885192871
171803.00080680847168
171761.15971183776855
171732.59360313415527
171721.2851676940918
171725.93515968322754
171749.08553123474121
171797.07620429992676
171855.67329978942871
580540.19086456298828
578327.06766319274902
576124.19995498657227
573952.94792175292969
571830.44835090637207
569763.30232238769531
567751.18159484863281
565792.86906242370605
563887.27842140197754
562031.41396903991699
560220.6429500579834
558450.1961727142334
556714.83274459838867
555008.26121520996094
553325.08731269836426
551662.58658218383789
550017.18172645568848
548379.37985038757324
546735.70731735229492
545076.41428184509277
543400.06188583374023
541712.95313262939453
540026.83415603637695
538352.27512359619141
536688.20361709594727
535018.02382278442383
533319.82842254638672
531580.33242607116699
529798.05319786071777
527976.75542640686035
526123.72522735595703
524253.23740577697754
174307.91174125671387
174020.72964477539062
173771.01623725891113
173553.2718334197998
173362.0859260559082
173193.73562622070312
173046.51898574829102
172919.47245597839355
172811.14227294921875
172719.12738609313965
172641.78404998779297
172577.9428882598877
172528.85221099853516
172493.30139350891113
172473.15097999572754
172465.82248878479004
172472.20914268493652
172498.21125411987305
172530.5932445526123
579543.52724838256836
577259.12943267822266
575005.11708450317383
572800.44773292541504
570654.75009536743164
568568.46554946899414
566539.55161094665527
564568.95202255249023
562659.04387092590332
560808.69188499450684
559011.94449996948242
557261.92174911499023
555554.19976615905762
553886.11819839477539
552254.14466094970703
550649.79364585876465
549056.21316909790039
547453.42978668212891
545830.52146530151367
544191.01251220703125
542546.37450790405273
540908.1671314239502
539282.04492568969727
537661.07222938537598
536024.35378265380859
534347.17638969421387
532615.49486923217773
530830.32871437072754
529001.62579345703125
527142.81049919128418
175353.83773612976074
175076.73013687133789
174831.25088500976562
174612.64202880859375
174417.54278945922852
174244.57378959655762
174093.45366477966309
173963.90937995910645
173854.83144569396973
173765.13100433349609
173693.10893440246582
173638.19182777404785
173597.31034851074219
173570.00768852233887
173552.74165153503418
173545.26874923706055
173553.0417652130127
173563.2076587677002
578679.38264846801758
576339.79397773742676
574051.59993553161621
571827.74703598022461
569668.41511154174805
567566.64766883850098
565520.18364715576172
563534.75651359558105
561615.83217620849609
559763.29203605651855
557974.31287574768066
556245.15069961547852
554570.55381202697754
552943.22392272949219
551351.26038932800293
549774.32938957214355
548190.60405349731445
546591.06012535095215
544983.48953628540039
543380.65235137939453
541787.82487297058105
540200.85041999816895
538607.67695236206055
536989.41936111450195
535325.50253868103027
533603.63985633850098
531825.24615097045898
530001.52499580383301
177109.58321762084961
176806.08573722839355
176533.65090942382812
176288.6879768371582
176068.05378150939941
175870.02352333068848
175694.12469291687012
175540.60330963134766
175409.47776794433594
175300.65166282653809
175212.85476493835449
175144.67206764221191
175091.9556941986084
175052.40527153015137
175021.63958740234375
174998.39485168457031
174987.81974983215332
174977.79792213439941
578027.35808563232422
575660.73612403869629
573361.87834167480469
571130.76643180847168
568958.69604873657227
566842.00421142578125
564786.41754531860352
562799.79335594177246
560887.09979438781738
559049.79111099243164
557284.49249839782715
555583.42121315002441
553938.19618225097656
552338.41029739379883
550765.34967803955078
549195.85508155822754
547617.21761703491211
546033.35212707519531
544453.2030029296875
542877.97841262817383
541300.39470863342285
539709.39850997924805
538091.86865234375
536434.63419151306152
534728.0380802154541
532968.34731864929199
531158.19224548339844
179043.22887420654297
178745.24472236633301
178473.98134613037109
178227.73161888122559
178005.02767372131348
177804.93632888793945
177627.16919708251953
177471.54563140869141
177338.01321220397949
177225.34484481811523
177131.94832611083984
177054.04326248168945
176989.40304183959961
176934.50566864013672
176887.96010208129883
176854.18886756896973
176820.67647933959961
582486.01910400390625
580016.00384521484375
577596.39462852478027
575239.0783634185791
572948.19686508178711
570721.39509582519531
568558.26789093017578
566463.51928329467773
564441.76846313476562
562493.43736267089844
560616.01816940307617
558805.89138793945312
557059.8167552947998
555376.18599510192871
553751.6162109375
552172.30056953430176
550614.01884460449219
549054.96590232849121
547486.52359580993652
545910.12558555603027
544327.43922805786133
542736.3835277557373
541131.78854179382324
539505.81433868408203
537848.83842849731445
536150.50856399536133
534400.47159767150879
181469.57077789306641
181176.15200424194336
180905.44897842407227
180657.10495185852051
180430.86057472229004
180226.37162780761719
180042.72385215759277
179878.61921119689941
179731.76522445678711
179600.21370697021484
179481.44578170776367
179375.22896194458008
179281.05524635314941
179198.85600280761719
179132.66257667541504
179068.94541358947754
584212.24324417114258
581745.21032905578613
579323.87449073791504
576953.20096397399902
574639.36692047119141
572388.48106384277344
570206.8315372467041
568100.03883934020996
566068.15095138549805
564102.47035026550293
562191.70823669433594
560331.0844783782959
558525.04914855957031
556782.35017776489258
555106.42099761962891
553487.18176460266113
551901.86508178710938
550325.60822105407715
548742.33181571960449
547147.11044120788574
545541.44128036499023
543926.62030601501465
542299.88427543640137
540653.8194580078125
538978.15311431884766
537261.65317344665527
535494.43132972717285
533672.91936302185059
183677.82517623901367
183381.91281890869141
183106.94949340820312
182852.89083480834961
182618.9816951751709
182403.39082717895508
182203.6960391998291
182016.98321914672852
181841.73175811767578
181677.17342758178711
181525.04334831237793
181386.81152725219727
181262.80889129638672
181156.38505935668945
181054.42793083190918
583497.72306251525879
581091.57028961181641
578727.84029960632324
576410.75604438781738
574150.89459800720215
571959.58243942260742
569843.13135719299316
567797.61890029907227
565807.95000457763672
563857.23740577697754
561940.02203369140625
560066.38876533508301
558252.38667297363281
556506.35349273681641
554821.8474178314209
553179.48187446594238
551555.97784042358398
549934.01520347595215
548305.7223949432373
546669.81970024108887
545025.96719169616699
543370.4008903503418
541695.19508743286133
539989.25481605529785
538241.51855278015137
536445.32780075073242
534602.18376350402832
185978.5695629119873
185677.45096015930176
185396.18065071105957
185133.50519371032715
184887.17521667480469
184654.46652030944824
184432.50603866577148
184220.17062950134277
184017.43102836608887
183826.74307823181152
183650.49892807006836
183489.12018013000488
183345.75164604187012
183207.58174705505371
583074.46062469482422
580720.37343788146973
578403.15339088439941
576136.02968215942383
573933.07614135742188
571798.98049926757812
569726.11946296691895
567697.36133003234863
565694.91622161865234
563713.64447402954102
561766.02484512329102
559871.33292007446289
558040.88429641723633
556271.57438468933105
554548.87238121032715
552854.35762977600098
551172.71442794799805
549494.68981170654297
547815.37768745422363
546130.68584632873535
544435.00741577148438
542720.76416969299316
540978.69724082946777
539199.18907165527344
537376.97141647338867
535514.50795555114746
188433.36872291564941
188119.15398406982422
187821.97276306152344
187539.47752380371094
187269.29650115966797
187009.17651748657227
186758.32533836364746
186516.72249221801758
186286.68092918395996
186070.78429985046387
185869.80107688903809
185687.61629295349121
185512.48925971984863
582874.5070629119873
580553.47121047973633
578276.28215408325195
576058.11269378662109
573901.20487213134766
571794.48942565917969
569720.3046932220459
567663.14292335510254
565619.71478080749512
563602.20200157165527
561629.23390579223633
559713.04057884216309
557854.04996299743652
556043.59134483337402
554269.39548110961914
552519.5323600769043
550783.68800163269043
549053.5291862487793
547322.07119750976562
545582.90543556213379
543830.16786956787109
542057.37983894348145
540256.00926971435547
538418.51915550231934
536543.6968879699707
191034.44608688354492
190700.17156219482422
190379.30689811706543
190070.18270111083984
189771.42690658569336
189482.40899085998535
189202.44286727905273
188932.87172317504883
188675.98105049133301
188433.26168823242188
188210.07012557983398
187996.11090278625488
582802.73272895812988
580512.34716987609863
578276.90450096130371
576095.72279167175293
573954.68076133728027
571836.42393684387207
569729.53201866149902
567633.71479606628418
565559.56686019897461
563521.70559120178223
561530.93305587768555
559590.60178756713867
557698.28083419799805
555848.74202537536621
554033.90144157409668
552242.37955856323242
550462.32642936706543
548684.78350257873535
546904.5224437713623
545118.86169624328613
543323.99671363830566
541510.63965034484863
539666.22657585144043
537783.57668304443359
582868.52793121337891
580614.83403968811035
578409.18602561950684
576235.7362174987793
574078.0680103302002
571928.77360153198242
569790.4375171661377
567671.31582641601562
565581.23785209655762
563528.4670467376709
561518.78744316101074
559555.54666709899902
557639.48810768127441
555765.69005393981934
553922.1695613861084
552094.44108200073242
550273.17514801025391
548456.06131935119629
546643.21475982666016
544830.56884002685547
543005.36859703063965
541150.60265731811523
539256.93850708007812
580890.04205513000488
578685.66602897644043
576492.38769149780273
574304.12106704711914
572124.34712791442871
569960.9886474609375
567821.87294769287109
565714.14688873291016
563645.02739524841309
561621.00079154968262
559646.1297779083252
557718.01475715637207
555825.18620872497559
553952.69513702392578
552091.90607643127441
550242.60965728759766
548405.09819221496582
546571.58219146728516
544724.55697631835938
542845.92887306213379
540929.39252662658691
574620.30362701416016
572407.23973083496094
570217.36660575866699
568059.28262519836426
565939.52211380004883
563863.47399139404297
561835.30547714233398
559854.92506980895996
557913.84691047668457
555999.0526123046875
554102.5195426940918
552223.01643943786621
550357.60961151123047
548493.50563812255859
546610.47419548034668
544693.32302856445312
542742.28532409667969
568350.50160789489746
566229.69763565063477
564153.01002883911133
562122.29296112060547
560133.65741729736328
558177.80402374267578
556246.78828430175781
554336.09292793273926
552437.77621650695801
550534.8810920715332
548607.29136848449707
546644.87744331359863
544654.2723388671875
568686.82486534118652
566566.88283920288086
564489.49807167053223
562456.02723121643066
560461.30769157409668
558496.5340747833252
556552.67192268371582
554617.45701789855957
552672.64191055297852
550700.70026397705078
548696.35753440856934
546669.69718551635742
784557.06370162963867
782952.50603294372559
781351.91480827331543
779720.2173957824707
778043.09041023254395
776318.86603355407715
774548.1297779083252
772728.51556968688965
770851.97515678405762
768906.04299163818359
766881.04739761352539
764777.56965827941895
762610.05427169799805
760400.73111343383789
758172.14662170410156
755944.04544067382812
753733.14105224609375
751551.19757461547852
749400.44540023803711
747273.48509979248047
787950.9745979309082
786319.79299736022949
784739.53379249572754
783159.3431568145752
781542.7673454284668
779875.65604591369629
778156.59360313415527
776386.73250961303711
774562.33150482177734
772672.52051162719727
770702.63824272155762
768642.28911972045898
766494.60915565490723
764279.53183174133301
762026.25560760498047
759761.77180862426758
757505.51650428771973
755271.11442375183105
753067.89170265197754
750898.08865737915039
748755.76879119873047
746634.64759826660156
793044.59599876403809
791234.33088493347168
789531.83039093017578
787921.24002265930176
786360.30377578735352
784796.19005584716797
783190.76926231384277
781529.78955078125
779812.60278511047363
778040.70645713806152
776209.41378211975098
774305.35018539428711
772311.45350074768066
770216.67558288574219
768026.16803169250488
765765.4274730682373
763470.83188438415527
761173.5172233581543
758892.46996307373047
756638.06393623352051
754416.9953556060791
752231.46472930908203
750076.90299415588379
747949.16159629821777
745853.00577926635742
743800.86339569091797
796308.34134101867676
794409.76356315612793
792616.82561492919922
790929.57203674316406
789333.25176429748535
787785.53083038330078
786231.82482147216797
784633.31478881835938
782974.95918083190918
781256.24464797973633
779479.40640068054199
777639.32181167602539
775720.74251937866211
773704.8864803314209
771580.01860618591309
769352.80012702941895
767052.95781135559082
764722.50177383422852
762396.91592216491699
760094.9603443145752
757823.83490180969238
755587.86325073242188
753389.11346435546875
751224.30424690246582
749091.14607810974121
746995.6993465423584
744949.24219703674316
742959.58157157897949
799455.83254432678223
797462.48537635803223
795579.86066627502441
793799.95519638061523
792124.14527130126953
790538.85795593261719
789001.41067314147949
787455.8553352355957
785861.78094482421875
784204.04714202880859
782482.23871231079102
780699.38354301452637
778850.21526336669922
776917.82513618469238
774881.66466903686523
772729.54203987121582
770469.35811424255371
768134.88629913330078
765773.3127498626709
763423.35280609130859
761103.71650123596191
758819.11898803710938
756571.66708374023438
754363.11540985107422
752191.09629440307617
750054.96120262145996
747961.55534934997559
745920.69640350341797
743937.69224166870117
742011.44422721862793
802497.95823669433594
800384.47097015380859
798407.03455352783203
796536.54331588745117
794765.47350120544434
793096.39097023010254
791517.39416122436523
789985.8569393157959
788444.52215766906738
786852.30038261413574
785193.38175773620605
783467.46223258972168
781677.98929977416992
779820.08721923828125
777875.99917602539062
775823.78540802001953
773650.80068206787109
771365.64215469360352
769004.36732292175293
766618.10081672668457
764248.83390617370605
761915.29192543029785
759619.91212844848633
757362.96994400024414
755146.01498031616211
752967.7679443359375
750828.97569274902344
748737.2082405090332
746700.9901123046875
744723.30208969116211
742801.64225578308105
740935.10333824157715
803190.97531700134277
801091.29677391052246
799125.01522064208984
797263.06890106201172
795498.50168800354004
793834.67901992797852
792260.30146026611328
790732.82824516296387
789194.38703727722168
787603.04588317871094
785942.61466979980469
784212.81354141235352
782417.60516548156738
780552.20178031921387
778597.87479019165039
776531.7232780456543
774341.02467155456543
772035.48519706726074
769653.38764953613281
767248.42176628112793
764864.41625213623047
762520.57725143432617
760217.89173316955566
757955.0982494354248
755733.42985343933105
753552.23866653442383
751412.87042045593262
749323.26940727233887
747291.31217765808105
745318.23128128051758
743400.57311820983887
741537.94349670410156
739741.54572486877441
936208.39308929443359
932797.65981864929199
929422.89839744567871
926116.86312675476074
922895.28789329528809
919783.41568756103516
803655.36488723754883
801565.2745418548584
799606.5386905670166
797749.93257141113281
795988.73686408996582
794326.81669235229492
792753.87303924560547
791227.72198295593262
789689.8269100189209
788097.74467849731445
786435.24348831176758
784701.6811580657959
782901.38744163513184
781030.20272636413574
779069.05403518676758
776994.15402221679688
774792.78931617736816
772475.05742645263672
770080.01601219177246
767662.88133239746094
765269.45835113525391
762919.06709098815918
760611.53162956237793
758344.58111953735352
756119.56772041320801
753936.10911560058594
751795.99381256103516
749707.61234855651855
747678.43263626098633
745708.36386108398438
743793.27664756774902
741933.37714385986328
740140.26809692382812
738440.3084774017334
940037.54447555541992
936650.5120906829834
933227.50706672668457
929841.06307029724121
926523.57443809509277
923291.07691955566406
920168.69091606140137
803903.73377990722656
801818.25568389892578
799863.13672637939453
798008.9666805267334
796249.62290954589844
794588.99170684814453
793016.86860084533691
791491.4283390045166
789953.68206405639648
788360.83431434631348
786696.8849925994873
784961.00687789916992
783157.63579750061035
781282.9507884979248
779317.70158767700195
777237.57841110229492
775029.88422966003418
772705.16135406494141
770303.16850280761719
767879.88960075378418
765481.56436538696289
763127.80184745788574
760818.18830108642578
758549.69792556762695
756323.53253936767578
754139.50151824951172
751999.56776237487793
749912.16535949707031
747884.61324501037598
745916.38299560546875
744002.75344657897949
742144.50398445129395
740353.19487762451172
738655.25687408447266
737072.39051818847656
171190.18930435180664
171151.54033851623535
171143.22718620300293
171166.54992866516113
171224.72149085998535
171314.40059280395508
171438.63569259643555
171589.67593383789062
171768.65169906616211
171976.67210960388184
172196.52241325378418
582772.8703441619873
580700.27568435668945
578654.02009010314941
576624.35980796813965
574602.8121509552002
572588.10120582580566
570583.2524471282959
568591.89219856262207
566618.26195907592773
564664.27400970458984
562727.95503616333008
560805.47451019287109
558892.59552764892578
556985.12892532348633
555081.22453689575195
553182.5765552520752
551290.76189994812012
549405.97250938415527
547530.56517028808594
545671.1223316192627
543834.27603530883789
542020.14911270141602
540221.2058048248291
538427.71904373168945
536635.91262245178223
534849.55990982055664
533072.64048004150391
531300.9319953918457
529524.63519477844238
527739.57258033752441
525951.70544242858887
524169.92080879211426
522398.42871856689453
520636.2741813659668
518880.17539215087891
517125.84566497802734
172807.30350494384766
172461.33877182006836
172158.37150573730469
171897.90145111083984
171677.17746925354004
171491.45936012268066
171334.94319534301758
171202.19916534423828
171089.69063377380371
170996.47869300842285
170924.25573921203613
170875.70489883422852
170854.50619697570801
170861.86712455749512
170900.6639575958252
170967.84557723999023
171066.51554870605469
171190.20854187011719
171340.30696105957031
171518.90534782409668
171709.27337074279785
582853.64323616027832
580763.62814712524414
578706.60026550292969
576666.30990600585938
574631.06282234191895
572602.09980583190918
570587.75434303283691
568595.31949234008789
566628.72480201721191
564687.79173278808594
562769.13544845581055
560869.84701347351074
558987.63483619689941
557117.86834335327148
555255.47963714599609
553398.66658782958984
551547.55284881591797
549700.9597282409668
547858.51510238647461
546023.87181091308594
544202.90527534484863
542397.2947883605957
540601.53446388244629
538807.03052520751953
537010.09268951416016
535214.5589714050293
533424.53329849243164
531635.2845287322998
529836.53435516357422
528024.6087760925293
526206.26645851135254
524390.71229934692383
522582.30233955383301
520779.75786399841309
518978.16629981994629
517171.27634048461914
172783.40572166442871
172426.0393009185791
172112.5832691192627
171842.9086742401123
171614.7565975189209
171423.69305610656738
171263.69088363647461
171128.34605407714844
171012.5357494354248
170913.64678764343262
170832.20637893676758
170770.66267967224121
170732.95641326904297
170720.75651359558105
170736.92624092102051
170778.73781394958496
170849.10842323303223
170942.51581954956055
171060.29533386230469
171205.21675682067871
171361.0091724395752
581124.4121265411377
579044.36943626403809
576981.30347061157227
574922.78134536743164
572874.60174179077148
570851.67803001403809
568863.9992733001709
566910.96060943603516
564984.89236450195312
563079.5739574432373
561196.69766426086426
559341.78856468200684
557512.83665657043457
555699.11991691589355
553890.36062622070312
552081.92511940002441
550271.65654754638672
548458.74186325073242
546646.5661449432373
544841.84017944335938
543048.10379219055176
541260.61806678771973
539469.02345848083496
537666.99588394165039
535857.67068481445312
534047.24960708618164
532234.10612869262695
530410.17056465148926
528571.8304615020752
526724.51064491271973
524876.0600471496582
523029.90874099731445
521183.8465461730957
519332.11330795288086
172618.92961502075195
172292.63997268676758
172008.97962760925293
171767.11463165283203
171564.02266120910645
171394.38959503173828
171251.40548515319824
171128.46667289733887
171020.98820114135742
170927.81925582885742
170850.67650413513184
170793.58673095703125
170759.01853561401367
170750.34915161132812
170765.59896850585938
170807.68283843994141
170871.98937606811523
170959.58401107788086
171073.42063331604004
171196.93313980102539
581687.09707832336426
579568.94584465026855
577471.06186676025391
575384.66926574707031
573320.20328521728516
571294.97247505187988
569316.13430976867676
567376.13116073608398
565461.12804222106934
563564.4986457824707
561694.84240531921387
559866.61722755432129
558080.33595085144043
556318.27448272705078
554559.46651840209961
552792.55556297302246
551014.78019905090332
549228.11931800842285
547439.3469295501709
545657.71590423583984
543886.81028747558594
542118.5174674987793
540337.53720855712891
538534.50535202026367
536712.97739028930664
534882.87491798400879
533048.4288158416748
531205.25405693054199
529348.08028984069824
527477.59733581542969
525598.74774932861328
523715.04123115539551
521825.93443298339844
519927.63238716125488
173070.02092933654785
172729.93664360046387
172430.14928245544434
172171.23470115661621
171951.67618942260742
171767.09272003173828
171610.70353126525879
171475.11487007141113
171354.53240203857422
171246.68300628662109
171152.57911109924316
171075.8937816619873
171019.06355476379395
170985.27157783508301
170973.06773376464844
170985.7462158203125
171020.5430908203125
171079.34304428100586
171165.85272979736328
171263.09071350097656
580274.8647518157959
578130.97873497009277
576013.03875350952148
573931.66853904724121
571898.5678825378418
569914.65447998046875
567968.74574661254883
566047.22695350646973
564147.72759246826172
562284.28744506835938
560475.18012428283691
558721.14954566955566
556998.96797180175781
555278.83512306213379
553543.34358024597168
551790.06467437744141
550025.41174697875977
548261.55671691894531
546510.26888847351074
544771.58603286743164
543029.5168514251709
541263.21215629577637
539462.58062553405762
537633.40641975402832
535789.8227710723877
533941.77658843994141
532087.81572151184082
530219.04431915283203
528329.62140846252441
526422.21443557739258
524504.02547454833984
522579.62841987609863
173459.39237213134766
173142.24472427368164
172864.52837753295898
172625.71504974365234
172421.93740653991699
172246.69813919067383
172092.82183074951172
171954.70673561096191
171830.01482391357422
171719.42106246948242
171625.87076377868652
171551.0194091796875
171496.85978889465332