/*--------------------------------*- C++ -*----------------------------------*\
  =========                 |
  \\      /  F ield         | OpenFOAM: The Open Source CFD Toolbox
   \\    /   O peration     | Website:  https://openfoam.org
    \\  /    A nd           | Version:  13
     \\/     M anipulation  |
\*---------------------------------------------------------------------------*/
FoamFile
{
    format      binary;
    class       LagrangianVectorField;
    location    "0.5/Lagrangian/kinematicParcel";
    object      Uturb;
}
// * * * * * * * * * * * * * * * * * * * * * * * * * * * * * * * * * * * * * //

dimensions      [0 1 -1 0 0 0 0];

internalField   uniform (0.000678004 0.00144107 -0.00113014);

boundaryField
{
    walls
    {
        type            calculated;
    }
    open
    {
        type            calculated;
    }
    frontAndBack
    {
        type            empty;
    }
    procBoundary3to1
    {
        type            processor;
    }
    procBoundary3to2
    {
        type            processor;
    }
}

sources
{
    pointInjection
    {
        type            NaN;
    }
}


// ************************************************************************* //
