/*--------------------------------*- C++ -*----------------------------------*\
  =========                 |
  \\      /  F ield         | OpenFOAM: The Open Source CFD Toolbox
   \\    /   O peration     | Website:  https://openfoam.org
    \\  /    A nd           | Version:  12
     \\/     M anipulation  |
\*---------------------------------------------------------------------------*/
FoamFile
{
    format      ascii;
    class       volScalarField;
    location    "0.0105";
    object      k_0;
}
// * * * * * * * * * * * * * * * * * * * * * * * * * * * * * * * * * * * * * //

dimensions      [0 2 -2 0 0 0 0];

internalField   nonuniform List<scalar> 
106891
(
0.026703731749496910364
0.026694667640327802982
0.026679438972479350284
0.026671494566017524969
0.026657795147169857652
0.026650686080167285824
0.026636802374503332214
0.026629640658760583838
0.026614363191963349986
0.026606902693525832232
0.026585468919104359581
0.019195866802595499406
0.019503877290705295966
0.019815181740294302709
0.020106400368470379175
0.020362511202446344216
0.020577935546243250609
0.020751210622190357363
0.020882494272649890221
0.020967648531270796641
0.021008185197596722371
0.021017520980463305635
0.02101018099003804443
0.020955669411252708656
0.020764914625551255528
0.020554658384830313406
0.020421035303164390001
0.020353807906662194777
0.020334015488804473015
0.020333779054620963744
0.020353697683985462474
0.020440078358380391749
0.020708132317749951973
0.021126004302493416043
0.021563469597701147296
0.021996806309188529638
0.02239372608322257735
0.022739140220967533901
0.0230335518365793121
0.023284657980649547948
0.023496740435788254775
0.023661952630099195027
0.02376723863292012906
0.023812261458142355147
0.023819238387265170842
0.023808051797542834072
0.023743515118540711728
0.023508425509713170437
0.02317059512312174413
0.028204842643115242418
0.028186930705060959934
0.028176208243873519799
0.028157668804600632928
0.028146557087988788998
0.02812773608355010474
0.028116579992257979825
0.028096898943843102991
0.02808537624598188634
0.028065067015138216167
0.028053595920217867798
0.028033863356659947247
0.02802327888627119748
0.028004664293187438162
0.027995163953656608535
0.027976851825089400078
0.02796783752472560905
0.027948869034143796614
0.027939518917446878876
0.027913107174636939828
0.02062787915027674765
0.020920256181327975126
0.021186526363764314473
0.021425537733977678689
0.021636186476742209905
0.021815967627049862032
0.021959783028689169176
0.022058721185439455342
0.022110749244244297385
0.022125215737898679819
0.022121627212610305707
0.02208118579042801094
0.021913228761014574147
0.021668695264057367955
0.021499834572207530276
0.021407784260498392837
0.021375443511744023073
0.021372317716705498819
0.021391885543978583772
0.021493010287066561387
0.021849934067799572923
0.022452152222224110167
0.023007322070557362226
0.023487830980898710687
0.023875461592494397894
0.024170979381268199726
0.024393003742887050395
0.024562467677146808398
0.024694322599296568421
0.024792746700782616887
0.024850910738404979883
0.024873968556485364506
0.024875734410206726266
0.024861778929772818808
0.02479145356177817755
0.024552804926100332827
0.029654354412798757806
0.029633148173744176812
0.029620994664865979429
0.029599037678204237478
0.0295865590907604184
0.029564223790496089311
0.02955147981289346984
0.029528131708280710988
0.029514672016903432256
0.02949019538024970355
0.029476328054005199175
0.029451978317958038556
0.029438793633804635069
0.02941545848691242554
0.029403663126347269474
0.029381143885456508652
0.029370207165904192032
0.029347452343561584998
0.029336233358534694743
0.02930483016259045892
0.021721551571599429648
0.022015965068245810232
0.022308000766965416228
0.022592181038191078146
0.022857592023788935592
0.023089329445352992781
0.023270171925440764904
0.023385211357031102097
0.023435527001063768265
0.023444872094121903261
0.023431085841879372572
0.023342508367340808473
0.02305454417309650908
0.022760665143217152784
0.022571927977372251151
0.022475957680578646791
0.02244613287821447048
0.022444817251245922224
0.022472596019931515704
0.022605698925030549146
0.023020155539428332342
0.023540287765544006676
0.024010043349583582578
0.024432764274648677977
0.024809851798568503811
0.025149044625088663729
0.02545852287617618101
0.025736501429262641227
0.025968217179851281473
0.026138657241662789643
0.02623396635427656387
0.026268182723885428326
0.026269508090208042866
0.02624172162149010154
0.02610547744126050923
0.02571540088712406455
0.03116333399477098226
0.031149690184909741009
0.031124099117665591369
0.031109984951185085805
0.03108333562874418185
0.031068812223786667487
0.03104139935494853661
0.031025864730996426805
0.030996965779084457993
0.030980687996046054472
0.030951526607148407977
0.030935740810509114451
0.030907311333499051104
0.030892866733911391458
0.030865475867354417311
0.03085214945891947072
0.030824913305547024106
0.030811525869676101297
0.030774522085006434519
0.022221681339965944357
0.022677132277218955275
0.023182881617605000796
0.023705014557698713545
0.024198778047327389185
0.024614417074604211244
0.024915972562955863989
0.025088528417353067601
0.025152421920578649228
0.025159299837768114849
0.025132668716034218398
0.024988748307241459568
0.02457912045957258429
0.024189045436756480972
0.0239218015985038987
0.023763413572391953871
0.023692932732567190818
0.02367802829841884546
0.023683869263136057837
0.023725549965597982072
0.023872068970877499683
0.024244891994274347935
0.024693411633834042723
0.025166923479115008849
0.02566529050222089367
0.026174402435204191519
0.026668979291154755462
0.027114438068297618684
0.027469952263110206103
0.027712675705662732223
0.027836443591180363988
0.027874293861220148655
0.027872764565491845584
0.027831367818151028781
0.032791914898864051031
0.032762949858977832851
0.032747639812191559061
0.032718016213075261367
0.032702889516707508988
0.032672885665979471692
0.032656988550936565108
0.032625605717093733582
0.032608118162484607538
0.032575128437534989212
0.032556875169000354386
0.032523157022296876606
0.032505005864576753949
0.032471920020557258624
0.032454977874545584693
0.032422827470215312418
0.032406838402645486708
0.032374323789060042988
0.032358152831403155791
0.032314733037147019834
0.023804039196211625867
0.024159925928596275024
0.024507369894694853996
0.024866094830327523796
0.025230646443756707398
0.025578580074329046457
0.025873644194670000068
0.026088491801795787861
0.026208298986632436872
0.026249026805336805879
0.026250714636831994769
0.026221854750090825559
0.026080400630115990745
0.025730510045108141021
0.025442536734194637349
0.025266888377609594135
0.02518901771042583726
0.025174027878657873752
0.025184169041409444623
0.025256451740181758842
0.025548683719199192371
0.026230721140839866057
0.026850453748726004627
0.027345130721081516156
0.027735677064253370233
0.028061603539378129901
0.028356724733124324955
0.028632835641309591079
0.028882653073747786843
0.029083241535360383756
0.029215909420688218612
0.029277123896516977358
0.029289329560150460102
0.034452870052272120682
0.034435408218954938198
0.034401675179356654144
0.034384738999614278265
0.034350929742579951187
0.034333514783075294585
0.034298559743559976776
0.034279843580360853939
0.034242733557552924861
0.034222169118156231526
0.034183799788197632985
0.034162999741322870595
0.034124938709307141294
0.034104763426910891799
0.034066983678506357336
0.034047559694165556443
0.034008796978001597233
0.033989439292183086516
0.033939120071128842104
0.026423827914076342821
0.026560750355254746785
0.026655963475454336892
0.026731367357014663294
0.026797435153831802856
0.026855858030724443636
0.02689773496275960421
0.026917868284932196937
0.026920750554469838334
0.026911816059228731157
0.026861537972777932426
0.026693923954808133209
0.026510785433268277411
0.026404001841219212204
0.026367682972793914792
0.026368716599148540186
0.026415584456220761456
0.026635634305969383556
0.027317599303595643118
0.028116671466336031621
0.028758842818106814671
0.029243997680115343257
0.029586735088518160974
0.029817441533191234304
0.02997722592149504664
0.030093627009259237004
0.030188111050028745147
0.030264693523719961993
0.03032139451040291242
0.030350999497220806228
0.030357712622713511202
0.030352404963360252177
0.036224446549380479032
0.036204072049642405107
0.036165770904338874481
0.03614657768039009067
0.036109507584517294698
0.036090878250144155237
0.036052714982662395493
0.036032525009924959436
0.035991622492546587742
0.035968993413898940614
0.035926308612118651453
0.035902553532444980711
0.035859347071222992531
0.035835789056609543279
0.035791915336103499734
0.035768407265030527364
0.035723400596421504838
0.035700582362333657671
0.035643842392872077118
0.027592711107132340126
0.02789231723282906833
0.028134831579098233678
0.028307497031462472425
0.028408734475204564657
0.02845208830165123215
0.028459020703440224276
0.028450490162126397531
0.028395931159788723175
0.028186134686268449895
0.027850521973108256779
0.027605407560865651007
0.027464680404319333218
0.027414171134842884453
0.02741386386824532298
0.027459155826146167817
0.027680533112293251308
0.028367528171771443785
0.029149887814650794066
0.029779033245016128806
0.030277620119854142117
0.030678328902490857588
0.031009282936086103588
0.031291508286311608966
0.031526359198022733954
0.031711026066211650543
0.031843252577038363982
0.031924850634980989073
0.03196089207063470411
0.031965438092257165981
0.038097622534282157836
0.038054509249179233055
0.038032931922333854113
0.037991684112211578095
0.037971108168487338608
0.037929328319145631798
0.037907505022714831078
0.037863014202910119654
0.037838233310137608933
0.037790780322235408006
0.037763665328570235336
0.037714547827017289028
0.037687070379022219457
0.037637475535596515153
0.037610285199147053259
0.037559866393385502037
0.03753379590175168895
0.037472928991824611122
0.028742399214214033737
0.02914197771039559598
0.029495367793392995165
0.02977201065558060869
0.029957585376977204777
0.030053412026886845015
0.030082659839246961297
0.030079737021019060245
0.030040826978517464613
0.029866231305288298142
0.029494737817404283187
0.029228428720808913299
0.029093790712002399329
0.029059088887094929043
0.029070779798490372497
0.029163555560870906003
0.029546840541211181336
0.030281623970643219146
0.030890966618982492603
0.031367511476513010305
0.031745217110455643816
0.032070933806899175333
0.032372944933740009643
0.032661345106064706978
0.032928235156507598691
0.033148482115049116015
0.033305461307111802749
0.033393990226300941659
0.040246035152006101598
0.040199780858704486919
0.040175124630224122446
0.040130372619555168545
0.040106594377118519323
0.040062101738529420913
0.040037204076090196492
0.039990051584615111946
0.039962139370013444184
0.039910657509722891056
0.039879845486985400493
0.039825556310597448606
0.039794463236013322138
0.039739904611729520711
0.039709449493971551992
0.039654756219866457712
0.039625839018712888384
0.039568387222876165443
0.029517974938918268429
0.029866999749133212039
0.03019909677291534103
0.030481552701476150036
0.030690085178005928335
0.030814578090269443417
0.030861808944073563371
0.030865467439723452692
0.030844938988773447364
0.030731418222966253029
0.030528239086458051205
0.03041845224152544061
0.030391973560214294303
0.030410911273268025068
0.030550216694561233011
0.031095321548224526959
0.031781776681407476748
0.032217221818024166513
0.032454516115828127565
0.032580558957572308687
0.032684617580232618039
0.032824264136520397983
0.03303344871014292361
0.033312500199706523984
0.033639579189564651485
0.033979667314156816738
0.034278595867857683532
0.041575629506504452326
0.041524438560691143141
0.04148973725277591007
0.041438650472642897526
0.041404501483165580267
0.041350591556342942978
0.041314225424699278777
0.041256516549007908601
0.041216155467930191969
0.041155290912770453593
0.041112161623117045306
0.041050806019471669517
0.041008426627669562758
0.040947278128644362671
0.040907302442954790456
0.040845462520762876313
0.040804236954125432113
0.028511614388735229131
0.028508016689379647723
0.028550392135670388943
0.028775796823000149988
0.029527190880293856939
0.030472368805119141172
0.031223704333257398802
0.031756228678723651127
0.032071667877989748496
0.032218006886615385698
0.032261954211579360607
0.032271375548650324538
0.032286105665344309867
0.03234759680246608593
0.032606070823532375125
0.033072611148750027943
0.033377915302776617335
0.033501425867726392083
0.033510846923591380842
0.033452734205804912637
0.033143938934338139368
0.032601667257242263054
0.032255782280696108921
0.032099492919758151888
0.032064581923757891346
0.032082882987324964907
0.032221628193956179664
0.041190105657553766072
0.041155165894277805083
0.041084486616725673924
0.041048510997127869715
0.04097489841214968509
0.040935602620003466723
0.040857328721053312592
0.040815557762904769445
0.040735359034886897689
0.040692070428802837312
0.040611474015403777049
0.040568524724386843816
0.040489141019113453202
0.040447854551588086069
0.040347780520091192091
0.040364907883738858352
0.023563221750386675185
0.023521787886924046956
0.023512859160461880431
0.0235181705949667752
0.023560661001593288105
0.023726457049482028994
0.024281229779800725388
0.025493459507400544756
0.026691995587974047532
0.027719980451893284912
0.02851445874005638717
0.029062856902003806475
0.029404932149341166114
0.029596056366142629163
0.02967887660345421702
0.029694654402537396659
0.029681218642838722022
0.029596211245587124294
0.029262274213168668058
0.02847628603405307976
0.027770757178991314906
0.027242774505210669289
0.02689111837191164936
0.026689505292252828361
0.02660120976319094166
0.02657980611225665632
0.026585966854527250114
0.026637002380396124224
0.033115724670721109757
0.03305987733075185786
0.03303116178676478859
0.032972875831448672512
0.032942056798905390569
0.032881243785248918943
0.032848923507495707275
0.032787578231046249355
0.032754858995944068079
0.03269375583649327538
0.032661459041990886787
0.032599768829051592456
0.032567802544253447727
0.032489704421299073211
0.03251960028975910133
0.022842121621270961712
0.022836937395127831357
0.022841073166290033758
0.022862454838453751677
0.022917991531672909228
0.023047885716599471329
0.023341391391154330676
0.023764935091681881757
0.02427232913185010596
0.024822343825454701305
0.025379192860025091144
0.025914281012816814398
0.026397043455722760119
0.026790029818771227826
0.027057716971971890879
0.027186189563291808524
0.027215296469906991722
0.027203033762603707341
0.027108403435961742067
0.026761938110406478103
0.026339528613853052663
0.026052384959538529841
0.025882253263985140201
0.025803057130975165512
0.025779726190258926005
0.02578076487253226981
0.02580181889303271095
0.031222039934431431579
0.031196855969040135359
0.031146292096378841441
0.031119188236195173547
0.031066590947776917542
0.031038668754989378468
0.030986316436095985571
0.030958567305753866006
0.030906420862128938104
0.030879129837628974814
0.03082623157205298392
0.030799133378777793224
0.030734515627022635648
0.030731325267075067231
0.021983184908058263363
0.02225366021562556057
0.022454456265540528176
0.022585979882593858192
0.02266342592436098452
0.022723046437567367972
0.02282287466350588212
0.023043279778769746452
0.023405511009157376617
0.023851151708289400344
0.024337415013389065294
0.024807476222551940598
0.025200833895180109467
0.025468495691882742787
0.02559489597513071521
0.02562324260719647806
0.025608346366657482734
0.025494062826963363733
0.025162126634486838006
0.024882754184561751282
0.024726251621534630493
0.024663487029269959283
0.024651916405809045502
0.024662330671960493861
0.024728366443853351531
0.024912241703054404524
0.030122123780395280296
0.030073469567589283108
0.030047766894755773004
0.029997611689858833667
0.029971106935565979684
0.029921057533330904649
0.029894832948092947555
0.029844437545628581948
0.029818505523302202276
0.02976735714786861095
0.02974155407427539477
0.029681742547309389324
0.0296742214089096637
0.021498510073376640023
0.021572657777032343274
0.021698185676107820813
0.021879655897567365508
0.022105899826757893084
0.022358231540650651964
0.022615366800973053102
0.022862319625287209901
0.023098572511021986386
0.023325050590404489137
0.023537204954145966168
0.023718814844550933918
0.023848350582376394435
0.023910712616116644447
0.023925865848903059979
0.023917860360700298611
0.02385404354834623486
0.023733950021802837499
0.023666575201853511795
0.023645048961314033692
0.023646177000367744891
0.023677957395009628649
0.023798569122702065842
0.023971936878884488736
0.024151540757242941082
0.028923231575338249899
0.02889905375598757209
0.028851127984784702418
0.028825858118855022388
0.02877771016638840107
0.028752813297124577008
0.028703748051044971484
0.028678906993219503707
0.028629447028563206196
0.028604933703477348345
0.028547351163640453942
0.028540608902346151221
0.020758330952683732434
0.020902090111959533564
0.021097847603071130662
0.02133616279253027978
0.021589481037283638626
0.021825515604922449131
0.022026021375207916614
0.022197901846954460475
0.02237182140022439189
0.022568873645901030289
0.022788516996084830918
0.022994158057843352289
0.02314495059238094038
0.023217029099135703257
0.023232552488532579038
0.023224494712250926681
0.023168096984843036118
0.023056489118241655506
0.022985222832379793162
0.022954894224617505144
0.022947531631862829599
0.022952534894457466558
0.022990755499495668657
0.023139842948860549904
0.020624444054952777161
0.020746733216734699473
0.020836513396961582611
0.020915596160152823135
0.021006286156373468743
0.021130657948722156997
0.021307227974782010083
0.021547904045298868492
0.021843840215496467677
0.022150442565788599353
0.02240993323041912122
0.022572796815582857333
0.022634005247183432152
0.022638250355558612453
0.022603060015088789064
0.022436331141816458212
0.022203941446104821095
0.022063343120688978793
0.022001487761613147676
0.021985179155423806296
0.021988353212775698514
0.022022882919433550697
0.022170622382772963571
0.020084408844762619006
0.020286260523895711938
0.020507620130427891419
0.020723385141482506683
0.020914212938262156938
0.021078126892604822501
0.021213954204256178088
0.021322254359619992325
0.021390245591320109636
0.021416253464127371631
0.021417146555831181182
0.02138554478223904376
0.021241587293247699703
0.021056101902543897936
0.020950902514720329273
0.020909170237451122493
0.020901104504385415589
0.020906178836907336055
0.020939762216419771645
0.021061887787791881699
0.021320612607437984531
0.020348022112367910447
0.020438834658420224066
0.020464176578598249762
0.020466118748491145957
0.020462551692292496597
0.020448676354938688515
0.020413057253713156464
0.020363736266655205198
0.020313602277779160832
0.020277871273086948284
0.02026326936606542839
0.020262931081923788584
0.020272341903977045274
0.0203012014908965574
0.020343968384640694763
0.020430338730216979909
0.020598974070397523678
0.019801731349152196238
0.020006458581307434014
0.020132057712126963378
0.020178316315567094985
0.020180781222904259353
0.020155173267569635037
0.020044632796184867762
0.01992374101765779712
0.019862440544016871785
0.01984184598859559806
0.019839832747303935701
0.019850024896992793377
0.019902768979303847585
0.019185706099882293696
0.019233430385161866955
0.019235489826806537877
0.019204194362699496257
0.019064596687602356623
0.018895403176118173716
0.018804438960669991182
0.018772285209040288217
0.018768344581784557334
0.018778338229242345914
0.018832067324087573695
0.018964163571714275774
0.010579458154327448308
0.010892879255237445171
0.011703223686653187879
0.012475766743610264622
0.012978374464898115651
0.013218529833803184179
0.013278364385953183441
0.013269273621194522736
0.01318149700766509981
0.012860525299063719357
0.01253347350651068913
0.012366885682856400969
0.012316753166595128047
0.012316767398140695058
0.012356413056988754112
0.012448962203391620435
0.012482540110716599385
0.012481709825860382371
0.012452918977651434088
0.012350502910843025317
0.02504111196343744572
0.02547653976870378062
0.026747726498054343741
0.028430000266552242494
0.029729297661893389071
0.030515352558054858328
0.030840543780642531296
0.030890055990108550299
0.03084063382124964392
0.030566509349182140187
0.02971544188620438634
0.028910600188281183887
0.028466760356355348682
0.028302282625040583314
0.028279690992197081129
0.028307410796975792516
0.028377216680115641134
0.028390446575624686543
0.028372012378615866363
0.028265467182924462752
0.028057804751318079356
0.027950227978685640573
0.086068144043525127151
0.087383929386188677335
0.090203934874402813548
0.09321494290072199207
0.095705596748111063099
0.097268018090083271932
0.097927937237683670979
0.098049057800504824112
0.097970604028284266618
0.097491637187879329196
0.09640874707819874212
0.095732725379358313278
0.095524461256584813906
0.095547891810139853885
0.095802717896497288641
0.096847957183079050325
0.098455011021304231211
0.099534199551544827456
0.10009304157041487571
0.10027936153632246996
0.10031736988222178519
0.10035676698696409381
0.10046881362697382412
0.1008093612727684607
0.10186690120561336936
0.10478194259801971999
0.45840572945594787457
0.46691339624538175102
0.47753173556044209436
0.48914580909498978079
0.49990343739870168882
0.5083399588335163477
0.51369492056207510799
0.51628776014096333657
0.5170232925315874084
0.51704003388467856261
0.51691426807196472204
0.51694538790083799373
0.51738754459694902277
0.51913004476061574977
0.52473475857948725931
0.53323332580369975364
0.54048517371465876202
0.54590725337984613574
0.54954674007973014493
0.55228958682096684907
0.5554869810405466124
0.56014854426067295368
0.56710392506469120555
0.57612835809696727463
0.58636808967259779202
0.5961050372524793195
0.60384425763902804807
0.6087812285638604104
2.0110868865483255696
2.0231533643517853882
2.0349748485552403565
2.0452892376865769997
2.0530384820019285108
2.0576586407600112594
2.0596296387771788616
2.0601815000125265342
2.0604194527336674447
2.0609409366952622378
2.0627399448572250051
2.0681992985733095303
2.0768461212680775496
2.0864156929237438476
2.0959324263864029803
2.1041413090409295528
2.1102593913918741286
2.1144350895979004967
2.1173885871188731223
2.1198791450245715318
2.1234022696818044551
2.1283491735923663057
2.1347312008214389678
2.1415971923574841362
2.1476108161270270891
2.1516816530497777649
2.1532002247412975748
2.1530450887078620426
2.1517998697073772441
2.1476700324857649349
4.3556385231503043087
4.345917535097090223
4.3341382996008439576
4.3198610709269322783
4.3034079478718938461
4.2857475888538205666
4.2681145457148295108
4.2516872922661876899
4.2372795302901513637
4.2251589144114314323
4.2149676375992131128
4.2059759547918194045
4.1973434778294178571
4.1883584726712888013
4.1786244011324731318
4.1680691654083297237
4.156815047935034535
4.1450744156868131185
4.1330928720200077464
4.1209919838525044256
4.1087046553370552004
4.0960553553833145557
4.0827757021077664135
4.0686711377846496163
4.0536191689800862292
4.037769656065927748
4.0215043915869852498
4.0054453391390003603
3.9902894938361437305
3.9765276011757344499
3.9643674782988962413
3.9535223535797672234
5.9621315105127576928
5.9315527346108254392
5.9011188397688538743
5.8707650438567382523
5.8406872534599614255
5.8111579877883308143
5.7823074981855429044
5.7541879081192552903
5.7268736861519959902
5.7003664051313274186
5.6745399651618289028
5.6491693155665521076
5.6240428934628763358
5.5991214752109721431
5.5744664425486902815
5.5501003635122589941
5.5259213080001146068
5.5017180874171387472
5.4773534005503501376
5.4529391564657032632
5.4287142606106888465
5.4049958704886646998
5.3820016409971760396
5.3597585556149063279
5.3381420261580210251
5.3169316431172441995
5.2959182086065004214
5.2751111778711994305
5.2546544765685645473
5.2346385097901970695
5.2149694621243529724
5.1953954631751253501
5.1756581608750611423
10.242415290746317069
10.138974627848595489
10.038389635166762304
9.9396723210844886154
9.8422662669142191305
9.7467134545303668602
6.8425719857431168691
6.8080856846032524743
6.7738710947529838791
6.7396781707491211222
6.7056650044909522634
6.6720511703369265177
6.6390348739735731698
6.6067811972944889831
6.5754091971054959842
6.5450304328858113223
6.5155955708509463165
6.4868631533707485914
6.4585850160819928689
6.4307452482745368627
6.4035107423308863517
6.3769504607667872875
6.3509019522363754362
6.3251555276259630034
6.2996078517921105799
6.274312430918239869
6.2495214705909774011
6.2255498319995909995
6.2025295297089533264
6.1803222397587633807
6.1586534667328276527
6.1372440745795584505
6.1159681341960281387
6.0949712173572123675
6.0744975003502457156
6.0546910421360351506
6.0354280777690654247
6.0163305637301798257
5.9970245042582241979
5.9775239539560995894
10.017479731270407584
9.910313073435624176
9.8050056544360071342
9.7013894952630472801
9.5988550080887762306
9.4978623277736122787
9.3997370182725425991
6.8387328030824692249
6.8135584495681191797
6.7869756513830790112
6.7599543552497038945
6.7338177558286060886
6.7095568483280922933
6.6876174792016271908
6.6680179486550166246
6.6505645386813521114
6.6346337784533080395
6.6192833307513341268
6.603709148226628578
6.5877086254559493739
6.571467290124982874
6.5550318765204957927
6.538153515277977057
6.5204979273833467701
6.5020572174996287274
6.4834361147258601221
6.4655809085205264708
6.4491059367124563551
6.433846482646079501
6.4190291274716990699
6.4036600261925196165
6.386942948258064412
6.3687601189617986108
6.3496639127049245843
6.3304363440693922627
6.3115958629750021913
6.2930191901602938742
6.2742471742425518499
6.255168797412916426
6.2364812089449372934
6.2193511000455083959
6.204808476005020168
5.8317019702672047497e-06
5.8075638870959265508e-06
5.7827033231784435939e-06
5.7643267594422564393e-06
5.7550083522799136562e-06
5.7519809546440274123e-06
5.754035936479608909e-06
5.7611554087088031245e-06
5.7763004552740512942e-06
5.7896283971555609934e-06
5.7873982377416105044e-06
0.00015799001807746275482
0.00014976089161588494042
0.00014136268070352438295
0.00013587601230898501965
0.00013327660653753459642
0.00013281579917414216814
0.00013361056440093019705
0.00013889758406041160209
0.00015659909731888422982
0.0001730822195811939333
0.00018083549650056915934
0.00018262591006115781495
0.0001821458819239870307
0.00017856821766800941905
0.00017063723826129661033
0.00016571157306762517285
0.00016377384526011909199
0.0001634923199152389932
0.00016391061848623235658
0.00016633334714864054398
0.00017490014243372523756
0.00018729487615029325278
0.00019731547362791059018
0.0002038333205703287711
0.00020649889108555338161
0.00020672725567984093437
0.0002054336830568206419
0.00020300458134860668814
0.00020282763647753057992
0.00020567855927346783361
0.00022184474122666808277
0.00026161111464644519605
0.00028975868102130725862
0.00030231991507375841587
0.00030496612213779834962
0.00030399970944681168261
6.675245938203235858e-06
6.5497243735223749091e-06
6.4362265299310292716e-06
6.3339381860354676668e-06
6.2479305237563985244e-06
6.1836506046482357378e-06
6.1432692952692304961e-06
6.1229119952906541254e-06
6.1082962864135908397e-06
6.0911708068862645426e-06
6.0666591972170165988e-06
6.0393380687852100833e-06
6.0146411113292786888e-06
5.9982731049225820132e-06
5.9903191449041230145e-06
5.9882125683700699283e-06
5.992411177865573437e-06
6.0032135763150306992e-06
6.0116037918795599176e-06
6.0161173878964644719e-06
6.0115671604320220127e-06
0.00013387362653076629758
0.00013384043877978757495
0.00013344021002499614303
0.00013244356237024845161
0.00013198924829437564646
0.00013205196112845452049
0.00013327188475337813718
0.00013946726093893403254
0.00015723280423394421263
0.00017218252382440046725
0.00017955151169766963106
0.00018150203610798847759
0.00018124474251762236719
0.00017870829785092179386
0.00017099993987539939869
0.00016469570242813911338
0.000161458662746427682
0.00016032865982952600593
0.00016023798649357606761
0.00016087707457718356517
0.0001644346324602486472
0.00017641734046906079668
0.00019023741258216800309
0.00019907901071302490478
0.0002028565345871338754
0.00020338802371898902417
0.00020244973922394873572
0.000200194510922948861
0.00019991951834581511748
0.00020207918998186175921
0.00021471051167032355182
0.0002524509456941569736
0.00028555278624192687682
0.00030318405408831056126
0.00030920018892606574443
0.00030969082052247353136
7.0536054372915265394e-06
6.9260901339257148457e-06
6.8122793016933296773e-06
6.7136254429331712691e-06
6.6315640481348825706e-06
6.5685081388363403889e-06
6.5242790275493260565e-06
6.4940989095031633689e-06
6.4687743531548056895e-06
6.4405711809992962971e-06
6.4071843856798589665e-06
6.372225040509617312e-06
6.3417743063461185917e-06
6.3209064990322472641e-06
6.3114441393345834807e-06
6.3088728796750660353e-06
6.3112792959032742364e-06
6.315291213874084333e-06
6.3148862848776465137e-06
6.3087927771340294205e-06
6.2796203489050535362e-06
0.00015904662155664177586
0.00015909111241141119203
0.00015796232496862066034
0.00015443394645971980487
0.00015253684697701780891
0.0001524171798585443867
0.00015372924764550348754
0.00016070238582732422573
0.00017361399721524823627
0.00018098562358825789724
0.00018331533900761156318
0.00018324899721151589578
0.00018139048210250643131
0.00017393088579224623034
0.00016511440697427299889
0.00015996492908961404259
0.00015783928066096306183
0.00015749407277010403646
0.00015799544973758232035
0.00016121194542108917909
0.00017359912375526065343
0.0001913063556911943539
0.00020321670181085578185
0.00020904468805354407129
0.00021043610283018424371
0.00021005430022784802647
0.00020790865892380953374
0.00020688710609768559559
0.00020756130286676653792
0.00021328458139667315482
0.00023488271522357183352
0.00025885659741050991286
0.00027241228410779060433
0.00027773095638285866249
7.2682149884373551725e-06
7.1556440827978586293e-06
7.0636258509752898054e-06
6.9917390002093919747e-06
6.9368853793150996772e-06
6.8944371779601712214e-06
6.8583933232123467949e-06
6.8230984968618945593e-06
6.7854545608875321334e-06