/*--------------------------------*- C++ -*----------------------------------*\
  =========                 |
  \\      /  F ield         | OpenFOAM: The Open Source CFD Toolbox
   \\    /   O peration     | Website:  https://openfoam.org
    \\  /    A nd           | Version:  12
     \\/     M anipulation  |
\*---------------------------------------------------------------------------*/
FoamFile
{
    format      ascii;
    class       volScalarField;
    location    "0.0105";
    object      nut;
}
// * * * * * * * * * * * * * * * * * * * * * * * * * * * * * * * * * * * * * //

dimensions      [0 2 -1 0 0 0 0];

internalField   nonuniform List<scalar> 
106891
(
9.3934074614384890429e-06
9.3852871908681148214e-06
9.3760883044506518422e-06
9.3681750974516499555e-06
9.3592586460139604038e-06
9.351507789401734537e-06
9.3425772823198028922e-06
9.3348351778464239208e-06
9.3256812246533317569e-06
9.3179036999706660305e-06
9.3076917640828440911e-06
1.0070984776155076965e-05
1.0144404383851325006e-05
1.0217952199350445664e-05
1.0285645576115725437e-05
1.0343798342788191355e-05
1.0391191835665734711e-05
1.0427644538086556925e-05
1.0453356187352224398e-05
1.0467417371230285761e-05
1.0470293784508294993e-05
1.0465373275234248163e-05
1.0456308028438133779e-05
1.0435585339812409578e-05
1.0380924262906353336e-05
1.0320989159845320361e-05
1.0280159374434979865e-05
1.0256024717079016654e-05
1.0243870889612769937e-05
1.0236677543882134129e-05
1.0234528269451607436e-05
1.0248974866121524378e-05
1.0308538342498966807e-05
1.0404767291570230132e-05
1.0504653385410439321e-05
1.0602354486018832701e-05
1.0690220980715306646e-05
1.0764935861198119747e-05
1.0826926681664979476e-05
1.0878260135863354016e-05
1.0920137210004624741e-05
1.0950901866315941848e-05
1.0967678172823637107e-05
1.0970489749824757056e-05
1.0964500325055588257e-05
1.0954337110197723355e-05
1.0931980352322287131e-05
1.0870408689595189515e-05
1.0784504656618537117e-05
9.9669436127825335501e-06
9.9568626684104704852e-06
9.9480605219544646051e-06
9.9378871991936105655e-06
9.9290329859745925554e-06
9.9188266734872348389e-06
9.9099791413646108612e-06
9.8996349997846791013e-06
9.8907333146075711777e-06
9.8802889125649367671e-06
9.8714049973602764301e-06
9.861073446877561646e-06
9.8523577810284907515e-06
9.842238847062325074e-06
9.8337312053709631434e-06
9.8236859238046198202e-06
9.8152834171378640907e-06
9.8051460149261955774e-06
9.7967033172601905339e-06
9.7852827131552734335e-06
1.0703944091264401417e-05
1.0772074617406454154e-05
1.0832908953391155417e-05
1.0886304022418350252e-05
1.0932121772199784266e-05
1.0969857581651709652e-05
1.0998352664313278354e-05
1.1015490405287378434e-05
1.1020856795453209097e-05
1.1016834409199816671e-05
1.1008312162338999512e-05
1.0990690591115920624e-05
1.0941403021585182687e-05
1.087258851324085809e-05
1.0822536351554048884e-05
1.0791761090266448452e-05
1.0776056724484836763e-05
1.076775522348764655e-05
1.0765147653953548637e-05
1.0782906482817654597e-05
1.0864116894905923301e-05
1.1005164030026503939e-05
1.1132749722818404819e-05
1.1240707675886953403e-05
1.1325331967621700408e-05
1.1387389703996491107e-05
1.1431690682822563053e-05
1.1463402576160563816e-05
1.1486172831671801785e-05
1.1501076441074975409e-05
1.1506597962383768706e-05
1.1503970120817997845e-05
1.149640338320386203e-05
1.1485228576710592945e-05
1.1461114168190032677e-05
1.1398132353386891745e-05
1.0485606543609409444e-05
1.0474581129729573296e-05
1.0465165715565275504e-05
1.0454028003736015121e-05
1.0444573390159085654e-05
1.0433387577043141996e-05
1.0423902114683096596e-05
1.0412552799537439478e-05
1.0402952771517688812e-05
1.0391416196871775663e-05
1.0381754058672126005e-05
1.0370252174126517916e-05
1.0360723466337319821e-05
1.0349417621860674239e-05
1.0340152404952393094e-05
1.0329012705326723844e-05
1.0319920209805655398e-05
1.0308764119461066559e-05
1.0299642221392998071e-05
1.0286991386283467014e-05
1.1269693687079700229e-05
1.1337932458399365139e-05
1.1404958059832764333e-05
1.1469414189782540229e-05
1.152860487084835699e-05
1.1578896437978400028e-05
1.1616141266777151064e-05
1.1636799443544002577e-05
1.1641276366787611747e-05
1.1635537803104097638e-05
1.1624075556957514914e-05
1.1594176465302395379e-05
1.1514644216616447001e-05
1.1432971453999920012e-05
1.1377458273793177382e-05
1.1345268856152880267e-05
1.1329801945090943487e-05
1.1321571007170309228e-05
1.132063315855912124e-05
1.1346018359589037384e-05
1.1441282179233807232e-05
1.1561852250943106395e-05
1.1668611852444907208e-05
1.1762782684278637132e-05
1.1845039691490187467e-05
1.1917499366301857408e-05
1.1982306483703130035e-05
1.2039210475553626512e-05
1.2084929961391893197e-05
1.2116163444622464278e-05
1.2129867951167967483e-05
1.212939527784311456e-05
1.2121299569795772967e-05
1.2106537773962512927e-05
1.2066886751216264814e-05
1.1968311173313258213e-05
1.1020948193493627535e-05
1.1010888140860539385e-05
1.0998727153585541135e-05
1.0988604325860494459e-05
1.0976276701254148344e-05
1.0966098629250584456e-05
1.0953653658264800365e-05
1.0943311429091264161e-05
1.0930618246130680579e-05
1.0920156415116619541e-05
1.090743081516293487e-05
1.0897070180635402679e-05
1.0884492150015605142e-05
1.0874387573781895417e-05
1.0862016249751998718e-05
1.0852131853789533032e-05
1.0839814274061325891e-05
1.0829941050759594478e-05
1.0815932504216922838e-05
1.1686845880922255457e-05
1.1797745300263864457e-05
1.1920263655942236921e-05
1.2045394941932125111e-05
1.216180927715946396e-05
1.2257398355385654753e-05
1.2323820078438105612e-05
1.235796022530176493e-05
1.2365183828577908551e-05
1.2358324123759684642e-05
1.2343268618162242734e-05
1.2299555256354508117e-05
1.2190080309323954541e-05
1.208443233586067098e-05
1.2009018348715340275e-05
1.1960766121925865598e-05
1.1934628315783292401e-05
1.192253651086780672e-05
1.1915699272860353399e-05
1.1917830524750893683e-05
1.1946098116996670008e-05
1.2030463320407450994e-05
1.2132813895331569581e-05
1.2240079167861505615e-05
1.235209115721115671e-05
1.2465347283008240358e-05
1.2573857294688368743e-05
1.2669691991920721709e-05
1.2743718660253612664e-05
1.2791120068062387127e-05
1.2810854528304541205e-05
1.2810728683358213603e-05
1.2801512925706841733e-05
1.2783209343821926436e-05
1.1607303020824621481e-05
1.1594120206488603663e-05
1.1583364759872196272e-05
1.1570088278582148404e-05
1.1559385902627501195e-05
1.1546064825674704166e-05
1.1535246221837043001e-05
1.1521701842498406742e-05
1.1510619254276563167e-05
1.1496808061581460271e-05
1.1485604990715918476e-05
1.1471681806138017313e-05
1.1460512503064762384e-05
1.1446720116770975895e-05
1.1435784178621516191e-05
1.142218081224035825e-05
1.1411436682239462564e-05
1.1397796150002980885e-05
1.1387042545224451928e-05
1.1371509543502872328e-05
1.2410417232698883969e-05
1.2494194581879871026e-05
1.2574976070355532446e-05
1.2657867164638562333e-05
1.2741461539026700418e-05
1.2820137086247412753e-05
1.2884985086187881e-05
1.2929483140451219404e-05
1.2950238526968631624e-05
1.2951369378190617017e-05
1.2942821861340793947e-05
1.2926789445368235915e-05
1.2883132414588955987e-05
1.2787640771451630299e-05
1.2706915462393925188e-05
1.2654058611520633458e-05
1.262566902611991463e-05
1.2613092003420382762e-05
1.2606835401649125531e-05
1.2616024213566516443e-05
1.2679587789506790161e-05
1.2838624823181210986e-05
1.2980572372325765496e-05
1.3090652771361419398e-05
1.3174749817126204539e-05
1.3242781808531143599e-05
1.3303009438690846085e-05
1.335834530605236219e-05
1.3407202938595551834e-05
1.3444389537903785034e-05
1.3465734261329271533e-05
1.3470542258426861204e-05
1.3464034982214719696e-05
1.2198555190293467119e-05
1.2186994766154106871e-05
1.2172566220111353494e-05
1.2161120836878178459e-05
1.2146703268572012883e-05
1.2135195622243394792e-05
1.2120599687595826557e-05
1.2108883616180230063e-05
1.2093928732926936093e-05
1.2081904494472494349e-05
1.2066746042887834485e-05
1.2054697590492427593e-05
1.2039613912708474832e-05
1.2027696336016730912e-05
1.201268593085897673e-05
1.2000924603930282884e-05
1.1985766626734151765e-05
1.1974039360200926054e-05
1.1956872479474723469e-05
1.3406479133689177237e-05
1.3431897418383331372e-05
1.3446634892732609888e-05
1.3456295303919161858e-05
1.3463557574015386974e-05
1.3468875345513637123e-05
1.347003728740104304e-05
1.3465752711145366927e-05
1.3457145248920631748e-05
1.3445598407699920588e-05
1.3423785795466386874e-05
1.3372670207100251344e-05
1.3317387231218739185e-05
1.3281217831007531804e-05
1.3262792763499334814e-05
1.3253809817058549868e-05
1.3256266014345587952e-05
1.3301793925474248819e-05
1.3461156307817048801e-05
1.3647314457001665273e-05
1.3792895279509198125e-05
1.3899269781891474674e-05
1.3970917547177151598e-05
1.4015640375142863686e-05
1.4043441861619915674e-05
1.4060938493734918928e-05
1.4073231336032451902e-05
1.4081302946454119418e-05
1.4084723706902806922e-05
1.4081840983850673195e-05
1.4073637995277661739e-05
1.4062654192663975479e-05
1.2833524957953484485e-05
1.2821003636080443355e-05
1.2805319042018767993e-05
1.2793028482013728644e-05
1.2777587201925179268e-05
1.2765421825532204006e-05
1.2749817084435453732e-05
1.2737401809043025365e-05
1.2721339220498683066e-05
1.2708515828501685532e-05
1.2692160020100802458e-05
1.2679157449171998297e-05
1.2662729740399853551e-05
1.2649781648709193497e-05
1.2633258522039927352e-05
1.2620341700557325835e-05
1.2603643339294173377e-05
1.2590871283874028024e-05
1.2572129167903524867e-05
1.4046127459702103756e-05
1.411242271673507256e-05
1.4163865193058787771e-05
1.4197468990124172884e-05
1.4213027391184744725e-05
1.4214048266005748124e-05
1.4205942747208688553e-05
1.419398408048502782e-05
1.4170616298253040023e-05
1.4108607562799284869e-05
1.4014581926827969957e-05
1.3942966967283394655e-05
1.3897604589188991005e-05
1.3875089144600262546e-05
1.3865343714376911885e-05
1.3867059946629311539e-05
1.3912851939386380496e-05
1.4074186647904855883e-05
1.4257234246395634247e-05
1.4400436076328016274e-05
1.451053416214204432e-05
1.4596179952781300883e-05
1.466456490171360642e-05
1.4720963573744201517e-05
1.4765895276685782187e-05
1.4798857098765177276e-05
1.4819444387958336589e-05
1.4828173011494429439e-05
1.4826282640497574636e-05
1.4817058926306841347e-05
1.3494026620808754151e-05
1.3477018869380618106e-05
1.3463836538213010084e-05
1.3447186487408276212e-05
1.3434209304027054158e-05
1.3417497472652832865e-05
1.3404329070163920705e-05
1.3387169479723270689e-05
1.3373505764027516813e-05
1.3355847408601816183e-05
1.3341792754069888341e-05
1.3323860585937863772e-05
1.3309760641222838148e-05
1.3291765148828125207e-05
1.3277737030382768065e-05
1.3259619273456331372e-05
1.3245812314745149997e-05
1.3225877109685354419e-05
1.4698256216126921899e-05
1.4789831666246382121e-05
1.4868975004453515655e-05
1.4928264457812141964e-05
1.4964423683845539493e-05
1.4978023064553430381e-05
1.4974963516897790537e-05
1.4963863685720319655e-05
1.4943866938048668295e-05
1.489026929772293191e-05
1.4787106294147699269e-05
1.4709824682327915814e-05
1.4665581561892233333e-05
1.4646583781353726057e-05
1.4639325663594361524e-05
1.465234108861688251e-05
1.4737563666548354155e-05
1.4909336156852851212e-05
1.5048287079028393199e-05
1.5153502539964262995e-05
1.5233943043182221694e-05
1.5301290782710008593e-05
1.5362505369701723784e-05
1.5420091614218271324e-05
1.547226564212965169e-05
1.5513223461110918386e-05
1.553920187817090293e-05
1.5549108064872025871e-05
1.4229953759140340439e-05
1.4211892646570240412e-05
1.4197662694630922673e-05
1.4179896517055369203e-05
1.416585070591728288e-05
1.414816351054041835e-05
1.413395273350006715e-05
1.4115829597738420581e-05
1.4101116598137247122e-05
1.4082257352770863643e-05
1.4067055523678260025e-05
1.4047722354986527175e-05
1.4032489422428176708e-05
1.4013128823473421729e-05
1.3998028108166509271e-05
1.3978666403377759632e-05
1.3963862098356958938e-05
1.3944041928743037076e-05
1.5272052009787060204e-05
1.5351430303641130687e-05
1.5425864762198696832e-05
1.5487146027851621022e-05
1.5529330288579963761e-05
1.5550081781907386028e-05
1.5551254645598943126e-05
1.5541395783326474055e-05
1.552547210173678077e-05
1.5486266104225325307e-05
1.5424217659013798442e-05
1.5385669056546075694e-05
1.5368242766387473533e-05
1.5362318947293095931e-05
1.5386551107105766442e-05
1.5511922146112353156e-05
1.5671539767956455788e-05
1.5767814895034023165e-05
1.5814936881435544594e-05
1.5834665649044017336e-05
1.5848894928725385694e-05
1.587162290467616086e-05
1.5910988413044271027e-05
1.5966905909579298233e-05
1.6033943703140809647e-05
1.6103631402139300977e-05
1.616315584367803771e-05
1.4828896996873650244e-05
1.4809471069250251037e-05
1.4793000663668529269e-05
1.4773624672755129896e-05
1.4757286108764724366e-05
1.4737442160503480798e-05
1.4720741189004151898e-05
1.4700252848366332164e-05
1.4682867947852727065e-05
1.4661842851756328924e-05
1.4643986203450074269e-05
1.4622893065665224039e-05
1.4605190170396499581e-05
1.4584155291433562897e-05
1.4566905314224215374e-05
1.4545776402760359752e-05
1.4528333045516233338e-05
1.541089519180165754e-05
1.5399197973564597477e-05
1.539984576320651893e-05
1.5449407001268154678e-05
1.5638277423148491441e-05
1.5875763279726596715e-05
1.6059387158829345347e-05
1.6184771947073950654e-05
1.6253878958537519952e-05
1.627974637528369203e-05
1.6279594533527106407e-05
1.6270669079208095758e-05
1.6263068437691176289e-05
1.6267162335462223479e-05
1.6320352279886895012e-05
1.6425354433100777953e-05
1.6489735250064066642e-05
1.6508902416290394133e-05
1.6499813897322445001e-05
1.6474171256520343018e-05
1.6387000705539455264e-05
1.624102171599173933e-05
1.6143204562383733143e-05
1.6092688135565413914e-05
1.6072677671216791597e-05
1.6066045763273245297e-05
1.6089332268187262896e-05
1.5133299465959717641e-05
1.5116374732488546632e-05
1.5092904273060743793e-05
1.5075822326424494403e-05
1.5051848840421624799e-05
1.5034190955512775426e-05
1.5009389627446745915e-05
1.4991305347059487082e-05
1.4966175262150223206e-05
1.4947834623704712116e-05
1.4922651411972957423e-05
1.4904394218862801276e-05
1.4879455749116051033e-05
1.4861532688037343907e-05
1.4832816997827156713e-05
1.4825658645479227531e-05
1.2196233509662586137e-05
1.2176998199579009251e-05
1.2166209293511324376e-05
1.215910803733977415e-05
1.2161548792127129811e-05
1.2195553137437775755e-05
1.2328030940064674739e-05
1.2622965897193838783e-05
1.2907538795442579686e-05
1.3144872009720531676e-05
1.332292613515436794e-05
1.3441328206973152335e-05
1.3510993042423986434e-05
1.3545552487361043215e-05
1.3555168761975260091e-05
1.3549403493041216724e-05
1.3536960402165141231e-05
1.350829108080344098e-05
1.342295870696582083e-05
1.3232501411856038682e-05
1.3058302877044951338e-05
1.292442179039313672e-05
1.2831648806387116406e-05
1.2774434663424424593e-05
1.2744328243108282324e-05
1.273030367151072464e-05
1.272291656200840037e-05
1.2726198434000090051e-05
1.1804343160636231508e-05
1.178619842721743021e-05
1.177290163159621385e-05
1.1754349305803116698e-05
1.1740702873426136168e-05
1.1721722478827542244e-05
1.1707829558832063145e-05
1.1688772952300694935e-05
1.1674826099053477773e-05
1.165582880238131003e-05
1.1641974928054115438e-05
1.1622891296757322744e-05
1.1609117720989718464e-05
1.1587129353862098756e-05
1.1584405470768424201e-05
1.1770938835244962545e-05
1.1761406450966765348e-05
1.1754276702533586534e-05
1.1751564354324987415e-05
1.1757598935230325981e-05
1.1782565262773534253e-05
1.1848946385671707486e-05
1.1947590371932082339e-05
1.206603199843812059e-05
1.2193493090800886956e-05
1.2320959743664709572e-05
1.244156406171260754e-05
1.2548273096829729354e-05
1.263266759972670776e-05
1.2686942307881492656e-05
1.27083142016566048e-05
1.2706349340694106704e-05
1.2694703871618162044e-05
1.2663964673897140314e-05
1.2574344768190711815e-05
1.2465949342941027341e-05
1.2389071681560985446e-05
1.2339859291351859216e-05
1.2312322061590604024e-05
1.2298160635970579351e-05
1.2289855035985104722e-05
1.2286300700991574885e-05
1.1235485997626467437e-05
1.1223160149761815223e-05
1.1206281498988763772e-05
1.1193633835724816139e-05
1.1176410871435384667e-05
1.1163634489487162741e-05
1.1146473057361981136e-05
1.1133744041945796782e-05
1.1116635633062403019e-05
1.1104005759210856295e-05
1.1086780261249691508e-05
1.1074204774790785249e-05
1.1054892127879106434e-05
1.104663800460927296e-05
1.1319078335030541093e-05
1.1380636306203263474e-05
1.1423987944804688617e-05
1.1449503835236193299e-05
1.1461201362395611949e-05
1.1468304849424405088e-05
1.1485433546633543061e-05
1.1532597841701317472e-05
1.1614717832437840056e-05
1.1716563413551491217e-05
1.1827163218981379369e-05
1.193258712657850063e-05
1.201856921286238894e-05
1.2073971868739124291e-05
1.2095615130794859431e-05
1.2093976580153610186e-05
1.2082118045783431823e-05
1.2046957723030175631e-05
1.1960124754708776698e-05
1.1885142849863391523e-05
1.183936116121076353e-05
1.1816027831548070849e-05
1.1805009788323425962e-05
1.1799270905817328841e-05
1.1806747685141024255e-05
1.1842237643711803457e-05
1.0817837389100789296e-05
1.0801599073038164315e-05
1.0789493162130901494e-05
1.0773006338419636996e-05
1.0760773916634249156e-05
1.074432250729881988e-05
1.0732156166379624019e-05
1.0715658586633133485e-05
1.0703561263670850181e-05
1.0686946669809441524e-05
1.0674891501487169775e-05
1.065674205875874063e-05
1.0647989486573594334e-05
1.0972735643800181658e-05
1.0983954070790369657e-05
1.1008152595523548522e-05
1.1046367646152674698e-05
1.1095602758476761984e-05
1.1151006977330119919e-05
1.1207181414877072712e-05
1.126040302949152018e-05
1.1310587232495462632e-05
1.13580144131096137e-05
1.1401639610641004606e-05
1.1437625407570142035e-05
1.1460907027196982604e-05
1.1467974537606927482e-05
1.1463683521655151053e-05
1.145384380013062179e-05
1.1430726611754091158e-05
1.1393981425826916283e-05
1.1369843030447310893e-05
1.1356736883122889344e-05
1.1349099904950403972e-05
1.1348768340812318583e-05
1.1369613424871034417e-05
1.140302855654084553e-05
1.1437705082720355993e-05
1.0391005929055622886e-05
1.0379458107561098418e-05
1.0363654674926119661e-05
1.03519275679373636e-05
1.0336099757482601139e-05
1.0324455433229338838e-05
1.0308479377791673952e-05
1.0296861470458246342e-05
1.0280832593240609728e-05
1.0269291918974285028e-05
1.0251824735224138771e-05
1.0243494331036899432e-05
1.0569147550934051251e-05
1.0598269092650395025e-05
1.0640344388137549768e-05
1.0692824696084604342e-05
1.0748665216375566072e-05
1.0799803753952548564e-05
1.084181022352453323e-05
1.0876488994946674154e-05
1.0911411025525605877e-05
1.0951710792618650711e-05
1.0997212152381301585e-05
1.1039077157247463156e-05
1.1067597482661606953e-05
1.1077205201372982622e-05
1.1073268086095791794e-05
1.1063696818342156998e-05
1.1042677573334552628e-05
1.1008380600303696315e-05
1.0983671811443482624e-05
1.0968761492741426134e-05
1.0959368858915590899e-05
1.0952939702004392723e-05
1.0954381813552226184e-05
1.0982014750225398418e-05
1.032691677156476274e-05
1.0350339330302884557e-05
1.0365542426408497375e-05
1.0377995225700405122e-05
1.039323530233679578e-05
1.041667992501547324e-05
1.0452785506320747496e-05
1.050428428428585468e-05
1.056877990470337053e-05
1.0635313364537961041e-05
1.069007467981527227e-05
1.0721513492756613867e-05
1.0728685360009566942e-05
1.0722288638601253948e-05
1.0706593988213137115e-05
1.0659809856328165295e-05
1.0597027261435422403e-05
1.0555992506378228957e-05
1.0533797562308298072e-05
1.0522549954677953518e-05
1.0515991435773412382e-05
1.0516878879078135601e-05
1.0544564311675197536e-05
9.9825762479167529263e-06
1.0025622914812033646e-05
1.0073172517470239349e-05
1.0119013329627282513e-05
1.0158464566727900961e-05
1.0191137431432044903e-05
1.0216842384430434792e-05
1.0235806077325227008e-05
1.0245039623103791615e-05
1.0244194654725010635e-05
1.0237323368443628711e-05
1.0222742132927739434e-05
1.018135530975267012e-05
1.012969942514659314e-05
1.0097263724991773929e-05
1.0080142877817251963e-05
1.0071178503203696044e-05
1.0065395051859934273e-05
1.0066430159431876383e-05
1.0088576062882514359e-05
1.0143214959230815932e-05
9.828969256218380031e-06
9.8441214457340362983e-06
9.8434257859511988377e-06
9.8370661270735934649e-06
9.8293873122913378264e-06
9.8192567450361677308e-06
9.8039238687954520621e-06
9.7852855973689509207e-06
9.7664401805861737526e-06
9.7510477829862743734e-06
9.7407439395287408478e-06
9.7338887029011930631e-06
9.7293700625126306944e-06
9.7295129358126491217e-06
9.7329714571712157848e-06
9.7467703293915543749e-06
9.7800174173967937847e-06
9.484726729935413089e-06
9.5270865577240285805e-06
9.5504036327942125166e-06
9.5548037587309909768e-06
9.5487772949601804176e-06
9.5361399033918650399e-06
9.503443534372163498e-06
9.4681045131692335748e-06
9.4469130784781343569e-06
9.4354304527596270254e-06
9.4283916694567281811e-06
9.4242416409698982283e-06
9.4301197459849439738e-06
9.1517847781419151134e-06
9.156874589359986026e-06
9.1510350677148225094e-06
9.1373013766636313322e-06
9.0978403904811593251e-06
9.0510216847305952721e-06
9.0228675982897107094e-06
9.0088477888866403824e-06
9.0016339144449221827e-06
8.9977555487497941616e-06
9.0042769995546452391e-06
9.0294610079969656307e-06
4.9935243662720451766e-06
5.0630850626002753991e-06
5.244096009711466736e-06
5.4109209036550167803e-06
5.5152622042662132002e-06
5.5623872018667916238e-06
5.5711876211172378363e-06
5.5654418008914675707e-06
5.5432670893000693434e-06
5.4717588200035634447e-06
5.3978635504107268478e-06
5.3580308946957865685e-06
5.3433755655641439932e-06
5.339647478106975334e-06
5.3444510461142460158e-06
5.3607126511624571328e-06
5.3642558859551156165e-06
5.3603650332742125805e-06
5.3505039261734570031e-06
5.3248043142813813945e-06
7.5413528336254624898e-06
7.6010521568024117135e-06
7.7823831332865062795e-06
8.0179540580152882404e-06
8.1937125958520169462e-06
8.2958515648835778758e-06
8.3343527656311918589e-06
8.3353268935644048268e-06
8.3229197520874417966e-06
8.2803016027734179872e-06
8.158826030411398298e-06
8.0418121826289848137e-06
7.9741315522827105019e-06
7.9454239958049956469e-06
7.9366931626444566948e-06
7.9350325077362127862e-06
7.9392998929518545249e-06
7.9356601605541852827e-06
7.9275935993807788868e-06
7.9072815628722697756e-06
7.8726871901649134368e-06
7.8520739209657454741e-06
1.3734035770385518658e-05
1.3828493938553775385e-05
1.4039711127457005446e-05
1.4262205439614857342e-05
1.4441626424166874879e-05
1.4549180907165770973e-05
1.4588539376248312648e-05
1.4587530912136202046e-05
1.4571625457925052176e-05
1.4526065212110633669e-05
1.4435135146861053341e-05
1.4374284532018841365e-05
1.4348573623238646311e-05
1.434034796506350458e-05
1.4349377517110924752e-05
1.4417089006372890724e-05
1.4526193629392130104e-05
1.4595608729229634306e-05
1.4626502898703559738e-05
1.4630024314626782788e-05
1.4622649435343367937e-05
1.4615348959309866568e-05
1.4613320000064344901e-05
1.4627821570698930982e-05
1.4693831279732144253e-05
1.4891775422469341248e-05
3.1112490394708676412e-05
3.137757067098694816e-05
3.1709912265791700698e-05
3.2070728366379331882e-05
3.2399024245811825927e-05
3.2648846362109130146e-05
3.2797920912716646937e-05
3.2858067080587235803e-05
3.285881355836864549e-05
3.2836565620847009449e-05
3.2809755747623353759e-05
3.278790236951513871e-05
3.2779039133509467745e-05
3.2811137209343687606e-05
3.2964250474916623667e-05
3.3207080048420117889e-05
3.3409097658351550643e-05
3.3553168267459003156e-05
3.3641629088960793255e-05
3.3702100390440349077e-05
3.3775924079616599584e-05
3.3893539876488934742e-05
3.4079337754435351559e-05
3.4325361385445312366e-05
3.4604996676585822479e-05
3.4867107504533246609e-05
3.5068675180442171891e-05
3.5187626532438398119e-05
6.396707668127326208e-05
6.4114021791181912725e-05
6.4256315707417595252e-05
6.4374184350509484811e-05
6.4451261957056479998e-05
6.4479005814010247164e-05
6.4465153620611118784e-05
6.4429054073238836253e-05
6.438803296499840084e-05
6.4351433506762111534e-05
6.433465881252944398e-05
6.437467511662078748e-05
6.4464181557400378197e-05
6.4567594280436825418e-05
6.4669778487713705712e-05
6.4751430096091436035e-05
6.4800637065397454287e-05
6.4819815723533876612e-05
6.4820106775054339883e-05
6.481316682751759792e-05
6.4821855392248483208e-05
6.4852109770955490434e-05
6.4904043119416661477e-05
6.4963161831262523612e-05
6.5009224517347259762e-05
6.5025807408602455395e-05
6.5003754932286864315e-05
6.4956352218270858715e-05
6.4892540671808879868e-05
6.4785408778378507757e-05
9.2406469834154921438e-05
9.2239226209712537599e-05
9.2050253522587378386e-05
9.1834788275557176023e-05
9.1596135798339433265e-05
9.1344523810375403234e-05
9.1093086637905878056e-05
9.085442695734116691e-05
9.0637288849990495839e-05
9.0444615310844827649e-05
9.0272659634322620034e-05
9.0113653290407945244e-05
8.9958597894820548557e-05
8.9799851763535813763e-05
8.9633158655331616549e-05
8.945774926595426071e-05
8.9274934037154477862e-05
8.9086971554699071656e-05
8.8896458104458132713e-05
8.8704660457398064473e-05
8.8510836530385764891e-05
8.8313094004936436971e-05
8.8108555305657756994e-05
8.7895139528658712135e-05
8.7671521657192887219e-05
8.7439281241830606314e-05
8.7202474724922129251e-05
8.6967774589532254579e-05
8.674273915715333507e-05
8.6532774316440221377e-05
8.6340260532701888188e-05
8.6162176599357132977e-05
0.00010605073562338776852
0.00010570497729474304625
0.00010536031751070882689
0.00010501611859181887254
0.00010467408406911291215
0.00010433667441550798947
0.00010400510674779928457
0.00010367987590586226682
0.00010336166053397215236
0.00010305051243127415521
0.0001027453616444853066
0.00010244421634993293381
0.00010214515602734713505
0.00010184780112643212243
0.00010155271847369151737
0.00010126016378918912359
0.00010096925574131677017
0.00010067806574113096418
0.00010038528035784178205
0.00010009184857657943434
9.9799926760032591508e-05
9.9512451004624575277e-05
9.923149536681997757e-05
9.8957398368527518307e-05
9.8689073688672015994e-05
9.8424491618449947306e-05
9.8161669441087956206e-05
9.7900636633630356166e-05
9.7642715756787956888e-05
9.73888113080593321e-05
9.7138146321070308661e-05
9.6888423218524663094e-05
9.6637204457366093443e-05
0.00014155986450628348615
0.00014074550161943257757
0.00013994852709738395125
0.00013916225786080065789
0.00013838271786241465784
0.00013761365622885456659
0.00011144475806499528335
0.0001110864092877110362
0.00011073014269999771131
0.00011037381699737610545
0.00011001865051229907301
0.00010966644997317269894
0.00010931888127671889022
0.00010897731723108983681
0.00010864274821811342384
0.00010831614899524666655
0.00010799720634508304525
0.00010768398581601690462
0.00010737441996974262228
0.00010706834159017694663
0.00010676714932269791331
0.0001064714947960316389
0.00010618009819369078476
0.00010589121683931731457
0.00010560392753828628794
0.00010531860367726332604
0.0001050373321431539406
0.0001047627994308840372
0.0001044962051331631926
0.00010423648219566314171
0.00010398136382865828765
0.00010372847748958615322
0.00010347669374894695785
0.00010322717934643354382
0.00010298200857370700886
0.00010274249133322661343
0.0001025076880967656554
0.00010227442850753803668
0.00010203948136479262039
0.00010180284072835482547
0.00013742208742314668398
0.00013659070591050088907
0.00013576914646097856571
0.00013495647670814478773
0.00013414839120490189132
0.00013334795232591557758
0.00013256473272953606286
0.00010929144352220472906
0.00010901493774723847304
0.00010872699668185232722
0.00010843515646026667296
0.0001081500369140149081
0.00010787975876690732537
0.00010762805989646266104
0.00010739517983783674498
0.00010717966062978430083
0.00010697661025842165015
0.00010677850222064176903
0.00010657880647629760368
0.00010637578049195604206
0.00010617089931679650982
0.00010596461031532347045
0.00010575495599599274064
0.00010553914413860772707
0.00010531689605689288928
0.00010509292641058697222
0.00010487489689218023377
0.00010466795998507432265
0.00010447102194772127891
0.00010427797630259552164
0.00010408077953763559349
0.00010387283446479100575
0.00010365299705266352499
0.00010342562596217839228
0.00010319710262346854207
0.00010297181033876145193
0.00010274889224101376502
0.00010252459785800141002
0.00010229783010565015222
0.00010207405292638451952
0.0001018627320794474999
0.00010167244032790625607
1.3881990677243623603e-07
1.3843666313482602524e-07
1.3804378551862337389e-07
1.3772754128843150381e-07
1.3751938472355930555e-07
1.373866965619094219e-07
1.3731484854894941404e-07
1.3730337873495364371e-07
1.3738787963425879725e-07
1.3745128543560342793e-07
1.3732955643241844938e-07
9.1310535688812287669e-07
8.8845465747981271555e-07
8.6255507296395724953e-07
8.4502767782903358421e-07
8.3629056947975218773e-07
8.3424524001902032388e-07
8.3613252593775638076e-07
8.5181905952388388393e-07
9.037280960645202815e-07
9.4957092724933534459e-07
9.700256801312280723e-07
9.7418308611380795877e-07
9.7224314803644127672e-07
9.6203988378066855415e-07
9.3978069468269208272e-07
9.2543301500762644705e-07
9.1933863937344487371e-07
9.1789910133726231624e-07
9.1842457773830977776e-07
9.2450403242260412799e-07
9.4726495744981479048e-07
9.7959708747990687639e-07
1.0048015188058928732e-06
1.0205982137583350415e-06
1.0265752895314357589e-06
1.026447512135224162e-06
1.0225488876885204129e-06
1.0157619479536981187e-06
1.0145945922631541473e-06
1.0209238870667002223e-06
1.0593042150948483205e-06
1.149513409069924058e-06
1.2091385388120498813e-06
1.2343394515665393044e-06
1.2389269825032101521e-06
1.2361305889759332638e-06
1.5344951455253946852e-07
1.5189396660985247819e-07
1.5046724938672464128e-07
1.4916262209007134183e-07
1.4804257045359238961e-07
1.4717545089787926026e-07
1.4659092304497271553e-07
1.4624559156871115245e-07
1.4596980326395251576e-07
1.456646544969567348e-07
1.4527112178547434457e-07
1.4484321148972249426e-07
1.4444580776171598696e-07
1.4414779343499696459e-07
1.4395082098711305768e-07
1.4382442693509900393e-07
1.4377355479681146149e-07
1.4380258916580757161e-07
1.4380332459517020646e-07
1.4375769856030572905e-07
1.4360375998622099369e-07
8.6233131122081636496e-07
8.6162746485612736043e-07
8.5975080461855688476e-07