/*--------------------------------*- C++ -*----------------------------------*\
  =========                 |
  \\      /  F ield         | OpenFOAM: The Open Source CFD Toolbox
   \\    /   O peration     | Website:  https://openfoam.org
    \\  /    A nd           | Version:  12
     \\/     M anipulation  |
\*---------------------------------------------------------------------------*/
FoamFile
{
    format      ascii;
    class       volScalarField;
    location    "0.0105";
    object      p;
}
// * * * * * * * * * * * * * * * * * * * * * * * * * * * * * * * * * * * * * //

dimensions      [1 -1 -2 0 0 0 0];

internalField   nonuniform List<scalar> 
106891
(
100800.54590512157301
100792.77665499781142
100789.17202322851517
100790.45437649278028
100796.73658424527093
100807.40094490375486
100821.03455945316819
100835.57594800417428
100848.67675882687035
100858.17625367853907
100862.37195771529514
101158.6647595911345
101120.07370528423053
101087.58084044672432
101063.05749465111876
101044.32544113793119
101028.12565133308817
101013.7587534297345
101003.32891710908734
101000.01482635487628
101005.03824612124299
101015.28953535262553
101024.30679149868956
101026.16615379790892
101017.74653115795809
101001.0600841603009
100981.0978242422716
100963.33154322220071
100951.26117890952446
100945.34819142460765
100944.43255805670924
100946.69523926063266
100949.59966101641476
100949.9133022542228
100944.08988403795229
100930.50589597797079
100911.10098486697825
100891.73012865083001
100878.62467917762115
100874.54481627288624
100877.30952413000341
100882.10633559261623
100885.23302778718062
100886.43231361602375
100887.93327615913586
100891.97929971222766
100897.9243830532796
100902.29559467980289
100901.64374433795456
100906.09974765848892
100902.06575246398279
100896.42343578962027
100889.15067174086289
100880.32822280187975
100870.05032602380379
100858.44707682951412
100845.88476587866899
100833.11704993544845
100821.23324502879404
100811.51515509233286
100805.27160642489616
100803.55498122208519
100806.83953364682384
100814.81963082890434
100826.36273867212003
100839.59758709181915
100852.23065521041281
100862.02612926797883
100867.26927695305494
101144.14633837220026
101112.02430071313574
101088.47649625342456
101071.17257148391218
101055.76689832197735
101040.78943283823901
101028.1392744534096
101021.68478266474267
101024.77393748691247
101035.89040911031771
101048.8825693444669
101057.16715207073139
101055.45590095125954
101043.09964837263396
101024.17034512787359
101004.4206079107098
100989.11182775734051
100980.69665650138631
100979.22642732750683
100982.54405637884338
100986.58459502218466
100986.49190419666411
100977.32048708855291
100957.66209032344341
100930.35618291015271
100902.13100115415
100880.71857953073049
100870.88442894647596
100872.85953669845185
100882.93813037275686
100895.9632994987187
100908.24587658309611
100917.74169466318563
100923.45892586704576
100924.4327743370377
100919.63385644233495
100899.44624161405955
100899.82866638837731
100899.02349438142846
100896.60666266108456
100892.24796268728096
100885.70288655614422
100876.8887230312248
100866.06398840159818
100853.94560189443291
100841.6425431198877
100830.48575111430546
100821.87551461921248
100817.09025609990931
100816.98422274063341
100821.67937694441935
100830.41380768503586
100841.57713071680337
100852.99758610126446
100862.36828195814451
100867.90849028206139
101169.12374031671789
101141.04233416088391
101119.89710663726146
101103.2716425673425
101088.12555588585383
101073.14517310491647
101059.91134218643128
101052.4954602929065
101054.46117910151952
101064.88175366231008
101078.66162573135807
101089.27002972163609
101091.20295708262711
101082.53990330699889
101066.26121765158314
101047.46426591192721
101031.46812452757149
101022.14732643832394
101019.91870745284541
101022.48612404913001
101025.82462931629561
101023.80653984854871
101011.61572128567786
100987.29765834411955
100954.28059069039591
100919.15853061457165
100890.55472957914753
100874.59923944596085
100874.14658631954808
100886.97814567823661
100907.28048292292806
100928.28908608136408
100943.50983485519828
100948.65221144523821
100942.79944491022616
100928.24175084929448
100887.37167652815697
100890.65800758781552
100893.02905283664586
100893.76964086208318
100892.24703588479315
100888.05910142703215
100881.07860076516226
100871.58138685900485
100860.41006836412998
100848.91831772448495
100838.67763017550169
100831.17179272169597
100827.53424739118782
100828.3006513658911
100833.18562135579123
100840.99384458996064
100849.85230114974547
100857.57733149961859
100862.45073692027654
101174.2714468640188
101156.52624814840965
101140.07774589401379
101124.08485961587576
101109.55269133698312
101098.22918625627062
101092.98910144341062
101095.65290924352303
101104.30887917715881
101114.93927202360646
101122.69750305941852
101123.07402471829846
101115.2872915603366
101101.58923366879753
101085.73505275772186
101072.00379490872729
101063.78181240732374
101061.73135774182447
101063.32087460033654
101064.1081116792775
101058.8159106738749
101043.38198330508021
101016.28289811432478
100980.52033647951612
100942.37415793709806
100909.75858790450729
100889.68646768070175
100886.13613036154129
100898.451385499764
100921.00238812743919
100944.55952087620972
100959.76084393759083
100960.69207979930798
100947.43046069362026
100856.70642828477139
100861.64854870109411
100867.41960888421454
100873.63228819851065
100879.61444986559218
100884.37739737224183
100886.83233009626565
100886.08969613915542
100881.72492894805328
100873.96949808417412
100863.79970220156247
100852.78288869574317
100842.76508600932721
100835.41127536633576
100831.77012323030795
100831.9851070214936
100835.27120216737967
100840.16576086766145
100844.79512935216189
100847.63676231294812
101210.49567986452894
101196.21734094238491
101179.60735603416106
101162.50956393496017
101148.6122325861943
101140.67328174659633
101139.46132193038648
101143.76824861908972
101150.17349946404283
101154.79130199766951
101154.60355378374516
101148.4140274785168
101137.70407644560328
101125.32278916207724
101114.11351843058947
101106.1625746566715
101102.46109212729789
101102.00792064725829
101102.22283183972468
101098.92576348685543
101088.46958843950415
101069.0298993352917
101040.27887654624647
101004.91632440022659
100968.14371425707941
100937.07544381689513
100916.72770892859262
100911.00233694931376
100919.57857078261441
100936.53409155683767
100953.19485672406154
100960.67350047644868
100954.33962433238048
100822.04640406279941
100828.86977542638488
100838.21640965237748
100849.29355806589592
100860.81247999284824
100871.14135228490341
100878.53590809532034
100881.53211541158089
100879.4168130732869
100872.49585305061191
100862.05380575725576
100850.00526270829141
100838.42876615239948
100829.07670937826333
100822.95902466226835
100820.10589338871068
100819.6967276022333
100820.26190114485507
100820.41256654223253
101234.00516012992011
101218.39181423888658
101202.04116837796755
101189.42481571703684
101184.20694147197355
101186.08345540230221
101190.69413363082276
101193.02291903727746
101189.18388997623697
101178.4138372537127
101163.41612632763281
101148.75758226207108
101137.85007506914553
101133.12465464331035
101133.89356943148596
101137.30778376066883
101139.70109367503028
101137.48044156900141
101127.93106493602681
101110.00388001358078
101084.17804489412811
101053.64880443914444
101021.32108706522558
100991.63828772986017
100967.70379735979077
100952.04045005560329
100945.71434974903241
100946.68727635797404
100950.52352577271813
100951.94674742138886
100945.85776392018306
100930.92722785947262
100773.35639613930834
100779.7565136973717
100791.13267357496079
100806.76145195575373
100825.00330534065142
100843.39347529705265
100859.14383827900747
100869.8332760182966
100873.9504834717518
100871.16336635453627
100862.29022625657672
100849.08880247999332
100833.86868713727745
100818.9873906862631
100806.25506298137771
100796.52271651868068
100789.73506141680991
100785.08929498262296
100781.64017198821239
101252.90158188973146
101240.18973953879322
101230.41233493176696
101225.97472100715095
101225.63652587785327
101225.11957852986234
101219.69967180164531
101206.68526056729024
101187.35168125979544
101166.59814708784688
101150.38350634725066
101144.20784610482224
101148.44385624733695
101159.2230103010661
101169.93020001138211
101173.97652918480162
101166.90891050903883
101147.89296192528855
101119.78648275212618
101086.60538379162608
101053.52118363551563
101025.58881788526196
101005.6450993559265
100992.77141408265743
100985.23572639620397
100978.71716932291747
100970.23950240190607
100958.16725788111216
100941.29332742685801
100921.01295274615404
100729.41063927162031
100741.7342936405621
100760.2998702062323
100783.03687019986683
100806.93212368804961
100828.68086746170593
100845.25580688130867
100854.40103100640408
100855.10899420609348
100847.86206410326122
100834.42357059876667
100817.23854044431937
100798.80790151223482
100781.23986380967835
100765.99342707802134
100753.85197067025001
100744.82642459995986
100738.47049148901715
101273.62496644649946
101267.0180081842409
101258.99655402335338
101249.9937089158484
101238.87977244069043
101223.76505396573339
101203.7146445211838
101180.86145490864874
101159.67612809942511
101147.91321096764295
101150.05576406998443
101164.393237477605
101184.06519465340534
101198.71038259027409
101199.88550159989973
101184.40924158474081
101154.25680149675463
101115.40724842471536
101075.74080610126839
101041.58863059525902
101018.66914620496391
101006.58037373247498
101002.50835291370458
101000.49007760001405
100993.76255253262934
100978.47655978039256
100954.48552683382877
100925.6372476490651
100687.13505773564975
100699.01532973196299
100717.48770197459089
100740.5065514012822
100765.20007207080198
100788.27551838126965
100806.54737939569168
100817.56943903623323
100820.15797787587508
100814.52567678400374
100802.0479480795766
100784.82536552482634
100765.26991220307536
100745.7376467918657
100728.17313158125035
100713.94988544906664
100703.53689181622758
100696.76217595544585
101286.33471943945915
101272.18983612871671
101252.79164338771079
101231.52953023236478
101209.87655425901175
101187.72540409956127
101166.34793673396052
101150.3502591716242
101145.55453381402185
101154.22411943007319
101174.838206681874
101197.00850681574957
101208.68818403681507
101203.08210885990411
101179.11342537529708
101141.79004049838113
101099.40572838223306
101059.84384333956405
101028.83765760363895
101009.1377890825097
100998.6580241250922
100993.89577225061657
100989.86948044213932
100980.82092867360916
100963.5984859194723
100939.38342298570205
100912.5186093418888
100663.33437066675106
100678.65809085188084
100697.88129524856049
100718.53366516267124
100737.85181541134079
100753.23024408338824
100762.68678141426062
100765.16367882481427
100760.62035437027225
100749.94761799828848
100734.82829576625954
100717.45923761023732
100700.1255819859216
100684.73659823369235
100672.62393143169174
100664.38410491684044
100660.21105194030679
101280.08213317059563
101272.14474144595442
101252.59464540889894
101228.81546002988762
101207.08197049156297
101188.69665277819149
101172.43021865270566
101156.90001730465156
101144.44314733482315
101139.75779692440119
101146.14626622320793
101160.2704109637707
101174.60540103982203
101179.48385178613535
101168.8324228948768
101143.806934978551
101111.4765431494161
101079.45759344095131
101051.64675587633974
101028.71961533740978
101008.06101119256346
100989.45051377333584
100972.68221774439735
100957.89468599150132
100945.40043841607985
100933.51207551888365
100920.71501440370048
100641.68291215947829
100654.81071881562821
100669.08438837963331
100682.26762274453358
100692.37537137077015
100698.00319714937359
100698.45112685035565
100693.75901664643607
100684.75224283845455
100672.88167177035939
100659.9545179012639
100647.77013998982147
100637.84429473034106
100631.35881368040282
100628.89231309790921
100630.62467307003681
101239.42045987078745
101224.50185687876365
101202.56385193274764
101182.77224713753094
101170.86079999781214
101166.43702810854302
101163.61169754847651
101156.3677759309212
101144.52115982858231
101131.37886282113323
101122.59187460009707
101119.05795888947614
101117.96911419265962
101114.56921286520083
101104.9638468149642
101090.99169089224597
101076.82824023466674
101064.34745948098134
101053.27201621199492
101039.34944707597606
101018.39953872945625
100990.28245629511366
100960.39346178979031
100935.19045029385597
100918.16667358066479
100908.86832163621148
100904.55643631071143
100902.14353802140977
100626.14377991219226
100635.91801506943011
100644.53926629197667
100650.33640530676348
100652.21528203450725
100649.79347490068176
100643.47657581530802
100634.38900185018429
100624.10671030126105
100614.32357538799988
100606.5778713888285
100602.05018256029871
100601.50489039922832
100605.00739058526233
100612.30002732094727
101170.99775478796801
101148.35599442380772
101134.5757138178451
101134.04600326635409
101143.7785818715347
101153.82248176141002
101154.55355202633655
101142.73908545910672
101121.15253699116874
101096.94807471925742
101076.0138035096752
101060.86613725889765
101050.78748579218518
101045.17794853508531
101044.5008144195308
101047.92558896823903
101053.27790143554739
101055.30488213516946
101047.23876894463319
101025.40443918074016
100992.96420049756125
100956.94972889199562
100926.67674213481951
100907.59681139535678
100899.15164507536974
100897.22379175659444
100897.23731655318988
100618.78605877576047
100625.11595069769828
100628.26608373368799
100627.38027947326191
100622.47833007763256
100614.40149201470194
100604.61374114645878
100594.88247630099067
100586.92593380995095
100582.14556480583269
100581.38327870216744
100584.90225669728534
100592.2138594477874
100602.53476644550392
101094.79864739757613
101087.99837051863142
101097.98492497830011
101118.74256137265183
101137.85806759806292
101144.19953214679845
101131.84586482950544
101104.01249698201718
101068.05862049167627
101034.09812297452299
101008.35804999954416
100994.674656246003
100994.70079209114192
101006.3391991166427
101024.91387161608145
101043.58960642507009
101053.67730544909136
101048.51868098253908
101026.48588066575758
100993.34391796331329
100957.88400962317246
100928.433471830911
100909.51762150296418
100900.37914164355607
100896.25782897128374
100892.88813251980173
100620.83731547392381
100622.12093259926769
100618.8773694938136
100611.63026922769495
100601.73305230835103
100591.0413912623917
100581.49790202113218
100574.77863272049581
100572.00731982354773
100573.56429322929762
100579.13848195825994
100587.71739636035636
100598.17834826959006
101050.39834301813971
101067.99191705236444
101094.76037509224261
101117.46095938766666
101124.48551999198389
101110.81333990859275
101079.02812449225166
101037.62307586887619
100997.61594976921333
100967.95496101022582
100954.93272610622807
100960.51102968926716
100981.25739873365092
101009.59829618921503
101034.76176425097219
101047.05761402352073
101041.76786683202954
101020.66584973834688
100990.60721747968637
100960.32258127960085
100935.8136592964147
100918.8677529382403
100907.79859189527633
100898.8244438306865
100889.38154611781647
100630.13026571276714
100625.2209187552653
100616.12890832252742
100604.7160310424515
100593.19404357457825
100583.59721855405951
100577.39832474476134
100575.32248602859909
100577.30373979003343
100582.58015620133665
100589.83260174901807
100597.80086676338397
101047.1673173901363
101074.53714675363153
101095.15109404368559
101098.88991612665995
101082.73517844697926
101049.64339514820313
101008.04025421701954
100968.63543489048607
100941.27563586094766
100932.16735524358228
100942.4100492788566
100967.99219081865158
100999.35203850806283
101024.71967017938732
101035.42714298558712
101028.99034088780172
101009.6753456882434
100984.99476400576532
100961.95787530665984
100943.65056473930599
100929.24021645037283
100916.21753364571487
100902.46130325658305
100887.84709632460726
101059.50673938912223
101073.94250449670653
101072.07077479260624
101052.5652906667965
101019.81954209563264
100982.11763171419443
100948.18951008081785
100926.43180103636405
100922.20037202372623
100935.82465981216228
100961.99433758933446
100990.91743480633886
101012.32459843499237
101019.30097473050409
101012.204865543099
100996.11546114824887
100978.0218263688439
100962.19636307202745
100948.99719814937271
100936.40143803719548
100922.0719527710462
100905.58310425064701
100888.95164542151906
101047.99096206628019
101026.00730803738406
100995.25505269266432
100962.92492180228874
100935.95375264792528
100920.46789472509408
100920.10611650621286
100934.21826389578928
100957.35404491667578
100980.83784704338177
100996.57351419614861
101000.31070355894917
100993.83514900758746
100982.36247663939139
100970.92984585894737
100961.16918761072156
100951.57822051526455
100939.76275036041625
100924.65265635264223
100907.88936634769198
100893.02860476961359
100931.63611659631715
100920.68869583289779
100921.38721037859796
100932.77177104787552
100950.39433462418674
100967.72545024758438
100978.33494666399201
100980.46801760705421
100976.3527594308689
100970.4800875797082
100965.08846562774852
100959.81982706808776
100952.13498703025107
100940.30026432384329
100925.11463881250529
100910.13556076210807
100899.72035507780674
100940.18284233493614
100951.53609052674437
100958.73260262601252
100961.1306236183882
100960.74289058822615
100960.51535836467519
100960.66643366165226
100958.78832238801988
100952.04994426031772
100939.81171724286105
100925.08937445936317
100913.05321158800507
100908.07007814658573
100934.13803213152278
100939.4398344905494
100943.44946479992359
100947.44579314894509
100952.35306321980897
100957.19667776598362
100958.06433685585216
100951.94933498566388
100939.37716647020716
100925.25051699345931
100916.24205421892111
100916.36971712922968
101120.70007441884081
101112.66736411272723
101113.33073480715393
101119.20628542132908
101125.04340146676986
101128.24048417632002
101131.78468849543424
101141.18156539805932
101158.49227821582463
101178.72429694648599
101192.92276818549726
101195.21740657859482
101187.14135463075945
101175.41849885434203
101166.93782065021514
101165.91038714682509
101174.32982348251971
101192.4286255587067
101218.19528696408088
101246.21583103004377
101150.89141357045446
101131.41475925772102
101118.80311597102263
101114.42458616245131
101116.62923192464223
101121.21209515848022
101124.72724614501931
101128.51694520264573
101137.26575313622016
101153.4277336285304
101173.18577783934597
101188.1864879278728
101191.97553276458348
101184.77710532964556
101172.77844486216782
101163.31110154984344
101161.85259873313771
101170.80851311855076
101190.06420567743771
101216.27431598539988
101243.21510960343585
101265.22484406610602
101208.72219006766682
101187.82351824127545
101163.79647131405363
101141.62798147751892
101124.71039467441733
101115.65364584645431
101114.53184105898254
101117.97587265995389
101121.843907707982
101125.75519176021044
101133.71336808142951
101148.64595019374974
101167.83023618013249
101183.51213499746518
101188.62703701271676
101182.21752799661772
101169.93214488022204
101159.75318513618549
101158.16276938073861
101168.06265441398136
101188.67976895571337
101215.33131913693796
101241.19854499248322
101261.14745497322292
101273.94561735868047
101281.79509293891897
101227.89826623511908
101219.90055279637454
101200.24029555080051
101175.43592637321854
101150.80718747872743
101130.04144584994356
101116.83281522734615
101112.84585238770524
101115.38188903653645
101119.54603725785273
101123.51696926896693
101130.5913829766796
101144.32088991360797
101162.9641387672018
101179.25532424045377
101185.56146758333489
101179.81257909857959
101167.22611688016332
101156.43252760001633
101154.87089719482174
101165.89091450157866
101187.91712763583928
101215.04653705182136
101239.93161875808437
101257.83035257199663
101269.16701988001296
101277.84083074409864
101286.14788932719966
101221.3257341394783
101234.63453440276498
101229.82986925054865
101211.15855748631293
101185.5864538977039
101158.73176320958009
101134.61982954008272
101117.77698753018922
101111.38218570424942
101113.21495154505828
101117.67431922823016
101121.67819349530328
101127.87976040496142
101140.53451109773596
101158.76864863140509
101175.67428114259383
101183.05273835122352
101177.80523913590878
101164.86628919780196
101153.44518235258874
101151.99334711769188
101164.18374850097462
101187.61975585237087
101215.32037321766256
101239.26281063529314
101255.17995612809318
101265.0901807351911
101274.30242167679535
101285.27727239500382
101294.16601167891349
101190.32525774743408
101222.77174491378537
101240.64959124239977
101238.40446245369094
101220.31824104598491
101193.9799951853056
101165.18476086997543
101138.26580690627452
101118.49597422026272
101110.16348031352391
101111.51202101416129
101116.3041082729178
101120.28530262529966
101125.66589753772132
101137.33587089090724
101155.35228710237425
101172.95455855793261
101181.25059654003417
101176.34681160078617
101162.88307365406945
101150.77670496342762
101149.4303419287171
101162.75054969303892
101187.53611084866861
101215.78065147256711
101238.88121008378221
101253.11875879531726
101261.74833983385179
101271.28390221614973
101284.6255613873509
101296.53979863604764
101296.95648353213619
101187.16640504531097
101223.97014214645606
101245.48901709643542
101245.14960340139805
101227.42559795336274
101200.44999740851927
101170.09470481975586
101140.91949994265451
101118.89354810581426
101109.06757001187361
101110.16673006824567
101115.32752069336129
101119.32637903299474
101124.0480153017852
101134.90964718362375
101152.87498165329453
101171.15760205268452
101180.16587766841985
101175.44769316684688
101161.40460475346481
101148.67178723108373
101147.40615994042309
101161.65698193450226
101187.64196233659459
101216.37887997557118
101238.86735027850955
101251.71826880103617
101259.16736748587573
101268.85460585358669
101284.05941844405606
101298.50829727598466
101300.61497973759833
101281.75181933343993
101403.07035730007919
101426.5953552617284
101444.50640928714711
101447.47591437386291
101433.04615047718107
101415.70232643313648
101184.9826497616159
101224.94325692407438
101248.97689430700848
101249.84757370296575
101232.27872887314879
101204.772634747962
101173.32380579454184
101142.58983535463631
101119.05346532973635
101108.23429887312523
101109.26259807075257
101114.72886716046196
101118.74256780969154
101122.95576946002257
101133.23755187055212
101151.25120386500203
101170.12648026784882
101179.64562549968832
101174.97756107135501
101160.44503470906056
101147.15128337864007
101145.90367086067272
101160.82545227601076
101187.72475294022297
101216.85426381063007
101238.96632880724792
101250.74387979450694
101257.28164205572102
101267.12795111697051
101283.66335577808786
101300.03025695681572
101303.33208558472688
101284.4688812555105
101246.41514639319212
101371.48089056697791
101403.47531337587861
101427.52552162247594
101445.43610729479406
101447.34743434241682
101431.37409658094111
101413.32391176496458
101183.93987665581517
101225.5817055143998
101250.86190198016993
101252.29066211193276
101234.75525031959114
101206.9331219382002
101174.90387556902715
101143.32694877353788
101119.02534643033869
101107.72949483412958
101108.80699268322496
101114.46483925361827
101118.48891949682729
101122.44435126308235
101132.44709941727342
101150.54971594462404
101169.80838165256137
101179.5636934509821
101174.84547936647141
101160.00834780748119
101146.33382353630441
101145.08773846282566
101160.40609713361482
101187.81677836315066
101217.21110504932585
101239.14152995820041
101250.25744255287282
101256.28496807762713
101266.23251515279117
101283.4638699159259
101300.91758478510019
101304.82740243873559
101285.89343846999691
101247.02251029814943
101204.54743957937171
100900.01692108847783
100881.18611691344995
100857.98508886974014
100832.92300568379869
100808.98166233712982
100789.0328699741076
100775.42951124113461
100769.55265432286251
100771.37564504457987
100779.75592040969059
100792.18827841954771
101114.57741409413575
101097.55059372339747
101085.97682378471654
101076.03704396694957
101061.73232180309424
101039.11806539664394
101008.99400922023051
100976.27342204822344
100946.86478489045112
100925.23943102092016
100913.14462568631279
100910.31839485660021
100917.19090146369126
100932.3432481802447
100953.05309701815713
100974.32011186754971
100989.53470034190104
100993.13839715140057
100982.96322047736612
100961.23714441522316
100933.99844072011183
100909.20470800359908
100893.77266764685919
100890.91652989375871
100899.27321191731608
100913.10745613145991
100925.75787927271449
100932.55949503456941
100932.77186850509315
100928.33442730887327
100921.24986797518795
100912.01902188504755
100900.08802331723564
100886.30903397037764
100873.27165138629789
100864.11802519802586
100853.44687096415146
100858.41541536877048
100866.12656799712568
100875.96810396487126
100886.96388261883112
100897.7675295441004
100906.78647911414737
100912.37488426741038
100913.00690735294484
100907.54904186729982
100895.56745658376894
100877.55484455169062
100855.02712154824985
100830.45401853468502
100806.95008725371736
100787.68006979426718
100775.27124329539947
100771.31641159657738
100776.00627890213218
100788.20984647714067
100805.18904322800518
101127.05095371716016
101121.21364273190557
101117.45441713869513
101111.70695988155785
101099.42735589393124
101078.99746554806188
101052.25713443291897
101024.44679983286187
101000.29483855467697
100982.0225019378704
100971.4367869587004
100968.71440217166673
100975.02978043306211
100988.71987149314373
101006.95637130289106
101023.98652897383727
101033.4360982729122
101031.15945469684084
101017.31603266193997
100995.52367146775941
100971.11057255472406
100949.51155802424182
100934.81251607919694
100928.58513469001628
100929.99242627060448
100935.5721180614637
100942.08388211818237
100946.06796765714535
100946.24280143369106
100942.7806727058196
100935.71204056077113
100924.96020719398803
100910.94007401587442
100896.38989865453914
100885.52336937755172
100882.28718487783044
100858.14135445894499
100859.64907158196729
100863.56635129729693
100869.47589068731759
100876.78566256962949
100884.61405939237738
100891.66361074837914
100896.35652815205685
100897.11891443227069
100892.64210294920485
100882.22804968936543
100866.13513986354519
100845.71096773934551
100823.29389453089971
100801.94349161568971
100784.88363124502939
100774.82345240774157
100773.37090552036534
100780.75311059744854
100795.87572802478098
100816.1778972746979
101149.0341035482561
101151.32613667829719
101147.25793878563854
101135.71934741524456
101118.43318802186695
101098.80554489455244
101080.92303532289225
101066.09926545893541
101054.13685701704526
101045.43289937013469
101041.75153545021021
101044.20993642941175
101052.65667559813301
101064.27895932050887
101073.19205935113132
101074.01520756793616
101064.08794453230803
101045.54583677889605
101023.61518150026677
101003.10324937444238
100986.84453708451474
100975.60983162168122
100968.56539433257421
100964.49730123279733
100962.0704288095003
100960.45752530706523
100958.51945374335628
100955.16519948064524
100949.60711186118715
100940.59138917633391
100927.86882332479581
100913.14851300476585
100900.51681524814921
100894.98405571769399
100855.04884239970124
100854.98929666519689
100856.77926619087521
100860.0985000734654
100864.33039325938444
100868.5886102989607
100871.64303453511093
100872.00125751034648
100868.28123770173988
100859.68727358251635
100846.33612669674039
100829.3466570435412
100810.75561474845745
100793.29123630448885
100779.93578637079918
100773.29714195357519
100774.97166141199705
100785.21201815691893
100802.91515615752724
100825.76973343416466
101176.89625914132921
101182.94566001274507
101178.59820481520728
101167.50458243499452
101155.10462600499159
101146.07616686198162
101141.16112751058245
101137.43415155101684
101132.0671060239838
101124.45238015912764
101117.4523298808781
101113.52859167532006
101114.0755977055087
101116.66843860973313
101115.86871590057854
101107.10180023108842
101089.33663034165511
101065.80745782254962
101042.95590226820786
101026.02900180777942
101016.25368164401152
101011.28214817795379
101007.25401337814401
101001.33126524544787
100993.46688076447754
100983.72474272473482
100973.60126279771794
100963.26738147455035
100952.11471388148493
100939.04803211982653
100924.09745867518359
100909.93994653232221
100901.47953033661179
100903.41600667625607
100844.18218685996544
100840.22428711091925
100837.60499252571026
100836.4033028268459
100836.45513651212968
100837.25113366016012
100837.84277140749327
100837.0034604716493
100833.60928954102565
100826.97067313009757
100817.05906524084276
100804.66124675150786
100791.40219252373208
100779.53020193619886
100771.49649363436038
100769.4536979005934
100774.76285646649194
100787.71870416990714
100807.33893599204021
100831.72445193583553
101206.69041286993888
101203.0821673705359
101194.4725453054707
101189.22789030188869
101191.36863969198021
101197.98364838711859
101202.88115775486222
101201.05981666976004
101192.16464726848062
101180.07393270166358
101169.23163399731857
101162.09487732201524
101156.4420649172971
101147.224056634921
101130.13920121249976
101105.48941045560059
101077.66544869427162
101053.33620393843739
101038.25515624920081
101033.64498142221419
101035.96437613593298
101038.70940074685495
101036.28280800016364
101026.89478686239454
101011.69998610846233
100993.34848005282402
100974.14173385719187
100954.81443068703811
100936.11719509446993
100919.06222625612281
100906.78840310956002
100903.54364501545206
100821.12757601622434
100813.95957956337952
100807.82076401049562
100803.06198922461772
100799.59032639006909
100796.88888501939073
100794.1345146830572
100790.43020882323617
100785.12052025340381
100778.12206945302023
100770.13516583543969
100762.57040621903434
100757.1870924791001