/*--------------------------------*- C++ -*----------------------------------*\
  =========                 |
  \\      /  F ield         | OpenFOAM: The Open Source CFD Toolbox
   \\    /   O peration     | Website:  https://openfoam.org
    \\  /    A nd           | Version:  12
     \\/     M anipulation  |
\*---------------------------------------------------------------------------*/
FoamFile
{
    format      ascii;
    class       volScalarField;
    location    "0.0105";
    object      rho;
}
// * * * * * * * * * * * * * * * * * * * * * * * * * * * * * * * * * * * * * //

dimensions      [1 -3 0 0 0 0 0];

internalField   nonuniform List<scalar> 
106891
(
1.1652189143587012854
1.1651551581118784195
1.1651260828772103118
1.1651366692995042129
1.1651889834920114986
1.1652771887586528266
1.1653896936925933758
1.1655102089839983748
1.1656183595693627719
1.165697115832279751
1.1657324585736363876
1.1633917581599177993
1.1631591618037029345
1.1629535932162338163
1.1627516446857404375
1.1625231525402857091
1.1622601213565275646
1.1620002413892027704
1.1618131002595180057
1.1617661892310064964
1.1618834519325829113
1.1621185295155298522
1.1623677330871542424
1.1625169663638235118
1.162480748971197464
1.1622404290039065611
1.1618386103513163032
1.1613589437573406116
1.1608938141242013398
1.1605148458005751788
1.1602626877143742412
1.1601400511070287802
1.1601085050269419607
1.1600986217993956018
1.1600313888006874574
1.1598563982133069938
1.1595796004053047223
1.1592697420947879472
1.1590208590874322425
1.1589036783037642842
1.1589343714581237244
1.1590797640907517518
1.1592850318523038045
1.1595012698515443361
1.1596935061586450821
1.1598373480998622753
1.1599070544559144658
1.1598795283531526668
1.1597529762471936454
1.1660827798140309675
1.1660496596676737102
1.1660034426793597362
1.165943844801086815
1.1658716826790092025
1.1657874765291167396
1.1656926338113842156
1.1655897267495820557
1.1654853858330855854
1.1653882052059432173
1.1653087445703422809
1.1652581614848200875
1.1652443158109861976
1.1652720264902158842
1.1653381410872460933
1.1654336463318488715
1.1655430761370837445
1.1656475389389395758
1.1657287983640438611
1.1657724614701738819
1.1634073545279055573
1.1632020387304184972
1.1629993416568065179
1.162765314825437768
1.1624827992262587451
1.1621850254851935347
1.1619439920745560091
1.1618391925921622843
1.1619196730322380873
1.1621590394714194083
1.1624588278214507131
1.1626960951785065834
1.1627585940904983097
1.1625947383424388715
1.1622300965685528062
1.1617459111389762949
1.16125044260116006
1.1608381717906872677
1.1605683283481735835
1.1604480727811383733
1.1604295357415257417
1.1604281807854577302
1.1603480258335947539
1.1601336149010175181
1.1597926678294341318
1.1593984227958198385
1.1590582641641373751
1.1588637000839623337
1.1588571748964049402
1.1590217010282797272
1.159295991419654781
1.1596046386110752113
1.1598744190616228078
1.1600474925300692242
1.1600880726977411683
1.1599887112433520109
1.1660282346609245341
1.1660308023735750371
1.1660238351030240977
1.1660038155293999118
1.1659681635995742255
1.1659146818790686595
1.1658429404883852154
1.1657546495252382179
1.1656560463040714914
1.1655558368912215528
1.1654649771688134763
1.1653952002527623311
1.1653564056844087915
1.1653562759378648384
1.1653952813877266337
1.1654677750470019415
1.1655596420407221547
1.1656541122582726455
1.1657317383671090827
1.1657774765154371721
1.1636892603920887534
1.1635025296727750099
1.1632870632823180124
1.1630203631819713284
1.16270872137210457
1.1623965817446799687
1.1621571468785492076
1.1620676150901643187
1.1621682911145831962
1.1624241701670363636
1.1627339272592021047
1.1629695649981375283
1.1630195815826280814
1.162832331143186515
1.1624402521640244679
1.1619355628576384376
1.1614375774333467461
1.1610526592176186877
1.1608327656273194073
1.1607674722886147656
1.160793363690848512
1.1608056931084234087
1.1607081008002466671
1.1604463818911838757
1.1600423642259720669
1.159577343959897755
1.1591718144798510703
1.158929558400881632
1.1589107949689843036
1.1591036677014274758
1.1594342605956653447
1.1597978319175470396
1.1600858627017538449
1.1602195733100437725
1.1601719695416745637
1.1599702539346530283
1.1659282201846332683
1.1659547876834108759
1.1659741431246994914
1.1659805179358520011
1.1659685748735497679
1.1659351570047431501
1.1658788425446466874
1.1658021516797030248
1.1657115591456435055
1.1656182157646006736
1.1655350700535398456
1.1654739362228343502
1.1654445146535987732
1.1654507980609707385
1.1654913968158848725
1.1655548455766355787
1.1656279306501537985
1.1656916488260860021
1.1657314053168319479
1.1638293946945945656
1.1636857300455640818
1.1634519083271019912
1.1631409918203663434
1.1628146576386617639
1.1625560249932600509
1.1624462948870186718
1.1625230126061736335
1.1627467295947391257
1.1630208993838235809
1.1632241864627679284
1.1632485154161040786
1.1630516609672021389
1.1626636763482791626
1.1621697986499828215
1.1616832897909399325
1.1613078394956313222
1.1610991900558704781
1.1610477119364275289
1.1610883705502716978
1.1611210955791035904
1.1610472921816690217
1.1608032714971754373
1.1603949744289063783
1.1598952921452287956
1.1594232951907728069
1.1591029630974347686
1.1590195922257113814
1.1591858308565390345
1.1595320284899484076
1.1599269066847348597
1.1602270432137655742
1.1603300950803860925
1.1602126700300161577
1.1656776711924954348
1.1657179419390928388
1.1657653138976764584
1.1658166056627072837
1.1658663495001180266
1.1659063443600252707
1.1659277067030497932
1.1659228069485136903
1.1658883284408645409
1.1658257211829838873
1.16574308968090401
1.165653169033439962
1.1655710342443543759
1.1655104876969923922
1.1654798745745551525
1.1654816497929429975
1.1655070374896974172
1.1655471246989006495
1.1655850651838579601
1.1656076334469187561
1.164188888298018032
1.1641087517700547949
1.1639044581668944733
1.163591555229912089
1.163240731921145299
1.1629424748056960137
1.162774203843680576
1.1627730127304083396
1.1629142673693213528
1.1631225714966291207
1.1632971551774975438
1.1633466386773794188
1.1632247600994494174
1.1629394283856369086
1.1625461051679217839
1.1621301298417929804
1.1617810328961593047
1.1615584180376921086
1.1614734283895613576
1.1614784545246603642
1.1614899576081831878
1.1614188332713415441
1.1611951734849734752
1.160805891130237244
1.1603038621425458832
1.1597987586196543131
1.15940453065426885
1.1592200809554202845
1.1592792711408594908
1.1595271474843442672
1.1598467426603342734
1.1600974022148720088
1.1601759550032322288
1.1653952342779583251
1.1654514479823039341
1.1655285602029148428
1.1656200813511969905
1.1657154081404281776
1.1658011326643140659
1.1658627132701706586
1.1658882494715543388
1.1658714604439037732
1.1658150383478842471
1.1657292257315701178
1.1656299826158205146
1.1655342464008648928
1.1654562541594968295
1.1654058262545183844
1.1653803364949630872
1.1653767505928671611
1.1653813770774232861
1.1653815084667318303
1.1644512584852821924
1.1641970005732407145
1.1638388671607486913
1.1634628444039394335
1.1631677773012243371
1.1630176307531854274
1.1630187506081759441
1.1631324589485796395
1.1632862806596175886
1.1634009305404144907
1.163415890933827912
1.1633039878673090417
1.1630699408739206824
1.1627611395292150043
1.1624409922444352006
1.1621715908675138706
1.1619927693849709804
1.1619036289728570388
1.16186026869200143
1.1617934468759323341
1.1616330885516461535
1.1613471593855764219
1.1609381595919996411
1.1604642971925114292
1.1600061934776366712
1.1596525109190982672
1.1594689439955914168
1.1594662091560956618
1.159597819330662416
1.1597774599370680448
1.1599022953766802146
1.1599022606839848315
1.1649969587084283429
1.1650494186179647382
1.1651428634018481389
1.1652713505068275079
1.1654214662059025898
1.1655729021193308448
1.1657026521363971217
1.1657909123873588797
1.1658249215313578606
1.1658022415539259775
1.1657291036781070037
1.1656204623872208348
1.1654949075365992339
1.1653716583277251573
1.1652672868185065536
1.1651854531580894125
1.1651297377127804999
1.1650918700473811285
1.1650621126664968408
1.1644958079134655193
1.1641338743431093317
1.1637658895581279861
1.1634834676911467444
1.163337892733766088
1.1633241222541863547
1.1633911161610130947
1.1634647226160832467
1.1634792655090357982
1.1633989141305063342
1.1632223979488400811
1.1629886096626314007
1.1627415806562189093
1.162523569043135474
1.1623602126959284853
1.1622537748147929726
1.162180322205398797
1.1620990623226183924
1.161967439551362391
1.1617457331477500926
1.1614235805328070317
1.1610285342448585233
1.1606132073006112382
1.160231948414369052
1.1599419267570245662
1.1597630314795259743
1.1596911675168795064
1.1596929003481619702
1.1597074853608164702
1.1596840388573737002
1.1646336953377780521
1.1647346784503951334
1.164887036906325557
1.1650738664805964095
1.1652702986178165023
1.1654491898148042761
1.1655856994753890366
1.1656610147242234543
1.1656672483888139702
1.1656076959172401164
1.1654976072237512863
1.1653564387274348846
1.1652045504517785091
1.1650610506275940192
1.1649343347794902659
1.1648348810240247708
1.1647611843239400464
1.1647070675422432906
1.1645484086763397968
1.1641898457331623096
1.1638447462906951202
1.163586903008842377
1.1634464267768254153
1.1634012344245965309
1.1633926454472716117
1.1633605036308376501
1.1632643834047566855
1.1631185966923767161
1.162955362764884093
1.1628020358790989164
1.1626741553665205231
1.1625630492801992677
1.1624532141455188317
1.1623312614223919592
1.1621815038509464291
1.1619883701489217565
1.1617420504380255863
1.16143629401842996
1.161096637422161626
1.1607432226784688556
1.1604128535966542479
1.1601314049691053842
1.1599061236954064658
1.1597341710224575717
1.1596009440715568939
1.159490288332297947
1.1642855087519878854
1.1643829163186640852
1.1645345265511213295
1.1647236714286413051
1.1649265882712478426
1.1651163403676851882
1.1652667256087143599
1.1653574463703266773
1.1653792402609750578
1.1653330431697712655
1.1652311232986583001
1.1650899499492390898
1.1649290833388730171
1.1647697020619409702
1.1646241831885040252
1.1645075859130944451
1.1644223828547630717
1.1643644251870637341
1.1643573248514342833
1.1639420494025525255
1.1635609588258557512
1.1632877412478606072
1.1631412091056290148
1.1630847425468560097
1.1630619780583777434
1.1630359309620050823
1.1629979113544324232
1.1629489695595527365
1.1629040341337781861
1.1628398717559214059
1.1627304307911587866
1.1625756762278376399
1.1623846104440644922
1.1621720123887233633
1.1619456903698703876
1.1616982023510871169
1.161418086104191838
1.1611033794777880779
1.1607548119530122221
1.1603979116598697185
1.160063864276108081
1.1597711474074692273
1.1595318417780917652
1.1593551125445502592
1.1592405059687997948
1.1640904113372450013
1.1642160079052896737
1.1643737896230275108
1.1645432518128437938
1.1647018947247762544
1.1648282062857373553
1.1649057861428722127
1.1649264482395642606
1.1648889448144761349
1.1648016985752132069
1.1646776736458852586
1.1645346340373112781
1.1643931303589623028
1.1642656027028150945
1.1641661624030723576
1.1640987630738079961
1.164062256455836053
1.1645850458793298721
1.1641977328244286216
1.1637359762636056981
1.1633239792265446244
1.1630514893331174164
1.1629289334629397956
1.1629073314761002589
1.1629112334668398887
1.1628925083097469972
1.1628429631216039564
1.1627799655868173989
1.1627066832443246902
1.1626200434054236865
1.1625048148851071517
1.16235598794894468
1.1621916951841761989
1.1620391526565088114
1.1619015293371810493
1.1617433177488944995
1.1615174807279844416
1.1611830190988094991
1.1607589428192353065
1.1602984064872483572
1.1598730075680678819
1.1595473488629532977
1.159341000554960921
1.1592372497515550656
1.1639141165403066314
1.1640215626417245165
1.1641383266202462998
1.1642463055553056162
1.1643289980033986186
1.1643748047641115928
1.1643784545093556204
1.1643393433690591987
1.164265423905396446
1.1641677789249416097
1.1640610008578426982
1.1639614838003866648
1.1638790749493546084
1.1638257260576825303
1.1638058939769269085
1.1638184061927068225
1.1644050639689493831
1.1639915322597809144
1.1634941851659892365
1.1630494976683176667
1.162757791848709088
1.1626432800080095387
1.1626497221029841178
1.162687284156307177
1.1626958450004492018
1.1626467366661723535
1.1625530283644314178
1.1624223840386160855
1.1622640402255564052
1.1620897905840112951
1.1619173478856443804
1.1617911386296988496
1.1617427908229560618
1.1617524046261160642
1.1617604810798365378
1.1616720145856982427
1.1614107880231256953
1.160967794087763183
1.1604175009839685639
1.1598719299871436128
1.1594281367014851458
1.1591376629423437716
1.1590031266139630972
1.1589887012693442792
1.1637861634666135657
1.1638659644531017534
1.1639364521258139806
1.1639836511289294307
1.1639985708041571399
1.1639785157551367778
1.1639259174660587792
1.1638511736922911854
1.1637664496304160888
1.1636854758355179573
1.163622234694163371
1.16358451545756858
1.1635798949815769898
1.1636092356225660183
1.1636678820158703473
1.1633302277481429865
1.1628427651351613825
1.1624747611860570817
1.1623013976716685125
1.1623177497878534048
1.1624353698131992818
1.1625425694703896973
1.1625631954102404464
1.162469175566767543
1.162284860288301136
1.1620534789230478889
1.1618218195339948817
1.1616304401496515553
1.1615208020510088271
1.1615218459536085227
1.1616184661961796998
1.1617533176415872909
1.1618280344193685494
1.1617368254456335031
1.1614223775348770928
1.1609153125868236778
1.1603079522758712461
1.1597302414214414323
1.1592833120648271539
1.1590060021778052501
1.1588835599217481853
1.1588696759906726985
1.1637260008663612432
1.1637776949868903209
1.1638031308758352012
1.1637953328090044902
1.16375485728457706
1.16368778576421672
1.1636072398101253711
1.1635270111300479723
1.1634611174467164307
1.1634221073057640083
1.1634156093734759896
1.1634443038125374947
1.1635049651181677
1.1635887717044992584
1.1624058451417131899
1.1621071785689589539
1.1620307305372350459
1.162137016388693489
1.1623113744901116817
1.1624306801094084207
1.1624050666515666208
1.1622232787750510496
1.1619249832314142434
1.1615971352014315965
1.1613180651508552277
1.1611577600108835551
1.1611611394457921342
1.161318941468380439
1.1615708361498933154
1.1618154904048829668
1.1619295691006168436
1.1618187376607569394
1.1614564678260919095
1.1609079310005590013
1.1602882627131905213
1.1597205537218195914
1.1592921688882462661
1.1590290755619205854
1.1588993545762598103
1.1588512040006577752
1.1637417329476584804
1.1637518855750867974
1.1637247599805056186
1.163665002016089689
1.1635830113688321319
1.1634950400247292546
1.1634163755301241139
1.1633608156809349676
1.1633382636381848219
1.1633511631465549563
1.163396743782927123
1.1634678521841266274
1.1635530413455730248
1.1618931391556597266
1.1618575031084312776
1.1619844633217046859
1.1621556537830577405
1.1622479897377657743
1.1621838779449378265
1.1619520975079142833
1.1616054502095347623
1.1612390008664690288
1.1609496802671253057
1.1608204181800994004
1.1608914547255615446
1.1611389630926498562
1.1614803320070861137
1.1617868293902877674
1.1619314073108737428
1.1618365848240195248
1.1615006545768928881
1.1609926650455835162
1.1604228017526843075
1.1598926923852672655
1.1594672971809956152
1.1591667261739944106
1.1589697747034508613
1.1588417550559308999
1.1638186812998185804
1.1637777650019631714
1.163702654005353665
1.163608080986428206
1.1635131308853909893
1.1634339035129721562
1.1633826729044189907
1.1633656783452770433
1.1633822769806647646
1.1634253659161903904
1.1634855441652207642
1.163550422177692889
1.1616826644959608039
1.1617843157283889166
1.1618981931448688627
1.1619230574345720264
1.1618079125197249279
1.1615523670547243107
1.1612118733049077157
1.1608770930399052723
1.1606465785769088939
1.160595030019384355
1.1607483595241194774
1.1610723635133397558
1.1614649227327906722
1.161788485230990986
1.1619261568362624359
1.161822085483999567
1.1614982723983242607
1.1610305265789624407
1.1605138474594511866
1.1600232187699968112
1.1595994672991987162
1.1592550707151487721
1.1589842792972206986
1.158777020106796618
1.1617350054933839321
1.161757224370286723
1.1616976852498930306
1.1615263540920590657
1.1612609334032932829
1.1609589359277263654
1.1606928949678676499
1.1605422018461326594
1.1605637893142584094
1.1607666528866142919
1.1610999594757334119
1.161461191957942507
1.1617335221251845478
1.1618258019191451957
1.1617142200642460725
1.1614292895272078088
1.1610373464169263524
1.1606019705894921046
1.1601675009353185075
1.1597603462764132232
1.159394198544979826
1.1590804205576015207
1.1588311433520148697
1.1615273727832773343
1.1613056628553086735
1.1610468671924694117
1.1607970178300921482
1.1606065958736637711
1.1605265133375428643
1.1605910641142611617
1.1607976532139030468
1.1610975547239972272
1.1614062018673037002
1.1616349485278807396
1.1617214918427569703
1.1616538519957648745
1.161456314782137067
1.1611666644382219182
1.1608130954102180432
1.1604144586681246487
1.1599910170532405917
1.1595720717922075593
1.1591976977215268096
1.1589069584227900123
1.160463248593546659
1.1604409935271116083
1.1605407841691799398
1.1607527441202676322
1.1610332017372659852
1.161313383557953216
1.1615178087281119446
1.1616057414524125768
1.1615716145765588863
1.1614367945948460559
1.1612167157997164146
1.1609197233799628535
1.1605492310132039524
1.1601238022526745297
1.1596842652772478832
1.1592880733904133983
1.1589880559240404168
1.1609631075561255287
1.1612144075039678714
1.1613861454675926677
1.1614510702942706377
1.1614136773316552365
1.1612968262612808346
1.1611098711328911026
1.1608472897161898896
1.1605052052919615502
1.1601013080256603605
1.1596842649069292186
1.1593180121188373377
1.1590541285493975998
1.1611681526980832668
1.1612915492147053431
1.161325396044606828
1.1612786978432363405
1.161166956284552132
1.1609954620830917893
1.1607477475019434277
1.160415725770524098
1.160020835750933843
1.1596206239550315154
1.1592861991371916641
1.1590642270250310908
1.1674159922958928792
1.1675490260896790318
1.1675616605581808916
1.1674126658042935922
1.167098729278364555
1.1666787519271888396
1.1662735464659201856
1.1660126314733421093
1.1659632762016458596
1.1660907668742475085
1.1662865638749468911
1.1664392563829391047
1.1664895472405398813
1.1664335571000117309
1.1662995583615278772
1.1661340045772166096
1.1660024091450376105
1.1659781613450621585
1.1661160503781797804
1.16642054780860005
1.1670911581381600008
1.1672994088724975015
1.1675010501517233408
1.1676235514073498578
1.1676029343602969401
1.1674038412458747072
1.1670473544656470022
1.1666286485456287547
1.1662795914691583832
1.1660969076968257241
1.1660907632220862684
1.1661919734501660084
1.1663088679758968347
1.1663796509763924014
1.1663856734834689988
1.1663328109474040417
1.1662440960944400192
1.1661574885131171797
1.1661253004614486883
1.1661916025816450038
1.1663726211227851692
1.166664116869630563
1.166927225542548463
1.1669078836179804792
1.1669791296881539822
1.1671367397410179478
1.1673295152182936452
1.1674902413884555852
1.1675494314584091704
1.1674505380494299978
1.1671812028073556
1.1668032440263755856
1.166437350994603328
1.1661926615187219181
1.1661069930246326098
1.1661385321891177824
1.1662105173721597495
1.1662639488396437937
1.1662783758048764771
1.1662577456194962444
1.1662180945216287231
1.166182216150355222
1.1661793682162111541
1.1662323430235266297
1.1663529718769365395
1.1665521968943222131
1.1668410379336193738
1.1672186071250860717
1.1668320575372330694
1.1668645687065919425
1.1668748983468977265
1.1668927949958829426
1.1669118044128337086
1.1669017732633295559
1.1668421160139508252
1.1667216034164880067
1.1665270485327439154
1.1662581072143936023
1.165958480808639175
1.1657159932635956512
1.1656066458640166328
1.1656382642712637132
1.1657451090863244492
1.1658344791645840477
1.1658463010892035072
1.165781685913249488
1.1656846457583389665
1.1656125095058913477
1.1656126628469472006
1.1657086721697480503
1.1658929583234916016
1.1661366218055411181
1.1664112954697403168
1.1667047429098826861
1.1670097571744189047
1.1672927245419952857
1.1662435476582888594
1.1664378705554470095
1.166432745993711162
1.166239949658073094
1.1659144254172226773
1.1655217449831958287
1.1651287545811452873
1.1648089470796569866
1.1646156375531284688
1.1645412768862968278
1.164532724604882663
1.1645445454210447966
1.1645747011445191088
1.1646408859043539952
1.1647323718433295614
1.1648036224492539503
1.1648078435524384933
1.1647400806093963777
1.1646521580893387515
1.1646168482673413536
1.1646872646850581212
1.1648693601041695267
1.1651189681251008512
1.1653606802818492483
1.1655204993181291773
1.1655652623719756633
1.1655206907304112018
1.1654430839420473198
1.1653657885988650822
1.1652689879745430357
1.1645980618534852447
1.1647973136278080286
1.1648919318690995617
1.1648427143313182519
1.1646829982319810703
1.1644659218108155407
1.1642265478204625317
1.1639892200660191257
1.1637903278157748499
1.163663120874327106
1.1635951241767825692
1.1635395462124400456
1.1634676695789545331
1.1634057435803666358
1.1634038212683750491
1.1634726178153576015
1.1635641222415662455
1.163606676362786585
1.1635618876848448089
1.163455123948185177
1.1633530818711357302
1.1633213975669263185
1.1633872006251402276
1.163526296208651889
1.1636795189776103499
1.1637833352417013
1.1638117292685654647
1.1637926568989169773
1.1637794082131374118
1.1637970795391714418
1.163807189981972634
1.1637338307637044021
1.1640764583422011924
1.1643235789614392317
1.1644523037191885084
1.1644063981670185193
1.1642185920868908244
1.1639514395085566179
1.1636501962750045447
1.1633513926389114079
1.1631052621377229173
1.1629562232005534739
1.162897709980981853
1.1628771660984764669
1.1628542609546550501
1.1628450804844552291
1.1628928471250152832
1.1630029906031793541
1.163116847954075439
1.1631528347994073425
1.1630721637965173443
1.162909864363491641
1.1627537256389612885
1.1626892503170247473
1.1627528847571035886
1.1629167927453700759
1.16310937341418974
1.1632571278919627833
1.1633309064594770099
1.1633631451681012425
1.1634142599080321556
1.1635097672500358534
1.1635979536013965063
1.1635843753675665369
1.1633991899612903254
1.1695092329916556562
1.1696381248523830543
1.1697303340311175912
1.1697043894606029557
1.1695347128518598367
1.1693375649672363981
1.1651830308988424534
1.1654772785210600894
1.1656419078540669609
1.1656173350634904118
1.1654420754045304864
1.1651858513761179648
1.1648981037000978311
1.1646175468697124167
1.1643978262947873858
1.1642844355190595795
1.1642701886809125877
1.1642941642593589435
1.1643079042872195306
1.1643247823610491931
1.1643926367591570514
1.1645247044996851482
1.1646643249666857045
1.1647276050328005947
1.164675104418626983
1.1645426884306873117
1.1644218436545024087
1.1644014168007172927
1.1645151545723189113
1.1647283599336948345
1.1649607279696068129
1.1651361759028926457
1.1652274390983441421
1.1652764329669891286
1.1653534930307716255
1.1654865500321509586
1.1656195102768895921
1.1656467343693777128
1.1654936008591241237
1.1651843138407333988
1.1719449507899306617
1.172184812174910773
1.1723583285902166029
1.17248012848265315
1.1724700151679621207
1.1723137324322865371
1.1721417800182558633
1.1692848787582350578
1.1696161818810029143
1.1698131201733432682
1.1698143989194214054
1.1696604847178548869
1.1694228336417180625
1.1691513549797720728
1.168884262615300651
1.1686776196371904124
1.1685785881464132441
1.1685820098792056854
1.1686238021083643623
1.1686526966099894942
1.1686812329493159179
1.1687593440321668581
1.1689037983908383556
1.1690577684155014637
1.1691340806274028719
1.169092175274947909
1.1689678119507593834
1.1688534623319057904
1.1688414945027101322
1.168965900592005891
1.1691900755342981011
1.1694310528525073689
1.1696111760227636545
1.169702798972686919
1.1697528825665437502
1.1698353918289225994
1.1699779294419054843
1.170122400019106168
1.1701556010890643567
1.1700010704086676316
1.1696827333996169251
1.1693349592221520261
1.1660401541948484105
1.1658843364988100699
1.1656928722598529635
1.165485028542324164
1.1652876390080146862
1.1651225835441787471
1.1650094636624608313
1.1649621791326749687
1.1649757811225771587
1.1650452538407891634
1.1651502795289336856
1.1631290896162984616
1.1630690126105946991
1.1629944237458595957
1.1628507422015459394
1.162597547666526232
1.1622415228569105139
1.1618455611261737648
1.161503439901028889
1.1612941211841976141
1.1612492126255351543
1.1613415575899563859
1.1615022356531556902
1.1616630362965887358
1.1617584027038507788
1.1617481163580882786
1.1616159940762182945
1.1613678650248460134
1.1610334666322899011
1.1606605466011017391
1.1603025488156903933
1.160005112884506806
1.1597961300125321227
1.1596782381641308479
1.1596282517665619238
1.1596084415194092276
1.1595777640425011246
1.1595174945128747801
1.1594408061416949796
1.159388118358216202
1.1593987626062616236
1.1594806064855835981
1.1596005107036366777
1.159701152367642818
1.159738571251809125
1.1597000749799897257
1.159602770835940877
1.1656514496150633953
1.1656931729532962194
1.1657577614058063364
1.165840065342749865
1.165931784206408528
1.1660217971464454934
1.1660966227466751377
1.1661429075034694947
1.1661476368873409104
1.1661020293309027895
1.1660020860574444868
1.1658522622317624151
1.1656656062698738108
1.1654613575935979242
1.165267251181546726
1.1651076969505931302
1.1650047652668136244
1.164973354972600017
1.165011226268787059
1.1651128173578131353
1.1652549704737307223
1.1632867693162995959
1.1633321113579280226
1.1633233845014210317
1.1632025640528051991
1.162943560999313064
1.1625779758595768953
1.1621846434868410292
1.1618662340244423348
1.1616948538111773193
1.1616818982094310186
1.1617953694906191231
1.161963704249953544
1.1621200975800349831
1.1621956419313852482
1.1621513133320771072
1.1619694468203840554
1.1616632647855043015
1.1612785443582642753
1.160884434170158741
1.1605455203973986666
1.1602988289040576664
1.1601467095038349164
1.1600625843812641946
1.1600041387524906433
1.1599343670449075994
1.1598304628468900646
1.1597043287529469335
1.1595837220241052012
1.1595097618058836098
1.1595109628487472175
1.1595801927896030037
1.1596783140239346199
1.1597534420690840395
1.1597749392256699874
1.1597428997666443529
1.1596825507421202328
1.1656916294099493037
1.1657055449224658084
1.1657394928851034788
1.1657898284251344556
1.165851344185756755
1.1659166529304956228
1.1659747567040774641
1.1660128352702918697
1.1660176404350954815
1.1659790073761644447
1.1658909201105860376
1.1657560835013081046
1.1655860978635523839
1.1653994505609681642
1.1652231497825376039
1.1650821739169994196
1.1649994779165848691
1.1649891092461870379
1.1650502592785876299
1.1651766874936566598
1.1653458782715651054
1.1636568483921296835
1.1637019206488075085
1.1635898236301513986
1.1633191667303846017
1.1629489064078639693
1.16257419000034945
1.1622945944922691286
1.1621618784867424612
1.1621745654240864809
1.1622930423447539461
1.1624584694948054686
1.1625995024111892562
1.1626536899334884989
1.1625764499264803487
1.1623454893789311182
1.161981660977374986
1.1615454677781897885
1.1611266070421661922
1.1608067405553599283
1.1606198858469254365
1.1605442761009236996
1.1605194664846762986
1.1604750138509762891
1.1603639998612140793
1.1601787822383240467
1.1599544288363563549
1.1597452265773968705
1.1596026656269502464
1.1595545008460030889
1.1595866548135180807
1.1596582463064695201
1.1597247815660178816
1.1597623565224739473
1.1597742358173850352
1.1656686029214233802
1.1656702006648724801
1.1656867754375863644
1.1657153447573058713
1.1657506527250824924
1.1657851757567860851
1.1658089591969711396
1.1658096143012641743
1.1657764312149381247
1.1657027516753621921
1.165590259296832798
1.1654485422112883519
1.1652939159340891528
1.165150259721632553
1.1650406115777125482
1.1649873059980933032
1.1650031712033031006
1.1650889686786218835
1.1652370943007490656
1.16542666956341745
1.163959987194296497
1.1640134101049843807
1.1638720599213503437
1.1635776941602946621
1.163222831002341584
1.1629149137844976281
1.1627272440694824684
1.1626774485542812343
1.1627424603055047658
1.1628736538398971589
1.163019883292309542
1.1631191812289360943
1.1631201515588505124
1.1629803719101670101
1.1626811535755274818
1.1622509396184534936
1.1617650559838390567
1.1613233609993824924
1.1610174026694044525
1.160882955998534305
1.1608816115665805402
1.1609232903533543979
1.160909382209678764
1.1607780588682872214
1.1605327891430399223
1.1602183743559320028
1.1599144284467730603
1.1596868326025302487
1.1595682405732796738
1.1595477639457549834
1.1595870538669366123
1.1596487607630967531
1.1597148136746227021
1.1597853291089181837
1.16558049476564074
1.1655501275965558516
1.1655303887820216424
1.1655215930907030231
1.1655221929742618503
1.1655278734290364095
1.1655309918746921127
1.1655215101546561041
1.1654908326292838794
1.1654332730523357942
1.1653493905019780552
1.1652458317291951584
1.1651358313984607751
1.1650388304508128012
1.1649735866785146943
1.164958897718656905
1.1650045675789260091
1.1651131905287062107
1.1652767706583573304
1.1654778447449940515
1.1642390691482586984
1.1641229130898551603
1.1638570842545370443
1.1635540615298951561
1.1633165684152926289
1.1631931649209446
1.163182636079660881
1.1632523713843139213
1.1633620301046572187
1.1634708883390849632
1.1635307208456096006
1.1634927761320577044
1.1633090234837937249
1.1629580235906389341
1.1624678184699972494
1.1619257063742165492
1.1614446645337335173
1.1611224846033405544
1.161002571848690712
1.1610482027665105509
1.1611592228619771472
1.1612130368307280737
1.161121161112373068
1.1608677864993723894
1.1605023477269706955
1.1601120408275618079
1.1597818645532211868
1.1595606519099379561
1.1594599678612520499
1.1594566863012056857
1.1595218839236622888
1.159632638129200144
1.1653919989480401309
1.165334859591944161
1.1652854503546237197
1.1652464568561091696
1.1652170879208720855
1.1651932134048004208
1.1651682192047387865
1.1651352976488413837
1.1650890874097930006
1.1650296951941072621
1.1649627934997557333
1.1649001792787518905
1.1648567651957413283
1.1648455451813779504