/*--------------------------------*- C++ -*----------------------------------*\
  =========                 |
  \\      /  F ield         | OpenFOAM: The Open Source CFD Toolbox
   \\    /   O peration     | Website:  https://openfoam.org
    \\  /    A nd           | Version:  12
     \\/     M anipulation  |
\*---------------------------------------------------------------------------*/
FoamFile
{
    format      ascii;
    class       volScalarField;
    location    "0.0105";
    object      rho_0;
}
// * * * * * * * * * * * * * * * * * * * * * * * * * * * * * * * * * * * * * //

dimensions      [1 -3 0 0 0 0 0];

internalField   nonuniform List<scalar> 
106891
(
1.165214144238884364
1.1651522390444992716
1.1651256947073271864
1.1651392057589611273
1.1651943955868746539
1.1652849484008536152
1.1653989099953006026
1.1655197787409015131
1.1656271797328072726
1.1657043110018963095
1.1657375173414084024
1.1633791422558603657
1.1631470552227383131
1.1629438357533374848
1.1627445602702737304
1.1625179793500555192
1.1622561750145559145
1.1619974523244753772
1.1618119470949004324
1.1617671663968656137
1.1618858935090468076
1.16212052596798876
1.162367371870540067
1.1625127377978887733
1.1624729248570806472
1.1622307686364437007
1.1618295358997405842
1.1613526458319163304
1.1608915287712560094
1.1605168226692699207
1.1602683362125483235
1.160148264792287387
1.1601176291583572553
1.1601066378498474663
1.1600364913952447843
1.1598579818462140256
1.159578701736658557
1.1592686270910819157
1.1590216131349622142
1.1589070743666849417
1.1589398458181976448
1.1590863748520137122
1.1592922812251851283
1.1595093159103204705
1.1597025857092013723
1.1598469221790983497
1.1599156127574090647
1.1598849715912233904
1.1597541079806139575
1.1660857814038827485
1.1660519425639790381
1.1660045427467733425
1.1659433457034915627
1.1658693361069392136
1.165783281539797267
1.1656868807707270186
1.1655830372697018049
1.1654786781518340355
1.1653825277963147933
1.1653050579703203571
1.1652571420864179519
1.1652462510528220907
1.1652767635044143368
1.1653450858368397114
1.165441864251576698
1.1655514591261051383
1.1656550216278698251
1.1657345635884381885
1.1657760741724103593
1.1633950500210754608
1.1631919946595234983
1.162991974398765116
1.1627597791679418204
1.1624781531167320825
1.1621811598029312407
1.1619416339128794124
1.1618392413644902383
1.1619220793165994099
1.1621624122651166289
1.162460783564013278
1.1626947620221033119
1.1627531027521134099
1.1625861614430041957
1.1622207585698871579
1.1617383584701899135
1.1612467936213153319
1.1608394515871023334
1.1605742921696653447
1.1604575091154580857
1.1604400564727868073
1.1604370214259214222
1.1603530295563921904
1.1601339716671041913
1.1597895199279060208
1.1593943104582300485
1.1590558194344082743
1.1588647434510064294
1.1588620420448627613
1.1590297329077110522
1.1593060425539924996
1.1596156517816789133
1.1598853865365206239
1.1600571790868570154
1.1600951759600861557
1.1599921651747331364
1.1660323511654646644
1.1660343204415830609
1.1660261999854593107
1.1660045436131885044
1.1659669189081789398
1.1659113740401667592
1.1658378257498995811
1.165748355221067234
1.1656494863354203151
1.1655500469350699166
1.1654609405632803121
1.1653936565609837039
1.1653576806396004351
1.1653602047879345616
1.1654012382422795913
1.1654747967737768555
1.1655666177330683553
1.1656600143575122086
1.1657358236541899288
1.1657794235605030142
1.1636785572910526287
1.1634933179630420064
1.1632798329790223768
1.163014565873045747
1.1627036827781582762
1.1623924169601305145
1.1621546519928767083
1.1620676324100631671
1.1621708114741868823
1.1624280874545789288
1.162736845165492916
1.162969511807598666
1.1630154094279243626
1.1628246553690058107
1.1624312156580198785
1.1619278019713463745
1.1614334634025609283
1.1610536320382824904
1.1608389334785615965
1.1607774364603644646
1.1608045534577813296
1.1608150781893920023
1.1607130813667558833
1.1604461391274507598
1.1600377177363756509
1.1595710041580595817
1.1591667744181362032
1.1589282776850073908
1.1589146626572941479
1.1591122415107242283
1.1594459496957232325
1.1598104925528942566
1.1600972715351713926
1.1602279615237571786
1.1601764690432527782
1.1599710818341129048
1.1659322915206962179
1.165957990302631142
1.1659759543470877841
1.1659805588927565356
1.1659667187242837016
1.1659315616859045051
1.1658739463016136728
1.165796670614894337
1.1657064106956815941
1.1656143264219376299
1.1655331533311132919
1.1654743465624870513
1.1654471803530697116
1.1654552157259896461
1.1654967014247021861
1.1655599834209247057
1.1656319023071350927
1.1656937332505539207
1.1657313489386564864
1.16382245727746092
1.1636794450678751289
1.1634461304438361573
1.1631359246128332163
1.162810878427464667
1.1625542429646977816
1.162446963998372107
1.1625257553624379625
1.1627501556484312051
1.1630231096562804183
1.1632235921618272467
1.1632443528062175186
1.1630445662558606124
1.1626554076761430601
1.1621626529615327605
1.1616795158677963862
1.1613088545097995929
1.1611051252936648304
1.1610573583060261882
1.1610993574392012295
1.1611305162749343545
1.1610526308794992811
1.1608032784418806926
1.1603902934837437844
1.1598881900306918791
1.1594168111252294295
1.1590999141761109126
1.1590219024525059144
1.1591936788396541846
1.1595434605245911186
1.1599389753233937395
1.1602368551606603297
1.1603358691789629198
1.1602141869531767959
1.1656814828485362323
1.16572186338077044
1.1657689250037215345
1.1658194952410545486
1.165868138727373049
1.1659067560965170607
1.1659266614864021161
1.1659204790867285784
1.1658851322228793723
1.1658222477486535062
1.1657400039854042273
1.1656510688255345976
1.1655703191745134806
1.1655112398070721635
1.1654818165921077
1.1654841845405501388
1.1655093877952831249
1.165548514821636461
1.1655848992664272767
1.1656056796939902043
1.1641848451222691629
1.1641036814937661958
1.1638988665349925267
1.1635866448215999025
1.1632377771161319657
1.1629420123260623132
1.1627758252191253696
1.1627757457586269663
1.1629164844893278286
1.1631227789919895699
1.1632945399894727423
1.1633413645098016342
1.1632179533811535244
1.1629325616338150873
1.1625408196890252288
1.162127775647183503
1.1617826229608272381
1.1615639889552316077
1.1614817709470819374
1.1614877255964892733
1.1614980723525270001
1.1614237501833803989
1.1611958994914450827
1.1608024865814003945
1.1602980699842282419
1.1597929528079107264
1.1594011145068421342
1.1592209627635632341
1.1592846262643099475
1.1595353172124811536
1.1598550717048998759
1.16010341061697142
1.1601783754447319019
1.165398422755483443
1.1654551597481563885
1.1655325430703702416
1.1656239649564630323
1.1657187960922756886
1.1658036557965141267
1.1658640948526552972
1.1658884059011933587
1.1658705590886508929
1.1658134599621023941
1.1657274348677286735
1.1656283822669455397
1.1655330718720826599
1.1654555181398984498
1.1654053042955683228
1.1653796435069583293
1.1653754489620054002
1.1653790803662433806
1.1653780348711648696
1.1644471963980917995
1.1641917811442334951
1.1638344269024947231
1.1634606445682635911
1.1631683278898630185
1.1630200712780502936
1.1630211134542529638
1.1631327523839241067
1.163283663626232256
1.1633954313125742797
1.1634089726785745711
1.1632972285292835224
1.1630648001142473991
1.1627586363443083162
1.1624412956759111459
1.1621744015854043042
1.1619975896458387687
1.1619095779652302003
1.1618661429077992153
1.1617982128640966799
1.161636085076121816
1.1613481647890426807
1.1609371724121555491
1.1604620574782495979
1.1600036706817493659
1.1596510708140641555
1.1594691889495227777
1.1594679920811026275
1.1596004908467829608
1.1597796727664109184
1.1599030812742687768
1.1599013128437503095
1.1649993984409285908
1.1650530329911357175
1.165147697042695274
1.1652772237856210413
1.1654279025943357073
1.1655791884014023996
1.1657080359141045456
1.1657947982296330558
1.1658269981917155356
1.1658025036437269506
1.165727817254013976
1.1656180900285524338
1.1654919847482612116
1.165368638638739851
1.1652643885800404444
1.1651826442521624472
1.1651268421825551336
1.1650886832931974801
1.1650585269829158985
1.1644918610313443885
1.1641300953985085354
1.1637639572054574444
1.1634835853878349177
1.1633391406761126596
1.1633245969533045905
1.1633891333251817901
1.163459609315952159
1.1634721461383927821
1.1633915102530056895
1.1632169219292516349
1.1629864938765923643
1.1627427563231624852
1.1625270311503381748
1.1623642583299307329
1.1622570478534723915
1.1621823139933942226
1.1620998358224994274
1.1619673441401503489
1.1617457107038284825
1.1614240831017796918
1.1610302743356277766
1.1606155561062163617
1.1602344414116316784
1.1599437029369934482
1.1597631523700782097
1.1596895926833250545
1.1596898967486088949
1.1597034697189332331
1.1596799620927400465
1.1646371909777064602
1.164739988785508773
1.1648940252070185686
1.1650819843218034322
1.1652787248747984439
1.1654569933823297756
1.1655919727195245272
1.1656650436199356147
1.1656687129109726264
1.1656067592532692867
1.1654948153797770605
1.165352505753703749
1.1652001818375647968
1.1650568069696842777
1.1649305966641252397
1.1648318517021130081
1.1647588660886509793
1.1647053422273716539
1.164545914102234736
1.1641869512270224263
1.1638420628139307667
1.1635843107475143388
1.1634433109202109158
1.1633969787218625402
1.163386843195485465
1.1633541879797364427
1.1632592733933995177
1.1631169580060838342
1.1629577339975813999
1.1628073305946713401
1.1626799741385858145
1.1625667439841744777
1.162453261658899839
1.1623276971740994501
1.1621759187100890731
1.1619829284564866523
1.1617386495278139158
1.1614362929193569052
1.1611001419737663198
1.1607491550700905769
1.1604193093738888187
1.1601360122750743464
1.1599072000293615403
1.159731088413883171
1.1595947318067973963
1.1594831792440964957
1.1642887370550458748
1.1643878970052603528
1.1645411439693069688
1.1647314714704757321
1.1649348185122356814
1.1651240382028718034
1.1652729173858817902
1.1653613984353092814
1.1653806302965026287
1.1653319866635600821
1.1652281023299386753
1.1650856884357316812
1.1649244476250393276
1.1647655424868270657
1.1646211913256185877
1.1645061533020071298
1.1644225435521209366
1.1643660122348953312
1.1643527150817145621
1.1639358184497334836
1.1635545320531999192
1.1632819860805951873
1.1631361198314174032
1.163080409441144436
1.1630585998691744809
1.1630351076081211215
1.1630006096094704926
1.1629553316366114668
1.1629121031238920381
1.1628460272987153346
1.1627319087463583447
1.162571766283954755
1.1623765254045368422
1.1621622167336622677
1.16193702218226802
1.1616928977493712338
1.1614171152891370475
1.1611066421172393515
1.1607607894168916474
1.1604047735206923786
1.1600692939196719511
1.159773437695021725
1.1595304956021157405
1.1593510251357539431
1.1592355840887340612
1.164093615587833197
1.1642203935164836537
1.1643790138454916949
1.1645487211717122644
1.1647068540291360961
1.1648319037471734916
1.1649076694828583989
1.1649262917649314542
1.1648868907431519926
1.1647982447558968833
1.1646735988395797712
1.1645308767570610176
1.1643905615298972833
1.1642648473055439151
1.1641675587491779886
1.1641023524298523828
1.1640678657761445169
1.1645827960444286031
1.1641914718860524314
1.1637281186437047342
1.1633171183312795982
1.1630468815688628226
1.1629265201898604243
1.1629060562628350528
1.1629108166880925967
1.162893537575071079
1.1628465614954515139
1.1627859530422453016
1.1627132402525766075
1.1626243444260291326
1.1625045614696798424
1.1623507179570651271
1.1621832140660841581
1.1620303227116104416
1.1618947872629905582
1.1617393088897285391
1.1615157843257859493
1.1611830249399359705
1.1607605131329514769
1.1603011189202998565
1.159876671383030633
1.1595513568076953881
1.1593442061181098435
1.1592390064336663968
1.1639160155205461322
1.164023983217189917
1.1641407787417152875
1.1642482128809910069
1.1643298462013467187
1.1643742534388776821
1.164376406834932931
1.1643360295208027289
1.1642614243802789087
1.1641639181577707607
1.1640581787296673255
1.1639604955208080472
1.1638804876944552902
1.1638298296117208785
1.1638126474967880331
1.1638275176939973932
1.1644002878251644706
1.1639839449931499438
1.1634868092574781606
1.1630453074080071563
1.1627577212781368132
1.1626460057178800156
1.1626527593165258967
1.1626890474974922451
1.1626964441799021444
1.1626473033492521481
1.1625543421736801442
1.1624239882226625742
1.1622648471314622753
1.1620884603682419822
1.1619138477401307341
1.1617869923896175788
1.1617397217035565493
1.1617508986325684184
1.1617597436363955588
1.1616707484489225966
1.1614079560439187766
1.1609641393129903619
1.1604149558830971767
1.1598719663174803518
1.159430945714389205
1.1591423335881143597
1.1590080839935643642
1.1589927239581840901
1.1637880881120499232
1.1638677659321419178
1.1639375520331278757
1.1639835695817262184
1.163997023044553325
1.1639755044401725037
1.1639217993403185858
1.1638466302316263778
1.1637623454401413436
1.163682701830596633
1.1636215541498287074
1.1635864648243534614
1.1635847029172943223
1.1636167679338571546
1.1636777290553519393
1.1633212998222373091
1.1628366379474350811
1.1624739938009978069
1.1623062339166168044
1.1623255433026740135
1.1624425155207684934
1.1625463213866873424
1.1625629914311568225
1.1624663501864560544
1.1622812603143373167
1.1620504660620469828
1.1618197762067123957
1.161629150285673262
1.1615205112211341998
1.1615230255736055387
1.1616211412611279208
1.1617562464029507208
1.1618295452286180325
1.1617350297770487888
1.1614172128099768955
1.1609084211455227287
1.160302044508787489
1.1597277801902914351
1.1592848365504224706
1.1590103526515809218
1.1588886374735054563
1.1588737979948409151
1.1637288699228365285
1.1637795700727171511
1.1638034445119422866
1.1637938336112931825
1.1637516698243870472
1.1636833959242294245
1.1636023999099132098
1.1635225997782112639
1.1634580072396034645
1.1634210202679173829
1.1634170097175815517
1.1634483421751795618
1.1635114425239638791
1.1635972367797458027
1.1624007515056113959
1.1621091718213749644
1.1620391359913029294
1.1621483789034519063
1.1623211739447709689
1.162435499614262957
1.16240415819770182
1.1622179281837532461
1.1619179865000575091
1.1615910870198888905
1.1613144545504667793
1.1611576213394319002
1.1611645375061525609
1.1613250620112742784
1.1615779842732791849
1.1618213306807063656
1.1619316878887155919
1.1618159420666667181
1.1614494989618688869
1.1608993902996076475
1.160281012380582899
1.1597166420710485202
1.1592920249208651384
1.1590314865217807849
1.158902234018722055
1.158852985101551436
1.1637451276124803901
1.1637532941063131187
1.1637239733186317547
1.1636622346788920712
1.1635788396750841311
1.1634902706680083639
1.1634118721756976367
1.1633573606150311441
1.163336434951093068
1.1633512762399493834
1.1633988416032314817
1.163471730032649587
1.1635583443896777567
1.1618967328206073475
1.1618673717819272273
1.1619967830055231151
1.1621658587986736233
1.1622527760547793907
1.1621824484697944602
1.1619459382404628833
1.1615975739584769588
1.1612324009138774716
1.1609465788727753033
1.1608221911363008072
1.1608979052154044798
1.1611483334604466577
1.1614897455877291055
1.1617932034836706556
1.1619326058095040821
1.1618324591874096274
1.1614928968739266502
1.1609839519832667598
1.1604156577655111438
1.1598882892266391131
1.1594654118227281092
1.1591661181303949402
1.1589689977525734488
1.1588400350996155286
1.1638212649841546131
1.1637778468199060367
1.1637005494212537826
1.163604433026885987
1.1635087224999551836
1.163429479075028361
1.1633788271847067541
1.1633628089708716313
1.163380549278545395
1.1634247531587662561
1.1634858929019742391
1.1635515450609870136
1.1616921391820431708
1.1617951373140233962
1.1619065087081874577
1.1619264318218309739
1.1618059510022091807
1.1615467095571556655
1.1612052482080383875
1.1608723062334715959
1.160645858938269992
1.1605993225009352265
1.1607570667868423175
1.1610831380039028371
1.16147444667712052
1.1617936245532249906
1.1619255377755750569
1.161816414562479638
1.1614900233797738061
1.1610223092421252389
1.1605073148595992372
1.1600186642678698146
1.1595960029763887622
1.1592515236927312117
1.1589800100036464769
1.1587721105510406794
1.1617427327251326208
1.1617622908828924011
1.1616988032955175569
1.1615239183555017277
1.1612565261834535413
1.1609548875020403447
1.1606912609735484665
1.1605445460729779672
1.1605704773445735256
1.1607765380898935614
1.1611104576700412849
1.1614690785398189554
1.161736409810155024
1.1618231659577462622
1.1617076312180449893
1.1614212475806888758
1.1610300229272609851
1.1605961071154973219
1.1601626929470265637
1.1597555601566087446
1.159388520228707975
1.1590737817197607207
1.1588242469464578033
1.1615261123247058173
1.1613026011436151652
1.1610438071161286455
1.1607956043444846994
1.1606080314515712093
1.160531434522073857
1.1605992129537685553
1.1608075001931636994
1.1611065951892725057
1.1614118837411495644
1.1616357520803417547
1.1617176624659504292
1.1616472426063368939
1.1614491137049625102
1.1611603080992338732
1.1608076555508017869
1.1604091510308551793
1.1599849098716890072
1.1595648005591061569
1.1591898201620063347
1.1588993867135828353
1.1604667747364101338
1.1604473876307179747
1.1605491134169441114
1.1607615836235329887
1.1610405352973756088
1.161317195048511941
1.161517283908283904
1.1616015914760362548
1.1615656472791076048
1.1614307014435623078
1.1612111843660912758
1.1609144323340985228
1.1605432530628465582
1.1601166177021489112
1.1596761845875245278
1.1592800289346445464
1.1589809613095372054
1.1609686729006574168
1.1612168853850459715
1.1613850841991348872
1.1614473548193524621
1.1614088270531075509
1.1612919968052481945
1.1611051575806110581
1.1608420544857214196
1.1604986400373773492
1.1600934700359120111
1.159676101897328504
1.1593105913027446086
1.1590480964547433818
1.1611696697495881292
1.1612906060850167744
1.161322728126380488
1.1612753229692591717
1.1611635123267265435
1.1609916346121544883
1.1607426284595279142
1.160408798716723533
1.1600126290281276287
1.1596125544242490424
1.1592795924722403278
1.1590594258979181053
1.1674193719555414628
1.1675534899029040847
1.1675664998975396891
1.1674168614111337661
1.1671017935383878328
1.1666816561002502084
1.1662783716346312168
1.1660209022093495079
1.1659743201261618673
1.1661016326165651869
1.1662939878222269297
1.1664417906472717146
1.1664880048308901017
1.166430103778258065
1.1662961619096487986
1.166132194859871074
1.1660030310637437001
1.1659816087034320375
1.1661216820601318922
1.1664269770704778217
1.167093152204636386
1.1673022545201741096
1.1675048140303396771
1.1676278742321708481
1.1676071300091563909
1.1674072872875820295
1.1670505193224216534
1.1666331850799447345
1.1662870481662808153
1.1661069978826013038
1.1661010701689045188
1.1661993475464358383
1.1663116597233225136
1.1663783969642895766
1.1663823473789429741
1.1663296181979629917
1.1662426494816633404
1.166158598039721328
1.1661289927355671381
1.166196903124510964
1.1663782274355245505
1.1666692073636333316
1.1669300589460149808
1.1669095120417705136
1.1669807092527109127
1.1671387915857911466
1.1673322817912799021
1.1674938775003802505
1.1675535550289282138
1.1674544248144851366
1.1671847986487149385
1.1668077086350432392
1.1664442605079636817
1.1662020267135542184
1.1661168259531387026
1.1661458622377900429
1.1662134210065295825
1.1662627721799156966
1.1662750545531477275
1.1662547179429505473
1.1662171110010937092
1.1661839959431736791
1.1661834950000213862
1.1662375411351095789
1.1663579595862838545
1.1665565543913665181
1.1668453235016353897
1.167223708689591799
1.1668398378475917099
1.1668687394676766633
1.1668769244623644621
1.1668938457516333518
1.1669125330398624207
1.1669027510768972267
1.1668441177122084174
1.1667248308778774835
1.1665308529770039847
1.1662620182617342568
1.1659632747784423046
1.1657230572704437854
1.1656161513379557082
1.1656483415769816059
1.1657527860160519229
1.1658375733368244731
1.1658449675918236554
1.165778047909904247
1.1656814785753535357
1.165611880018370794
1.1656152472748848581
1.1657136929023215188
1.1658987635002144856
1.166141711667027181
1.1664154297639082181
1.1667089604815954473
1.1670151570373923366
1.1672990891936574354
1.1662578429648293721
1.166447406155969535
1.1664374364459588751
1.1662412692581092255
1.1659138387674732318
1.1655203433108698441
1.1651276277189566155
1.1648095589488387525
1.1646186269919931444
1.1645458636051606582
1.1645378421267413849
1.1645503450451899496
1.1645822713379689883
1.1646504949865748024
1.1647423625118638046
1.1648111912474201635
1.1648108089789661612
1.1647385906385252508
1.1646485670158228665
1.1646141318842722079
1.1646875981166111558
1.1648731358738859676
1.1651248312012481012
1.1653665234295331743
1.1655246875201117351
1.1655679156654061845
1.1655235241665058421
1.1654476621702587469
1.1653718818501788146
1.1652744037392428478
1.1646158071316985438
1.1648129309125367925
1.1649024833007224355
1.1648480339951281515
1.164684707076416359
1.1644655537042654103
1.164225120960335591
1.1639878605139208911
1.1637906751382154358
1.1636660017203932505
1.1635997010202820956
1.1635445298806270653
1.1634729986185368134
1.1634126352672649052
1.1634129010303937424
1.1634824776936651958
1.1635718752965760192
1.1636098705088770977
1.1635603764048216835
1.1634512618259142958
1.1633500749624192672
1.1633216037559124256
1.1633910026709970431
1.1635321409697299
1.1636851010358320035
1.1637870948813426875
1.1638140701915975495
1.1637956069057238118
1.1637847519294515219
1.1638044436126875336
1.1638138371366912871
1.163736349112880486
1.1640956759657146158
1.164340713839860264
1.1644639158246785637
1.1644121562466729358
1.1642202637849403679
1.1639506742375091974
1.1636480631189021206
1.1633492506033209501
1.1631049790478180661
1.1629588561873598351
1.1629023756910323861
1.162882305808611294
1.1628595475380794078
1.1628517108787652656
1.1629017220993576043
1.1630128439607578805
1.1631246740212242141
1.1631560193396541791
1.1630704429483842421
1.1629056961443471341
1.1627505811021587867
1.1626896053070066017
1.1627570631232297949
1.1629230053195076522
1.1631150686799724969
1.163260751888089306
1.1633330617985657707
1.1633661340899847936
1.1634201458497142045
1.1635180629700045962
1.1636054288087760433
1.1635873393531166453
1.1633960499941073952
1.1695196906939955284
1.1696465169601109046
1.1697352971314778358
1.1697043003084932611
1.1695320876807324684
1.1693373558266015877
1.1652033323623276484
1.1654955046010810893
1.1656542571278383225
1.1656234201228312664
1.1654437647228488295
1.165184895157822309
1.1648955967602352413
1.1646149781994221684
1.1643972280441856615
1.1642869821581225409
1.1642749992620304855
1.1642994162954172221
1.1643131076219845887
1.1643311550998833859
1.1644013230207774789
1.1645345694527351466
1.1646722618220959333
1.1647308636052571273
1.1646733800315516305
1.164538466353498336
1.1644187537957604306
1.1644020185142123225
1.1645197257373154365
1.1647348859613331218
1.1649665191209388482
1.1651396525554391648
1.1652293384835108458
1.1652793880801373128
1.1653597026914916945
1.1654954617828536811
1.1656275666115216705
1.1656499682646153104
1.1654903153308353581
1.1651770904323284217
1.1719589931829021978
1.1721956737180152519
1.1723669540381045362
1.1724850246749591864
1.1724696001896408593
1.1723108482741966263
1.1721417718683835307
1.1693059191891423954
1.1696351162145830482
1.1698259549392600043
1.1698207411875172212
1.1696622477427365272
1.1694218424372151421
1.1691487088802214878
1.1688815134286416608
1.1686769312887552719
1.1685811602863216407
1.1685869977534031339
1.1686291846434839758
1.1686579292344851932
1.1686875600084469795
1.1687680288598820688
1.1689137867796843828
1.1690658514215630515
1.1691374128768912133
1.1690904729537825446
1.1689635531932007773
1.1688503917586616776
1.1688422456488281043
1.1689707207987098947
1.1691968038102349414
1.1694369301377192105
1.1696145642149065047
1.1697045442017943717
1.1697558466956399226
1.169841794430199311
1.1699871901387648432
1.1701307912968395009
1.1701589013714539522
1.1699977070769069787
1.1696750826039756799
1.1693284819706464273
1.1660319649905126482
1.1658752541909807032
1.1656840828950512101
1.165477772182549332
1.1652830535031102333
1.1651215149241804792
1.1650123703441237488
1.1649690465887654334
1.1649860900459072521
1.1650580148748801435
1.1651640956384385905
1.1631252166023458017
1.163066560636861313
1.1629927570770779433
1.1628479624140717341
1.1625918571336573137
1.1622324998516091465
1.16183445562310661
1.1614923942703199167
1.1612851007171012263
1.1612432214678203302
1.1613390188423098337
1.1615029677707400246
1.1616669926132550117
1.1617651908020127927
1.161756966393308943
1.1616253661584228229
1.1613759212301064672
1.1610387938807285035
1.160662586668033347
1.1603018713914547977
1.1600032782535463216
1.1597952024044528851
1.1596800580350412613
1.1596335527895464956
1.1596166321205338967
1.1595873856716552019
1.1595268255817896552
1.1594487621294267132
1.1593944034545875521
1.1594033714750042741
1.159483194695302366
1.1596007653067559318
1.1596992135006065627
1.1597354139111037963
1.1596974437245610723
1.1596023068197898187
1.165655481175277064
1.1656982367693236036
1.1657633581665527434
1.1658456045159226733
1.1659367001884664017
1.1660255621312929364
1.166098710545418804
1.1661428696278228756
1.1661452260389479907
1.1660972830615949913
1.1659954011217357195
1.1658444544997859094
1.1656578351867659116
1.1654549416135790985
1.1652634467557281273
1.1651074910248970795
1.1650087345018098617
1.1649815135278400735
1.1650229880443288
1.1651270654539735983
1.1652701760989985225
1.1632868489767895781
1.1633330208616197154
1.1633240520582079913
1.1632013088987087635
1.1629392917863459189
1.1625708546485769013
1.1621761552069649337
1.1618581799335645499
1.1616885564247945162
1.1616778406554448821
1.1617937148125929703
1.1619646786081008205
1.16212353440881766
1.1622013228031662369
1.1621583641102708473
1.1619764183879912611
1.161668788960634302
1.1612820347498014062
1.1608859767481884973
1.1605457132287275712
1.1602985382040511553
1.1601468540451993494
1.1600639005431199191
1.1600069541579804966
1.1599386046485253843
1.1598357446752076694
1.1597101555034194931
1.1595895727640157524
1.1595152279850107213
1.1595155288820557793
1.1595831294626333108
1.1596791203543379556
1.159752473032802822
1.1597735028886062558
1.1597428320369029819
1.1596851052167853613
1.1656925399840580848
1.1657076225908422629
1.165742477204969596
1.1657933373848190506
1.1658549180384307764
1.1659197801843725895
1.1659769020448866872
1.1660135162552258681
1.1660165324688063215
1.1659760370017218101
1.1658863392453142627
1.1657505194628083878
1.1655805271409791501
1.1653950800035781654
1.1652212051728980668
1.1650836578416849942
1.1650049766370849103
1.164998631886658309
1.1650632272848846505
1.1651920090943330699
1.1653620498169281472
1.1636607785091654943
1.1637042100860448546
1.1635896142151831434
1.1633165613520448645
1.1629448285340797664
1.1625700392827675866
1.1622913090978079786
1.1621595472026171603
1.1621729483893594725
1.1622921385788569371
1.1624588486684401811
1.1626012826394225286
1.1626570514687915026
1.1625805061071949886
1.1623491214262857696
1.1619840348791046214
1.1615466080066014776
1.1611273716782912757
1.1608079165022879842
1.1606216424134656595
1.1605462611194106159
1.1605211732021900595
1.1604761736441837616
1.1603647410469326573
1.1601795621063348829
1.1599558909225116121
1.1597477233878508152
1.1596060214718553194
1.1595579459309894865
1.1595893432354387187
1.1596596576962330261
1.1597254472798308456
1.1597636122829768635
1.1597776765985505776
1.1656672370472882516
1.165669906077826834
1.1656874289024286018
1.1657166607822448956
1.16575224258728527
1.1657866051884822056
1.1658097831915843479
1.1658094600671817798
1.1657751316624598292
1.1657004487200210985
1.1655874260938026143
1.1654459181804095458
1.1652924212804498527
1.1651508709818745313
1.1650441688486381508
1.1649943049717985666
1.1650136100768508918
1.165102354713678956
1.1652525140397891334
1.1654428698391203767
1.1639660740073562994
1.1640163110306454008
1.1638723884763528815
1.1635770053377110234
1.1632229149142927493
1.1629165550377402738
1.1627298736022870784
1.1626795730651384719
1.162743185271342794
1.1628729022887742683
1.1630186328565523812
1.1631184055273489086
1.1631202519689547437
1.1629808015747973293
1.1626810827258005077
1.162250050853669503
1.1617638387981397141
1.1613231153182372868
1.1610191922725159319
1.1608867780195584185
1.1608861401021559612
1.1609267517969583672
1.1609105591593191775
1.1607768864166492229
1.1605301119693143264
1.160215692877959448
1.1599129928161058256
1.1596869584700300049
1.1595695291544088068
1.1595495290036883507
1.1595889414535229811
1.1596513027354211633
1.1597191720705053442
1.1597924790112648097
1.1655760918287036976
1.1655466882936291739
1.1655279942499798818
1.1655202244940696676
1.1655217133602251423
1.165527996030248481
1.165531325593615275
1.1655217030824158719
1.1654906937060691696
1.165432826020473156
1.1653489028863499577
1.1652458069082869407
1.1651369499117116835
1.1650418127365798071
1.1649790256186116633
1.1649671000021935008
1.1650154442628548601
1.1651262713891223921
1.1652912743515984051
1.1654927986678411678
1.1642425181345550378
1.1641241861989239936
1.1638589812467670104
1.1635586783299280977
1.1633237097719408837
1.1632007401516031297
1.1631880688851863326
1.1632542141503030564
1.1633605782301768006
1.1634676083154258386
1.1635273412022959505
1.163489992825813113
1.1633065149914343372
1.1629550317914638669
1.1624642688568436188
1.1619224315838536654
1.1614431955525428286
1.1611241701771699564
1.1610076281729058145
1.1610551708341152466
1.1611655479401363777
1.1612163058827786877
1.1611204370292012023
1.1608638202703720488
1.1604967962285801519
1.1601068364408440026
1.1597782452709974876
1.1595589979221070376
1.159460257486950141
1.1594589067775649127
1.1595262481633443752
1.1596397683691592739
1.1653861803823297727
1.165329937209936384
1.1652816188219408122
1.1652437557088659581
1.1652154277726534115
1.1651924220928073783
1.1651680903638055309
1.1651356492299729251
1.1650898357591572552
1.1650309374355527492
1.1649648255614699632
1.1649034041970987019
1.1648615564365722985