/*--------------------------------*- C++ -*----------------------------------*\
  =========                 |
  \\      /  F ield         | OpenFOAM: The Open Source CFD Toolbox
   \\    /   O peration     | Website:  https://openfoam.org
    \\  /    A nd           | Version:  12
     \\/     M anipulation  |
\*---------------------------------------------------------------------------*/
FoamFile
{
    format      ascii;
    class       volScalarField;
    location    "0.0105";
    object      T;
}
// * * * * * * * * * * * * * * * * * * * * * * * * * * * * * * * * * * * * * //

dimensions      [0 0 0 1 0 0 0];

internalField   nonuniform List<scalar> 
106891
(
300.68984166475200936
300.68311806257730723
300.67986794604905754
300.68096152409123079
300.6862020897388561
300.69525213713950507
300.70688683626036664
300.71915973032201919
300.73032440417387079
300.73833214724481877
300.7417246927642509
302.23204059609611249
302.17715612339122799
302.13345462905277827
302.11262083370434084
302.11599297912971451
302.1359175897613909
302.16051450169425152
302.17798195448239085
302.18026824469819758
302.16479877085470207
302.1343371342966293
302.09652624731666037
302.06330526572423878
302.04754108221897013
302.06009283252200248
302.10483844433400691
302.1764410562628882
302.26137234890865102
302.34236632854396021
302.40533090684346007
302.44407687306988919
302.46100314718722757
302.46451962991653772
302.4646007983334357
302.46952580061571325
302.48356017401920326
302.50633010036409587
302.5319861182256318
302.5503395557851718
302.55061872432042946
302.5270521470828271
302.48286018653755036
302.4300446099868509
302.38441109949064867
302.35903503019380878
302.35867981572192775
302.37895477913173181
302.40999668881278239
300.78171829826305839
300.77823671049003451
300.77333887824192971
300.76703178020812857
300.75934509437496445
300.75042508423229037
300.74029601079888607
300.72938595689714703
300.71823135279333883
300.70786350927886588
300.69938131994132391
300.69381049036684317
300.69226278414981834
300.69490962281179236
300.70165225759859595
300.71143723822859783
300.72267303496619206
300.73339373414370357
300.74163781438602427
300.74600674616681317
302.18461279543100773
302.14196438361938135
302.12424658243259046
302.13332752473661458
302.16069074816755347
302.19331533956568592
302.2181602482015137
302.22611086565461846
302.21441832503091973
302.18542006477912309
302.14633685543657293
302.10944558277981287
302.08809154036396194
302.09372562327649803
302.13189380884142565
302.19872456852453979
302.28184070141560369
302.36399853273906047
302.42989781364002511
302.47117542345847596
302.48810993132434533
302.48818548699949815
302.48160753096493636
302.47861248975112858
302.4856977566046794
302.50393691399170848
302.52850216147993478
302.549797988391731
302.55742568414206062
302.54470225388035942
302.51217275000840345
302.46847086912777058
302.42657507418027762
302.39858512557549375
302.39092500406627551
302.40244717847747324
300.77595468962618952
300.77643233754594121
300.77582936391593194
300.77378890185309501
300.76999196797197555
300.76427617198390863
300.75650528806642114
300.74700819722005463
300.73631267511893839
300.7254790362140966
300.71564972864410947
300.70797418363480347
300.70371188621732017
300.70342910334312592
300.70736825464058484
300.71471325342366754
300.72430220209957952
300.73398476252532419
300.74189953547994492
300.74661884149452362
302.18601399617097059
302.15062096881342768
302.14340457566891018
302.1630033223218561
302.19871373850315877
302.23506823810680544
302.25775583313134121
302.25886165827404284
302.23855681973759602
302.20318594161892634
302.16387122898316875
302.13435387095336182
302.12713720296892461
302.1498935355829758
302.2031298573306799
302.2781623714195689
302.35989696406602434
302.43223301051148155
302.48284884741303813
302.50755157168566711
302.51080095467261799
302.50154497269983267
302.49047253847101047
302.48585455328378657
302.49227382521490881
302.50830152579123933
302.5283615109940456
302.54374651974080734
302.54728725474819839
302.53542265349989293
302.51002423489370585
302.47815590723655532
302.44866008023944914
302.42920999720968211
302.42408430916322004
302.43305266027016387
300.7657588161100648
300.76870255140823929
300.77077801053013673
300.77134133901279256
300.76988311399674103
300.76601872843656338
300.75973520265250727
300.75120412644633916
300.74126665465212227
300.73108183359659051
300.72199520133716533
300.7153841396868188
300.71212691684871743
300.71279140050552314
300.7168849105567574
300.72380028419962628
300.73136051255283974
300.73795671631489768
300.74223131415254784
302.16500243477327103
302.14930270047545946
302.16088567207003734
302.19386329900515875
302.23523212233436652
302.26861449420067629
302.2814788467169933
302.26949517108835153
302.2372131591595803
302.19773453908493366
302.16810456705724164
302.16290989568608438
302.19078178645457911
302.25067246868144366
302.33170005249542101
302.41723024655033214
302.49039267736077363
302.53861193345375113
302.55678437454207597
302.54854623629142907
302.52417676498765786
302.49720198319488418
302.4796475053039444
302.47895427116600331
302.49494903896032838
302.52031444830276996
302.5437281625136734
302.55484344225101268
302.54838193333119989
302.52565103618746889
302.49325306721300421
302.46054268699828071
302.43646999443018331
302.42734922454985735
300.73896596571910322
300.74331279799031336
300.74829892105930185
300.75359010340395116
300.75859288309527528
300.76247534220880198
300.76428337312580652
300.76333337269011281
300.75921506402795558
300.75224390899563787
300.74323912184758001
300.73358790323459289
300.72490556684061858
300.71859671964273275
300.71563636603866598
300.71581948309091104
300.71906918818308441
300.72332286134917467
300.72733929031102207
300.72999048276614076
302.17984908250980425
302.15801779620863954
302.16145005288586844
302.19163033375087934
302.24124221810654944
302.29502892678499393
302.33515267707406338
302.34833704593148695
302.33075682268014361
302.29041209116394384
302.24448439264818944
302.21313509726900293
302.21279717508207341
302.24994026428839788
302.31868589274915848
302.40311763804118073
302.48291076065385141
302.5395261014370476
302.56230727780319967
302.55113109403470162
302.51684361252375766
302.47719081788233098
302.4493894584158511
302.44492929186657193
302.46563020262874488
302.50424657248936455
302.54610389822414618
302.57707635588724315
302.58734158894986876
302.57348328893266398
302.54003887998055689
302.49707717225220449
302.4576196121216185
300.70847509324158864
300.71432107470468509
300.72229936647772774
300.7317194739392221
300.74147354780086516
300.75015503463515643
300.75631539154136362
300.75866059935839303
300.75668519435532744
300.75060616169258765
300.74161008293822306
300.73128723364686721
300.72146554872102797
300.71369813325640052
300.70846398339000416
300.70653146060658401
300.7062363607738007
300.70672826534593014
300.7071437374713696
302.18193838390783412
302.20131844073131333
302.24547892385498926
302.30547086057720207
302.36656587504455729
302.4112099211019995
302.42469848844359603
302.40209258711195162
302.35063494479982182
302.28866167784298113
302.23996676491367452
302.22524180934800597
302.2534618175324681
302.31960724547309383
302.40516810328938391
302.48547959179308009
302.5391888189482188
302.5557562619935652
302.53847924511876499
302.5022452867479501
302.46672764655568244
302.4498235015910268
302.45958716144872369
302.49418598910239098
302.54192759424881842
302.58725156800426248
302.61619267522837617
302.61982311491186692
302.59697592862141846
302.55437139975595073
302.5035619332363126
302.45882877401214728
300.6660069574097065
300.67156299518035212
300.68138655621004318
300.69485114976680507
300.71052554318816874
300.72629757098286518
300.73978896681234119
300.74889155605887936
300.7523935066891454
300.74993460213664775
300.74234650895050436
300.73101058692566312
300.71801620178490566
300.70543465404631434
300.69438927155215424
300.68647513340005162
300.68060444042384916
300.67651720657835313
300.67390674147759455
302.22678135658776455
302.2827897942263462
302.34916954525937172
302.40930400723681259
302.44613569633617089
302.448171231436163
302.41456166562346652
302.35654868864185119
302.29501073977905889
302.25388405118155788
302.25129876284756847
302.29360100626973917
302.37048748358313333
302.4594209105724758
302.5339463922853156
302.57375317398157222
302.57173861154149108
302.53601876357333822
302.4862120237438603
302.4446624651162665
302.4295405005573798
302.44882032269788397
302.49732346858939991
302.55815832959291356
302.61122594790708717
302.63836775881884478
302.6317121358829354
302.59507661801779932
302.54069659091163658
302.4860279038518911
300.62863147512166506
300.63934378003233405
300.65541964396669528
300.67504029603105664
300.69563168128036068
300.71434033249119011
300.72854941662808415
300.73638887872039049
300.73689167876773354
300.73064622037674098
300.71897446857212799
300.70414564259931467
300.68836381956418791
300.6729865395754473
300.66020076823787122
300.64964105214676238
300.64172979160116483
300.63673057072139727
302.27498408470177083
302.3483567283195157
302.41405168108229873
302.45417135017254395
302.45748653100099546
302.42407757912735633
302.36640566330504498
302.30647919409290125
302.26815630392604817
302.27089060976510382
302.31972145945161401
302.40244312447299535
302.49451408407668396
302.56721012936105808
302.59931212670238665
302.58478043287993842
302.53359086467804673
302.46766376415052946
302.41311498632677512
302.39051905372025431
302.41036564428907241
302.46624130337670522
302.540156103007007
302.60750558671139743
302.64611889141622214
302.64517790080799386
302.60803650900010098
302.55043574814510521
300.59232635455805394
300.60264452539996682
300.6186450032393509
300.63852098627137366
300.65983290699915642
300.67970765569299374
300.69540603978822446
300.70487259359583732
300.70696967295486957
300.70209093602107941
300.69117170157784358
300.6762253357286454
300.65939733416212221
300.64225049665111555
300.62739348762499958
300.61503993559006176
300.60595312916200328
300.60069222918190235
302.36253220601423664
302.42816947307119335
302.46927342099849056
302.47678282936533378
302.45018215840241282
302.39866727511611089
302.34069846002188342
302.29965868417366437
302.29520811846515471
302.3338419837276092
302.40713897460642556
302.49009469534979644
302.55348155924656339
302.57699447944753501
302.55505691022267456
302.49877558666588584
302.43090650908072803
302.37696487167011128
302.35709886564427507
302.38007668233660752
302.43949800388367066
302.51825355920050242
302.593301641477467
302.64255496480120655
302.6533878820866903
302.62692430372015906
302.57629155182729619
300.57163785482367757
300.58496225287888137
300.60161543452579735
300.61951457561775669
300.63621945447800954
300.64950860129488319
300.65770268786610586
300.65976045929016891
300.6558834976599428
300.64655492424481054
300.63344819455397783
300.61853229662665399
300.60332189443113293
300.59030523038143201
300.57981596075063635
300.57261581615955492
300.56958153193403405
302.28474700894361149
302.36161496066574728
302.42319584198577331
302.45925125604259165
302.46516185161868862
302.44208557096243339
302.39908417049304035
302.35165071040950124
302.31928583961268941
302.31816169963349239
302.35363769888198249
302.41491786563187816
302.48031130827598645
302.52487991019665969
302.53176324006938103
302.49968459285048539
302.44268811431402355
302.38272562548115729
302.34069708474237359
302.33087199428854319
302.35611476322327462
302.41084999135347289
302.48064822869497448
302.54727226200515133
302.5947897569794236
302.61300487317419083
302.60171765356921014
300.55250550058951831
300.56396348504290472
300.57643482181248373
300.5879163030157315
300.59674272516741667
300.60171725911493468
300.60211216960470892
300.59820242545612246
300.59039809869551618
300.58016812459680978
300.56913973021977426
300.55845248234226119
300.55009056474420959
300.54449808810068134
300.54225303149360116
300.54419578025880355
302.21009183488388317
302.27290874066522974
302.3365798124449384
302.39302820269369931
302.43328351366409379
302.44984555020829475
302.43972307801095667
302.40829658873872177
302.3706546242194122
302.34413583535342696
302.34223461946322686
302.36564768323256658
302.40358488730896624
302.4387595399342672
302.45491074200276671
302.44596526652640023
302.41617579848679043
302.37633174213448228
302.34109305151378067
302.32245959095064336
302.32775962809256498
302.35893884727346403
302.41279516188961907
302.47951397989100997
302.54425793214318219
302.59219125065970957
302.61438454191210212
302.61091461892493726
300.53913932440849521
300.54772333778538496
300.55526793365737603
300.56039187732403661
300.56215001170397727
300.56009662703064578
300.55481470431357138
300.54697640368141265
300.5381461631849902
300.52983706146949316
300.52303313307226063
300.51924986360535286
300.51881429220037489
300.52169912416292163
300.52833653005973247
302.28487541109632275
302.34391416057064816
302.39842313280405506
302.44194338409681677
302.46679338943727089
302.46622142488922691
302.44051641280987042
302.39982730621795781
302.35973985203480652
302.33530348453535908
302.33288532674731641
302.34785057180033618
302.36750490651729706
302.37925930794585838
302.37696121603050869
302.36205815773661243
302.34297491230387323
302.32959550238336988
302.32919818304446835
302.3457068327268189
302.38063693511031715
302.43103080926192661
302.49095229020309716
302.55036205357941981
302.59742472189947193
302.6236135012189834
302.62727967343886348
300.53270030133069213
300.5382564323558654
300.5410962528603136
300.54046444073827615
300.53627627265939282
300.52947324007800489
300.52103868746058879
300.51268976623396156
300.50593920868385567
300.50173337722611677
300.50113430781232182
300.50423612795350436
300.51041160129688024
300.51959815328530112
302.2974086990664091
302.35476077533479611
302.40452398701722814
302.43895151285823886
302.45074724512164721
302.43866740756845957
302.4083911897573671
302.37245062528154449
302.34252217892640147
302.32623439801022869
302.32184376303013096
302.32262062694809401
302.3218189855455762
302.31557314190041552
302.30559651657216591
302.29781047547169237
302.29830773469353744
302.3117121096071287
302.34006899397741108
302.38369652047668978
302.43896174543289135
302.49874434296549452
302.55380971694523851
302.59508195982084544
302.61659184271746881
302.61905854396457016
300.53476424265835476
300.53597624280843092
300.53329349217216304
300.5270797509730869
300.51869099021098464
300.50947240358152612
300.50127886886605211
300.49555451068084722
300.49309956525769394
300.49441956420747601
300.49930046391961014
300.50656422942432755
300.51581262263329108
302.29797678076846523
302.35988253345351495
302.40691928785582832
302.43026820562283774
302.42724928430584441
302.40304179524309802
302.36828120980374024
302.33461799274738269
302.31027398906559256
302.296808184814779
302.29147741534109173
302.28968199349156976
302.28735017532261509
302.28331889036229541
302.27885668784540485
302.27802696097739954
302.28687182452142679
302.31115029287525431
302.35343396401350446
302.41120143962928069
302.47596709380457014
302.53614134425509974
302.58139681782023445
302.60590210586673265
302.61100826090518012
300.54264813622097563
300.53855186075963957
300.53079310308669392
300.52112699477135038
300.51123075280298735
300.50302350425261011
300.49773582884671441
300.49592340056165085
300.49755550057216169
300.5021901015553567
300.50831381742551685
300.51536143901057585
302.34307984000491842
302.39851215508173254
302.43054165550319112
302.43525447626092273
302.4168969924142516
302.3844047539012081
302.34853957872849151
302.31774763249853777
302.29585426373739665
302.28200251146637356
302.27274427115992239
302.26497782783320645
302.2566657542475923
302.24838166646168247
302.24460066259325686
302.2524172841437462
302.27888042741801655
302.3267716869539754
302.39237428488883097
302.46541468613571624
302.53274973061076025
302.58358074083292877
302.61302219484014131
302.62331085367276273
302.36637712870606265
302.40378476081878034
302.41368317782820441
302.39992057940889936
302.37102376941794546
302.33680066836063816
302.3044960569432078
302.27858425665698405
302.26028856076152351
302.24826085255620001
302.23983869599516083
302.23239466709480894
302.22559577355394822
302.22246247617795234
302.23025905556272619
302.25625286217831444
302.30412053165684938
302.37012823417506979
302.44381766008694967
302.51224576059553328
302.56482214853195956
302.59728331616082642
302.61248987445662806
302.38596669470626921
302.37789790579785176
302.35323333560108949
302.3215029503459732
302.29032994277054058
302.26480821913560249
302.24691309442147258
302.23537883413916916
302.22657345611241908
302.21653842347512864
302.20411119184865356
302.19277993469381727
302.19099979527896949
302.20806153217552037
302.2492238766606647
302.31205844954934037
302.38718311590611165
302.46216153353458367
302.52614581182740494
302.57358460940378109
302.60492100903968549
302.31473826368096525
302.28774527924400672
302.26384474638342681
302.24274069250981256
302.22248928483315922
302.20144710928394716
302.18000932972188366
302.16351730007801279
302.16008040358855169
302.17757991684749186
302.21871117645548566
302.28025166676007984
302.35373500246674894
302.42915284062320325
302.49826264303715107
302.55673132413960502
302.60381585905741986
302.21016350866977973
302.178745542393699
302.15559955487537991
302.14588567761074955
302.15445318528611551
302.1841753013673042
302.23328348711879698
302.29602453469425427
302.364950586566124
302.43355313251106509
302.49818701593471815
302.55766567362974229
302.61160558573396884
302.13870297647031293
302.12246718010271707
302.1256627201964875
302.14977358939472651
302.19353965955951935
302.25267874457210837
302.31978054614876328
302.38796455115465278
302.45323129148800945
302.5152713817141148
302.57552947695023704
302.63385848697390657
301.07717140187162386
301.01895193064763134
301.01766940750815138
301.07358168224357087
301.17195129057915892
301.28989124512673925
301.40513307636166473
301.5005895302689396
301.56495726361129073
301.59229400961481815
301.58397800809990486
301.55133700142175712
301.51427145384622008
301.4938114077539808
301.5031761237023602
301.54291749764553288
301.60204818863866194
301.66227423163815047
301.70340703296341189
301.70814617082646691
301.25088644310744712
301.13914645941031267
301.0495889361741888
301.00496997612037831
301.01684806672955119
301.08182970483738927
301.18426761867158348
301.30365448050355326
301.41990609279179125
301.51530249719445465
301.57578580466781659
301.59432301751928662
301.57538763724403452
301.53563454191794335
301.49832117874422011
301.48377191894155658
301.50235852861356989
301.5514445016621039
301.61716352682606157
301.67813554192463243
301.71160111903634515
301.70179135886849053
301.46546455602305059
301.40821057408885508
301.31824408283819139
301.21153374947726888
301.11141676376564646
301.04299944060170446
301.02439808456892933
301.06015148924558389
301.14114224851834933
301.25034150777293007
301.36855358224568135
301.47629342365615912
301.55562498174919028
301.59421166075480869
301.59084041241470686
301.55792071632100715
301.51757619076170158
301.49257282674636826
301.49808331809362016
301.53686624828748108
301.59905320515201765
301.66478637172144772
301.71067437646235021
301.71858785268739211
301.68202419624776667
301.60781180044284611
301.5471758825683537
301.51495050150828092
301.45371769975599818
301.3752085606113269
301.2969376610988661
301.23767248199811775
301.21372711857611648
301.23296211698084335
301.29075869798066378
301.37264757566435947
301.46193175199277903
301.5457347533159691
301.61496497736595757
301.66237668930972404
301.68330318964461867
301.67897827691871271
301.65877937996066294
301.63797174607742591
301.63089770018831359
301.6449079306575527
301.6777300533116204
301.7185604576745277
301.75175022813192527
301.76287362585009078
301.74515032308323725
301.70303035058543628
301.65001048730357525
301.60162257144475006
301.67975387782649932
301.66915439535171117
301.65616224949741309
301.65038228053902003
301.65836676878899425
301.67991244317829569
301.70973523109870484
301.74231183912189636
301.77331105376350706
301.79805085401864062
301.81357745905739876
301.82246441799628656
301.83315858752655458
301.85377395539239842
301.8844798050662348
301.9164614291277644
301.93738516358178003
301.93929163706485497
301.92346989046507133
301.89853687744368926
301.87595141322668724
301.86513647527783633
301.87038274786817738
301.89039198260530839
301.92039827085250181
301.9562701646042342
301.99737224828044191
302.04495723073108593
302.097725050430995
302.14933488659443128
302.01347945321600719
302.05864011425546778
302.08745033544676062
302.09351486836294498
302.0809654122603547
302.05866021941392319
302.03479589935028571
302.01599373447282915
302.00856223465797257
302.01668737690198441
302.03836458026330547
302.06710734627114334
302.09766227929799243
302.1298178213984329
302.16518308788351987
302.20113991266634912
302.22995692997886863
302.243685633324219
302.2406709085336729
302.22818237725067547
302.21852051266552053
302.22272898165897459
302.24543175607198009
302.28334268139275309
302.32790618108430181
302.3699311524930522
302.40507631641173703
302.43580590921777684
302.46772883396425868
302.50298313572329789
302.53593867072675039
302.55625443489850568
302.13937456273578164
302.1851179452710312
302.21594624433055287
302.22684762066472786
302.22268493056287753
302.2114953884155284
302.19905878856565096
302.18950792358089075
302.18763254065828505
302.19699137196215588
302.21548229775163463
302.23624709743910444
302.25415327284940759
302.27065299806571375
302.29070227068285703
302.31576652219564494
302.34080882202454177
302.35837426420602014
302.36524551637194236
302.36547061764315458
302.36801058236807194
302.3809943784935399
302.40704647027007468
302.4420906428220519
302.47789231505629459
302.5066688534116679
302.52588058436873553
302.53975333546350157
302.55540324726098333
302.57599067571152318
302.59622046131255502
302.60604465172133359
302.59785515759944019
301.37751543508272789
301.41421456539887913
301.44367718505765197
301.4591874605808357
301.46003788754819652
301.45930871294672215
301.84591887520952014
301.8888887313783016
301.91791823699048791
301.92687943975187181
301.91988518320221146
301.90422377595120906
301.88496048568509877
301.86595736578090055
301.85266021212595433
301.84975825990903786
301.85652184280604615
301.86662483122370304
301.87504480476980007
301.88324652630126366
301.89634693769619389
301.9158762149330073
301.936014508548908
301.94801797667651044
301.94769760925561286
301.93865504256405075
301.93030787116367719
301.93188030878968675
301.9469295744558508
301.97193260655950553
301.99861310974193884
302.01910308234300828
302.03058066626789469
302.03738313668100091
302.04677896404825788
302.06161007597989965
302.07596040075270594
302.07875110888994641
302.06218503998888991
302.02884620800347193
300.6574547996863771
300.69080475262398977
300.7176059289611203
300.73946342275257848
300.74772375786329803
300.74045646071522242
300.73104887007980324
300.78394449971176527
300.82249636132553405
300.84696794702188072
300.85088435987194089
300.83836314498336151
300.81680420874624815
300.79143185610575983
300.76626412429197899
300.74716737007616985
300.73905541256544893
300.74137976176888287
300.74745295720157401
300.75198572210678094
300.7564062618765206
300.76605395670122789
300.78271517028417747
300.80036107046976213
300.80972992300405622
300.80648436520124278
300.79436886391255257
300.78313124196426998
300.78250540234495247
300.79604337853629659
300.81985901089001345
300.84523892996202221
300.86408116228534482
300.87354630262723276
300.87857476684479252
300.88691021397039549
300.90144572711858473
300.91614113042544432
300.91921702567418606
300.9027121461497245
300.86909466766184096
300.83231882464900764
300.77458123597119766
300.75863848309433024
300.73885693475898506
300.71774483556174573
300.69727054551378842
300.6803558779810146
300.6689649264130253
300.66363411468677214
300.66556278412787151
300.67263605896783929
300.68262180696410724
302.16854378613311383
302.13326676042572672
302.11805333359831138
302.12567203803877192
302.14870256054410902
302.17362702017203446
302.18648752450002348
302.17757832773929749
302.14402167225205176
302.09097703416347258
302.03075656002897631
301.98051703118784417
301.95927960851969374
301.97982673799407394
302.04446294359485137
302.1424541571300324
302.2525435099777269
302.3503862905009214
302.41705947477163363
302.44528284092268677
302.44121383218055144
302.42140454636864888
302.40589444069252067
302.41036882343962588
302.44058381216353837
302.49005365899557773
302.5436985129531422
302.58409997929322799
302.59848745458162966
302.58240593183677447
302.53980968858985534
302.48085748023839869
302.41884774219158771
302.36779301402020792
302.33875429814395375
302.33668635582819206
300.73601144264659979
300.74006250785504335
300.74639197117420508
300.75450224101672347
300.76362372214680363
300.77261106975589655
300.78019465736849725
300.78491365530300072
300.78557763822840343
300.78107311803330504
300.7711371361538113
300.75608651817071859
300.73707120462216835
300.71648902255725488
300.6964716514879683
300.68016186164487635
300.6697053037388514
300.6660122124700365
300.67023084365882823
300.68042091764624502
300.69438765025523708
302.1648564271965256
302.13563820192973708
302.12667261126608764
302.14087965673684266
302.17146851504361393
302.20540841172601176
302.22771233993773876
302.22733973594097279
302.19966184185955171
302.14835944169544746
302.08717851287792655
302.0352711898606799
302.01351364990523507
302.03482636782712234
302.10089045426775556
302.19911733298880563
302.30704310571718452
302.40038021292468784
302.46159315314832838
302.48465214296345493
302.47582998227750295
302.45077892402105135
302.42866956935677081
302.42524722979436547
302.44765564169023264
302.49147226864874938
302.5438895313723151
302.58729906467056026
302.60712392749439914
302.59643204929739113
302.55717786696999383
302.49935213457968075
302.43773702879281018
302.38852398522834619
302.36430976728775022
302.37034489976332452
300.73964353384798187
300.74054914926011861
300.74347126191935331
300.74810563039142153
300.75403010859429287
300.76052166482440953
300.76654923583362233
300.77071660597795244
300.77174978242425141
300.76836972376759149
300.76004645675169513
300.74685040190092877
300.72980395528156805
300.71110787411964793
300.69291770956135679
300.67840594761020157
300.66973387334684276
300.66807607475794839
300.6743193376499903
300.6868071598704546
300.70370707423637668
302.13442276263037911
302.12956664501842852
302.14652047221863995
302.18234160356394113
302.22688501017989893
302.26561480227400125
302.28484817728434564
302.27503246701729722
302.23595511134300295
302.17911763639142464
302.12510747556132173
302.09580718320705728
302.10697984407624972
302.16179970623073814
302.24849357097042457
302.34559298779601022
302.4294254579886001
302.48301640506298327
302.50069901718495657
302.4879703806195721
302.45898215861308245
302.43179909631089686
302.42228432783122116
302.43903161209533437
302.4800438669769278
302.53371510100680553
302.58247947828692759
302.60962454999736337
302.6055332735007255
302.57011768886519576
302.51330490055420341
302.45183025377946251
302.40417330021386988
302.38449404291708333
300.73636285117203215
300.73577308510880357
300.73683432427952766
300.73936099199300997
300.74287032787265161
300.74666043343472666
300.74963175066739041
300.75053079433666881
300.74799988827311381
300.74138369118361425
300.73059454494790543
300.71649310108557529
300.70094221286336733
300.68591725558087546
300.67437075557108983
300.66832138785258621
300.66922288379015527
300.67763209407917202
300.69221773251007335
300.71146880224762299
302.13893884174063942
302.14313620171952834
302.16684740165737821
302.21015142538226428
302.26529358994406493
302.31834213754871143
302.35244468781502292
302.35425199527099949
302.32130254361550215
302.26443446562336703
302.20550923024808299
302.16798359733820689
302.16936618765561207
302.2134335720760987
302.28881801317658073
302.37449333073533353
302.44780369105291129
302.49241259048847041
302.50371393723747815
302.48806630376128624
302.45914771534688725
302.43340395644344198
302.42496662126393403
302.44144587883528175
302.48181023621816621
302.53459543587888447
302.58353547956062357
302.61194619936190975
302.60946437338958503
302.575639417003174
302.52057291094990887
302.46204030591229639
302.41945587391739991
302.40687225101663671
300.72669063662323197
300.72272261963411211
300.72000418793510335
300.7186898616892563
300.71868966512585075
300.71959789126452733
300.72055769205798015
300.72050107644832906
300.71829399546311379
300.71334669971020048
300.70542903308614768
300.69517153445008262
300.6840053110372537
300.67362037788149109
300.66648971297507842
300.66418575844539873
300.6682395178543743
300.67885939426173536
300.69517506182035049
300.71602389296964475
302.15546384066476548
302.17483928533732751
302.21814431650506094
302.28118327129431009
302.34929084085439399
302.40113421851515341
302.41850641254467291
302.39493458038253948
302.33985397493364644
302.27544503854954883
302.22751136022333185
302.21604717661500672
302.2468941510599052
302.31056630172082578
302.38696365844100455
302.45430719604911474
302.49630724344467581
302.50741112971383018
302.49350483071208373
302.46781475180677035
302.44583835698955454
302.44003884838855356
302.45670582339243992
302.49461136252932647
302.54435544354890908
302.5911593010447973
302.61974078631908469
302.61953738098435451
302.58976474375316457
302.53949303341022414
302.48568891149272986
302.44707330625499253
300.70656943850684684
300.69993371769481882
300.69437253594645654
300.69023971745758672
300.68746247275464611
300.68556485733273576
300.68379821521278927
300.68124340173062592
300.67732848250483357
300.67177685979550006
300.66521357788445812
300.65880256060808051
300.65394456672856904
300.65243377712857864