/*--------------------------------*- C++ -*----------------------------------*\
  =========                 |
  \\      /  F ield         | OpenFOAM: The Open Source CFD Toolbox
   \\    /   O peration     | Website:  https://openfoam.org
    \\  /    A nd           | Version:  12
     \\/     M anipulation  |
\*---------------------------------------------------------------------------*/
FoamFile
{
    format      ascii;
    class       volScalarField;
    location    "0.0115";
    object      alphat;
}
// * * * * * * * * * * * * * * * * * * * * * * * * * * * * * * * * * * * * * //

dimensions      [1 -1 -1 0 0 0 0];

internalField   nonuniform List<scalar> 
75962
(
5.4440892485124461042e-07
6.6262392002304021509e-07
7.8256222824672748552e-07
8.6390840618463910008e-07
9.4817614371350852199e-07
1.0802170045558673886e-06
1.2438507179143690137e-06
1.3836880239363430948e-06
1.462960940931654279e-06
1.5153985330499967577e-06
1.609144922049781485e-06
1.7449535294819135799e-06
1.8640386936688798207e-06
1.9308187995516521355e-06
1.9615917425521383179e-06
1.9998022924277479886e-06
2.0926519110026825914e-06
2.2405753886696547871e-06
2.3603354646708449936e-06
2.4298126267528969555e-06
2.4690784790074841376e-06
2.5211416911060765053e-06
2.6388509121382502508e-06
2.8752155993451120966e-06
3.077761402045530512e-06
3.1949980760501643793e-06
3.2389236103105641145e-06
3.2515041796680706986e-06
3.2676854014796996924e-06
3.3064954054038989549e-06
3.3653175805346899956e-06
3.4508889810321097639e-06
3.5676785623549467278e-06
3.6962438501359037952e-06
3.8065754943946016769e-06
3.8795175585667737093e-06
3.9177488022164097059e-06
3.9425813297624927995e-06
3.9841512944313392863e-06
4.080305578638231954e-06
4.2365291128969525695e-06
4.4014982174767227526e-06
4.5421117967721316331e-06
4.6374591960942085575e-06
4.6856009529316529564e-06
4.7026507800738880175e-06
4.7123767614707231662e-06
4.7348274192945400456e-06
4.7978332437563365044e-06
4.9656269728312039697e-06
5.1761475947778912807e-06
5.3621574767038983518e-06
5.503693073854952806e-06
5.5946814675852673561e-06
5.6418295531696241471e-06
5.6596962370724230158e-06
5.663849195130096355e-06
5.6664499729651373767e-06
5.6755834075656341775e-06
5.7092710857643114465e-06
5.8227698761567586543e-06
5.9822471795556462221e-06
6.1090893830276706716e-06
6.1900316005423038334e-06
6.2264207222379940271e-06
6.2362236878096658315e-06
6.2441498987042837746e-06
6.270639168814639376e-06
6.3485931248102959865e-06
6.438917297261882944e-06
6.5144220717605898053e-06
6.5855972124801107092e-06
6.6637456610075713901e-06
6.7448474526042393877e-06
6.8153713224515506694e-06
6.8727886906417349526e-06
6.9276678073644447931e-06
6.9943567176352940999e-06
7.0787190789776874064e-06
7.1705696232349025993e-06
7.250819793909565376e-06
7.3044354884621156429e-06
7.3296017569220124144e-06
7.3391658865631795991e-06
7.3522474045910486866e-06
7.3829295582293578219e-06
7.4266546175604948227e-06
7.4755314529808353515e-06
7.5254698109129657333e-06
7.5783928265355104964e-06
7.6402555240225797351e-06
7.7154628680365863747e-06
7.8018661325094388259e-06
7.8918762753491429618e-06
7.9769759814813807197e-06
8.0529586763277045958e-06
8.118820883588425037e-06
8.1762099424345114089e-06
8.2293185601187376254e-06
8.2838467988152589722e-06
8.3425907228494939813e-06
8.4028617383555797286e-06
8.45785735663433519e-06
8.501271725677525621e-06
8.5296240635863934752e-06
8.5431344970322445158e-06
8.5447865673408147105e-06
8.5413758568695163307e-06
8.5417304741093283443e-06
8.5555813282466592874e-06
8.6103661652399497689e-06
8.7511956849792236346e-06
8.8960453211784346994e-06
9.0156972213891717317e-06
9.1104018877937221907e-06
9.183298725526603087e-06
9.2370520991155404049e-06
9.2735649509591620523e-06
9.2979607960027022944e-06
9.3194199642105597669e-06
9.3478253450041365151e-06
9.390399685253033663e-06
9.4486664286017343591e-06
9.5179591524137504199e-06
9.5897469833980891014e-06
9.6540352905024651614e-06
9.7024539001956645271e-06
9.73157993789962066e-06
9.7434957324932071148e-06
9.7453945539722141943e-06
9.7457525411900458573e-06
9.7509288205469012606e-06
9.7693485520240766419e-06
9.8272514473318578444e-06
9.9115969450892869429e-06
9.9900224714433996724e-06
1.0056647468345893758e-05
1.0108103667985305683e-05
1.0145814697617496094e-05
1.0174815462400697353e-05
1.0201368929677693815e-05
1.0232793736653106269e-05
1.0272484248722681672e-05
1.0322330255683698311e-05
1.0381023628300811002e-05
1.044416426856531177e-05
1.0505260499962028675e-05
1.0556447838965711951e-05
1.0592250641818182363e-05
1.0609549298602806794e-05
1.0611995411632705423e-05
1.0607037467769728388e-05
1.0596861372616669827e-05
1.0586935301705235673e-05
1.0580999140619595127e-05
1.0588854769681409307e-05
1.0644862901608245391e-05
1.0733365517371412694e-05
1.0800645193373787503e-05
1.0851513095203333602e-05
1.0893609482728489486e-05
1.0934232721614878015e-05
1.0978045585145452758e-05
1.1026225551978521713e-05
1.1077649505100912905e-05
1.1129287313850009779e-05
1.1178148707269150162e-05
1.122058371396710779e-05
1.1254508311571578428e-05
1.1277936093550199151e-05
1.1290768186549000982e-05
1.1294471364810197938e-05
1.1292416330336060561e-05
1.128863141355524633e-05
1.1286852796571293826e-05
1.1290859016713164639e-05
1.1311842909678616924e-05
1.1342197217069382138e-05
1.1364189392261351199e-05
1.1375191843955225425e-05
1.1376511580347890322e-05
1.1372449369779148758e-05
1.1368997159998263353e-05
1.1371944183895319112e-05
1.139416714584022856e-05
1.1468022518202427201e-05
1.1582273725152961792e-05
1.1705717619451035799e-05
1.2277389241309068568e-05
1.2265426828308620514e-05
1.2258033959118342615e-05
1.2265206235509268148e-05
1.2314581551141277793e-05
1.2439652007235557914e-05
1.2569899723195214494e-05
1.2688025649123554664e-05
1.2787268624417954914e-05
1.2862487572502261218e-05
1.2913848923196380821e-05
1.2944899260517369206e-05
1.2961703417460448734e-05
1.2968287774794696378e-05
1.2967994752830422413e-05
1.2962836268831747879e-05
1.2955358795578241662e-05
1.2944100518108924046e-05
1.2919043960210801626e-05
1.2851800064995913967e-05
1.2757102790066057101e-05
1.2677923153361412667e-05
1.2616247933017816208e-05
1.2572238023557924571e-05
1.2543447156315755677e-05
1.2526788356831687859e-05
1.2516890312728107799e-05
1.2512432441720741278e-05
1.2527123515160027979e-05
1.2603987766379909344e-05
1.277703159253714431e-05
1.2932363678861252731e-05
1.3055135121611957991e-05
1.3144107115599201849e-05
1.3204631147943166289e-05
1.3244580161545024759e-05
1.3271021509149957511e-05
1.3287887583499406212e-05
1.3297156872625964731e-05
1.329931793565088577e-05
1.3295947405969726468e-05
1.3289265247973663321e-05
1.3277774415672402071e-05
1.3251218465887770818e-05
1.3180302566383798283e-05
1.3073337353033488421e-05
1.2976802073789679712e-05
1.2894844386286327258e-05
1.2829571027795249577e-05
1.2782973176601901131e-05
1.2753843605653215153e-05
1.2737842863904424079e-05
1.2728273299658438082e-05
1.2729291129029869498e-05
1.2771808142718025115e-05
1.292626712517975509e-05
1.310932065988581994e-05
1.3253289968902586289e-05
1.3359262479771570877e-05
1.3431974882943224171e-05
1.3477117976995892302e-05
1.3501794178863260303e-05
1.3512024615452834409e-05
1.3512726019330096222e-05
1.3508067770568408315e-05
1.3500491508869436825e-05
1.3491979423632955701e-05
1.347950136108251163e-05
1.3450148549459359535e-05
1.3363278989132269635e-05
1.3216311794066578695e-05
1.3089930970605503333e-05
1.2995680116115528746e-05
1.2935660170438810311e-05
1.2905291690447370673e-05
1.2892585150047798648e-05
1.2888705094750511001e-05
1.2915782262912352209e-05
1.3038997854628825464e-05
1.3211923492766711953e-05
1.3345441542797150625e-05
1.3441395123670040284e-05
1.3504610796133963382e-05
1.354323091001448838e-05
1.3564215202604222018e-05
1.3575010215164514066e-05
1.3581074375256297119e-05
1.3585644643045696842e-05
1.3590093671299297538e-05
1.3594400411366624372e-05
1.3595879956405499506e-05
1.3592903719247410231e-05
1.3584950892151457651e-05
1.3574328964757065584e-05
1.3557631678005027502e-05
1.3516896722519879909e-05
1.3393735400333543642e-05
1.3188297479224787582e-05
1.3018833366019118267e-05
1.2899211654590409302e-05
1.2830705289172773389e-05
1.2802293082584762234e-05
1.2793278159375784525e-05
1.2802536791537271282e-05
1.2877593057485110033e-05
1.3110211779402533688e-05
1.3355869855058667957e-05
1.3548666296076622713e-05
1.3700095790446364867e-05
1.3824327234765292828e-05
1.3933294180324752145e-05
1.4034953544315825047e-05
1.4126570584011154157e-05
1.4200213298085807579e-05
1.4246777585927159743e-05
1.4263914741336551528e-05
1.4259682811561424066e-05
1.4241639155789029817e-05
1.417697332842883222e-05
1.3967828671460684963e-05
1.3705467175384286507e-05
1.3523906610805991094e-05
1.3423755007959023479e-05
1.338345567104128659e-05
1.3371355302582874986e-05
1.3383561893425380588e-05
1.3475298884119162445e-05
1.3606225810013547112e-05
1.368875801236303225e-05
1.3730883007545651835e-05
1.374581058444426542e-05
1.3746260907771001326e-05
1.3741613000531031642e-05
1.3736317847874763255e-05
1.3731164348688336012e-05
1.3725273299826403809e-05
1.3715843695672885343e-05
1.3692099944561096183e-05
1.36209401889839448e-05
1.3449494757471262108e-05
1.3274110332074472293e-05
1.3127285050891349984e-05
1.3013797062832962415e-05
1.2934176722817544155e-05
1.2884501885136305396e-05
1.285761449168298351e-05
1.2843951713028693072e-05
1.2836058509854669758e-05
1.2831194778911686523e-05
1.2837035922814708211e-05
1.2857793424875421071e-05
1.287162459739343315e-05
1.287757727436394348e-05
1.2876522998651309122e-05
1.2870468713572930718e-05
1.2861526156086095001e-05
1.2850775013628394844e-05
1.2838639474207112296e-05
1.2821754300296946488e-05
1.2789120470977199053e-05
1.2733678251583189527e-05
1.2681243293808387967e-05
1.2634155762351948464e-05
1.2593858732564043942e-05
1.2560155525201114381e-05
1.2532514209116174013e-05
1.2510501851068236924e-05
1.2493055346084276695e-05
1.2479595059517293069e-05
1.2468748442780992235e-05
1.2459640332415684256e-05
1.2452162846784043429e-05
1.2447575450536891556e-05
1.2450491171617593644e-05
1.2457737590088457716e-05
1.246276314643948671e-05
1.24656958811861335e-05
1.2466584068256257549e-05
1.2465988618494907542e-05
1.2464501206441380588e-05
1.2462289985857458735e-05
1.2459526048146468444e-05
1.2455327288946663381e-05
1.2446823224779095355e-05
1.2435151293324429918e-05
1.2423976379728100147e-05
1.2413469505437188062e-05
1.240373695561301113e-05
1.2395298666211061728e-05
1.2388111948785576218e-05
1.2381514177674511848e-05
1.237528343878948402e-05
1.2369007535747584064e-05
1.2363253798293465761e-05
1.2360832557193039371e-05
1.2366455865249540547e-05
1.23719527052042054e-05
1.2374745985665818425e-05
1.2374806313369051419e-05
1.237235335125232708e-05
1.2367764995880292284e-05
1.2361395811249131955e-05
1.2353912338634083856e-05
1.2345577049907939781e-05
1.2336902707170535861e-05
1.2328078385821001522e-05
1.2318282216423476815e-05
1.2304665404085480426e-05
1.2287438487077867569e-05
1.2271282225657261081e-05
1.2256628196449941251e-05
1.2243493498195900604e-05
1.2232202518824110955e-05
1.2222466313523848756e-05
1.2214039084760610363e-05
1.220639006760388473e-05
1.2199506846184371436e-05
1.2194338968436817624e-05
1.2193851439265710818e-05
1.2201158149962634182e-05
1.2207719166402094469e-05
1.2212179246159640341e-05
1.2214096352303875591e-05
1.2213334501251155566e-05
1.2209987599539928025e-05
1.2204528256562704956e-05
1.2197625713039031599e-05
1.2189916382273779141e-05
1.2181777401734971824e-05
1.2173635464190350863e-05
1.2165724336879121543e-05
1.2157846889375854808e-05
1.2149980546601271504e-05
1.2141344205709480157e-05
1.2130396391621906069e-05
1.211860354220888747e-05
1.2106978829231420885e-05
1.2095502467528568269e-05
1.2084126101666751914e-05
1.2073039521234867804e-05
1.2062108916856091796e-05
1.2051344098085688193e-05
1.2040958429999882871e-05
1.2030950816864203977e-05
1.2021314082431550205e-05
1.2012056199749838225e-05
1.2003085781502432301e-05
1.1994272967317541181e-05
1.1985634458744115396e-05
1.1977374848016373264e-05
1.1970043453943301346e-05
1.1965584604054775819e-05
1.1966378459855731342e-05
1.1968046321119499636e-05
5.820125946328965014e-07
7.3824756368330966815e-07
8.6278149495454791822e-07
9.5009338709597471968e-07
1.0274116115074906653e-06
1.1319474426117909932e-06
1.2818668861526528169e-06
1.4287798536993492151e-06
1.5312294536194134445e-06
1.6152097301771911884e-06
1.7293149081452945073e-06
1.8621472408541532937e-06
1.9577104976224499715e-06
2.0038660466083537401e-06
2.0425529900358986091e-06
2.1215537851616097645e-06
2.2751546062607431251e-06
2.4289086189357756087e-06
2.5406535940014442874e-06
2.6020072741844030452e-06
2.6348471886674550037e-06
2.675600594677154654e-06
2.7662049318153332431e-06
2.9880264686169041556e-06
3.2111433196836294548e-06
3.3484445709276608417e-06
3.4053449093541791953e-06
3.4202661106611932681e-06
3.4305104201328851954e-06
3.4567473373123412371e-06
3.5343805094750295381e-06
3.6738163162125592998e-06
3.8194959309409806295e-06
3.9567582991362727708e-06
4.0677784486496903655e-06
4.1409763053259702041e-06
4.1781961387241964856e-06
4.1974039664578653789e-06
4.2258595728469998591e-06
4.2953709068049393397e-06
4.4441780644403739052e-06
4.589331390147315958e-06
4.7118024436096528175e-06
4.8125201997374084451e-06
4.8898305199717166493e-06
4.9385575465590590872e-06
4.9686276404517629629e-06
5.0037773381727947364e-06
5.0640677176897059273e-06
5.1597659326953443875e-06
5.2914063309277998155e-06
5.4452965986706060726e-06
5.5937591086235568798e-06
5.7106236519071828093e-06
5.7866256256631978867e-06
5.8304328066626557968e-06
5.8611475722564365488e-06
5.8983045466345641579e-06
5.9576173950882693368e-06
6.0444829393105506e-06
6.1511749787801505324e-06
6.2616141669607126459e-06
6.3565062086747749367e-06
6.4213884785708273296e-06
6.4534458056631708372e-06
6.4638574225650548166e-06
6.4723851662250869794e-06
6.4975850358088151179e-06
6.5744907612656034384e-06
6.7286616359537822956e-06
6.8765146731795145601e-06
6.9920147373221407363e-06
7.0717365161035915946e-06
7.1271292340859288214e-06
7.1776427717781199765e-06
7.2452888135772468964e-06
7.3356167104641405589e-06
7.4302087221659546219e-06
7.5046195031680575037e-06
7.5515846084247123854e-06
7.5795809980142667088e-06
7.6021183007323128391e-06
7.6318731963167042492e-06
7.6749075710440605667e-06
7.7251712769466115684e-06
7.7703947959879699479e-06
7.8042685011049541097e-06
7.8330970251569070542e-06
7.8716724015903765624e-06
7.9348812905229604043e-06
8.0305101631525143611e-06
8.1541738350482714087e-06
8.2867308191174045788e-06
8.4025151016773511308e-06
8.484137300015424471e-06
8.5328580440641609744e-06
8.5657272319968275412e-06
8.6018810357124382386e-06
8.652646549343123036e-06
8.718174408419804923e-06
8.7913845264489352957e-06
8.8631761995111850872e-06
8.9268184792431387234e-06
8.9791352626630967172e-06
9.0179125882282711577e-06
9.0410536077983629487e-06
9.0498825915819679748e-06
9.0532892186905815758e-06
9.0659316556237169922e-06
9.1031808738770017222e-06
9.1696056234508756532e-06
9.2561262011545028901e-06
9.3480115871476665427e-06
9.432371468676130439e-06
9.5031929381399301882e-06
9.5609932321043066385e-06
9.611028185510188309e-06
9.6589556139240951611e-06
9.7109352395842292124e-06
9.7702762075900686226e-06
9.8368846618804390235e-06
9.9067942583824064568e-06
9.9742831338012805277e-06
1.0034292976317128862e-05
1.0082673825955118865e-05
1.0116362771092594235e-05
1.0135019627753878482e-05
1.0141110051231458868e-05
1.0141000503048356053e-05
1.0143277445765644268e-05
1.0156839866370096946e-05
1.0195878022711365559e-05
1.029704134217526815e-05
1.043374007357270157e-05
1.0567921783469462081e-05
1.0680001724927664692e-05
1.0759356556026071055e-05
1.0806968693357745927e-05
1.0833314168292087286e-05
1.0850300605964563512e-05
1.0867944909723146668e-05
1.0891811740204855209e-05
1.0923158725113199145e-05
1.0959828402905681492e-05
1.0998510480750688591e-05
1.1036507955536794715e-05
1.1071853375299578392e-05
1.1101644720367260095e-05
1.1123871023955017731e-05
1.1135191898057722506e-05
1.1136463836733087232e-05
1.1131011428099039516e-05
1.1122897624872664704e-05
1.1114952866320470051e-05
1.1112765512384857017e-05
1.1137908721590651632e-05
1.1237218444045132617e-05
1.1348346883432797592e-05
1.1431160537517447582e-05
1.1493405394647301541e-05
1.1544216671045815547e-05
1.1591788135753155833e-05
1.164059672121832809e-05
1.1690983607979111533e-05
1.1740560223841127542e-05
1.178586054540384119e-05
1.1823401543896093458e-05
1.1851016901893678118e-05
1.1867943871953372766e-05
1.1875030592454881921e-05
1.1874813859046756838e-05
1.1870284022764649191e-05
1.1864555269675630884e-05
1.1859857680586458883e-05
1.1857252269792266689e-05
1.185821514976027732e-05
1.1868851329131856702e-05
1.1879859279964906637e-05
1.1882709532787357804e-05
1.1879329142197950716e-05
1.1874132654213883896e-05
1.1871986892029557528e-05
1.1878572524330203024e-05
1.190820504031830846e-05
1.198338787094820484e-05
1.2087479186700261181e-05
1.2211038182140028388e-05
1.2344622718780094445e-05
1.2473718342608514759e-05
1.2897040905180266377e-05
1.2880687436856220644e-05
1.2868960261332045068e-05
1.286384909349119491e-05
1.2882637238825649488e-05
1.2971725875216601345e-05
1.3112529177380836696e-05
1.3241065998603404946e-05
1.335206800716312173e-05
1.3442567538892574979e-05
1.3512642096348367966e-05
1.3565089036866886954e-05
1.3603026555490896156e-05
1.3629896344697974646e-05
1.3647136906016278283e-05
1.3655546735064357324e-05
1.365581244740721249e-05
1.3650194609871249207e-05
1.364130543024574856e-05
1.3622224796249011113e-05
1.3570062756253141616e-05
1.3465951501917303276e-05
1.3372461520198050322e-05
1.3298419635779436953e-05
1.3245421974795877813e-05
1.321127269973723821e-05
1.3192444993186938632e-05
1.3181997841087518262e-05
1.3178703070721829664e-05
1.3201613932071244874e-05
1.3310069184227609474e-05
1.3503313164262303084e-05
1.3662763465041074113e-05
1.3781313004084659075e-05
1.3861684728960695732e-05
1.3912289641371994623e-05
1.3942457433020225436e-05
1.3960309382376946102e-05
1.3970230331521186682e-05
1.3974075721083039809e-05
1.3972822022606666936e-05
1.3967519826201764329e-05
1.3959588931146220663e-05
1.3946182430657984075e-05
1.3916543937387759939e-05
1.3840422420038380852e-05
1.3729098186456027678e-05
1.3625668580693382648e-05
1.3535028295313422357e-05
1.3460300974559700782e-05
1.3404774153670678691e-05
1.3368553232956960003e-05
1.334836353491161416e-05
1.3336678027193127487e-05
1.3331799684668307413e-05
1.3354856710210137558e-05
1.3468188297370812677e-05
1.3652045307750765147e-05
1.3806351671244867257e-05
1.3930728006434587655e-05
1.402805395429203159e-05
1.4103118739063173431e-05
1.4159394470983333218e-05
1.4200147363605904446e-05
1.4226683201352203958e-05
1.4240185926040457287e-05
1.4242888429051455445e-05
1.4237656391770065563e-05
1.4228661035210907003e-05
1.4211645983781240571e-05
1.4162189292198505797e-05
1.4024630803430211825e-05
1.3868900335135104663e-05
1.3751109826446904964e-05
1.367321408886857562e-05
1.3630960610225023266e-05
1.3612894351435745173e-05
1.3604864365519791274e-05
1.3616615506206310461e-05
1.3696402090350729683e-05
1.3834382802295319868e-05
1.3943205572044781003e-05
1.4024581098811527219e-05
1.408290685593525002e-05
1.4124547961794903844e-05
1.4155330256401991122e-05
1.4180192446696980328e-05
1.4202833150178461336e-05
1.4224704604139482312e-05
1.4245529384044460858e-05
1.4263963804997722358e-05
1.4277179068299710916e-05
1.4282045382545750415e-05
1.4278269865689468307e-05
1.4268070274989094965e-05
1.4253904467551904034e-05
1.4224086405847171464e-05
1.4138414341772342699e-05
1.3935969536404337624e-05
1.3745506796742390949e-05
1.3606940509159054571e-05
1.3523941646123450712e-05
1.3487445896826562143e-05
1.3476282299601864657e-05
1.3479117024223051055e-05
1.353094929160880545e-05
1.3731734905001851668e-05
1.401127962389508374e-05
1.4230725787246230381e-05
1.4396440220670798135e-05
1.4526149722324083576e-05
1.4637487000069544262e-05
1.4743910323954935473e-05
1.4847201443968028386e-05
1.49373857505915641e-05
1.5001649940350031252e-05
1.5031955826148570306e-05
1.5033269529116024483e-05
1.501882371224240784e-05
1.4970618290023494508e-05
1.4799676012046210477e-05
1.4513428320849297974e-05
1.4303405442265427276e-05
1.418197247743125827e-05
1.4129344622654655517e-05
1.4112878941079103309e-05
1.4114339269715725636e-05
1.4173729321652615468e-05
1.4295366398015200683e-05
1.4378969908020008186e-05
1.4426307325194273409e-05
1.4449429350739353932e-05
1.4458914856347476909e-05
1.4462824227064398797e-05
1.4463469405909550299e-05
1.4461676343370953222e-05
1.445778534296403982e-05
1.4451029940278227432e-05
1.4436298187501253398e-05
1.4392971190412833676e-05
1.4262192543929000493e-05
1.4071042874251793174e-05
1.3908614120540651487e-05
1.3781351977304294532e-05
1.3690854497609541079e-05
1.3632591135232463385e-05
1.360002524593098684e-05
1.3583159488707420985e-05
1.3573629710111368246e-05
1.3566423878536202182e-05
1.3564725374787429618e-05
1.3574746067950764998e-05
1.3581214672850494297e-05
1.3581143986232702372e-05
1.3575569460656714655e-05
1.3566782545854276732e-05
1.3555580652030553305e-05
1.3543240164142547803e-05
1.3527352267455730863e-05
1.3499828155807357574e-05
1.3446488905293024923e-05
1.3390762778571129805e-05
1.3341061680137065136e-05
1.3297558562187989425e-05
1.3260949858700712002e-05
1.3230542479858006509e-05
1.3205494744151506685e-05
1.3185083352869958679e-05
1.3168364282617469889e-05
1.3154926806640642438e-05
1.3143872792737760656e-05
1.3134583572452912447e-05
1.3127142083853524123e-05
1.3122393269579720327e-05
1.3123313784356270759e-05
1.3126426252464627381e-05
1.3128315880122105045e-05
1.3128921286118654194e-05
1.3128264550677480344e-05
1.3126724551156024155e-05
1.3124474092883010583e-05
1.3121610295403867474e-05
1.3117918436171992341e-05
1.3111702748351968008e-05
1.3101758522560461967e-05
1.3091802749133469815e-05
1.3082045721680776056e-05
1.3072626917322263971e-05
1.3063727293741633008e-05
1.3055887296620247802e-05
1.3048861062611900953e-05
1.3042170121991390836e-05
1.3035755609376867826e-05
1.3029244597918315438e-05
1.3023675940416593562e-05
1.3022617534491533135e-05
1.3028378909857882698e-05
1.3032369484868263609e-05
1.3033687280308152128e-05
1.3032353304258648244e-05
1.3028470747716650589e-05
1.3022292629593073065e-05
1.3014624160864421109e-05
1.3005702520449216811e-05
1.2996143110957745093e-05
1.2986293558699905232e-05
1.2975642887251550306e-05
1.2961836655931869032e-05
1.2944855493493916506e-05
1.2929055752899380448e-05
1.2914831395021911112e-05
1.2902234249566316005e-05
1.2891379644076821862e-05
1.2881819710226527723e-05
1.2873228049155521438e-05
1.286514606156452711e-05
1.2857698795736926837e-05
1.2851594610040082073e-05
1.2848560665248422944e-05
1.2852493925871355567e-05
1.2857687306657245111e-05
1.2861176273843751971e-05
1.2862290365654893861e-05
1.2860628249420062735e-05
1.2856215486320605673e-05
1.2849456682812837968e-05
1.2841054501353982466e-05
1.2831547297365062551e-05
1.282156224851967043e-05
1.2811682197978108955e-05
1.280195956836807422e-05
1.2792531577231370867e-05
1.2783084487308146992e-05
1.2772889774233859545e-05
1.2762869412652343932e-05
1.2753061562723360243e-05
1.2743482887727742241e-05
1.273397105029919595e-05
1.2724526499538599858e-05
1.2715224098272556353e-05
1.2705881937006727761e-05
1.2696456813634227192e-05
1.2686984587736909271e-05
1.2677391312117656887e-05
1.2667802609611187329e-05
1.2658217620650769652e-05
1.2648702568281917674e-05
1.2639291226884647552e-05
1.2629941610537400839e-05
1.2620794197195092393e-05
1.2612149415456882075e-05
1.2605037898910010331e-05
1.260178814322559459e-05
1.260037787049744982e-05
1.2599215668133719487e-05
5.8410425340290214514e-07
7.416964973122049385e-07
8.8059963693861429549e-07
9.5270323356157530276e-07
1.021188289463364968e-06
1.1638170349064098931e-06
1.3164835189001609149e-06
1.4188104493356111542e-06
1.5183282389020958908e-06
1.6485435070820983837e-06
1.8035423572191130128e-06
1.9511947525500484489e-06
2.0475620886966721084e-06
2.0948552483499265951e-06
2.1454015618831121884e-06
2.2418606985452876535e-06
2.3793709268293052106e-06
2.532506877838328583e-06
2.6670347531716510248e-06
2.7550594507268726068e-06
2.8004301187916383638e-06
2.8411195357748467083e-06
2.9212686364203676627e-06
3.093542760198904729e-06
3.3001940330169415375e-06
3.4683093752189433214e-06
3.5644072253427488894e-06
3.6013842649047900411e-06
3.6158477640150329397e-06
3.6397438020151406418e-06
3.7011880704278066468e-06
3.8602116491442091799e-06
4.0357414847013444337e-06
4.1856354457347196986e-06
4.3109071364560206622e-06
4.401473763426036321e-06
4.4512170111295204706e-06
4.4724793915480110982e-06
4.4927593907249219925e-06
4.5385298321679806583e-06
4.6496096983961257034e-06
4.7898898652475628012e-06
4.9191220384984837065e-06
5.0332963876526044442e-06
5.1297646460941166591e-06
5.192385239370276182e-06
5.2265993623209611966e-06
5.2665290485049000524e-06
5.3357751894959330361e-06
5.4323229200823457762e-06
5.550071702206867118e-06
5.6778993199144924036e-06
5.7896071704527644992e-06
5.8623254414946088334e-06
5.90740305414241317e-06
5.9640268104360919928e-06
6.0570785618021288124e-06
6.1762124372927578337e-06
6.2927336654847962913e-06
6.3972835798793078411e-06
6.5007255710236677734e-06
6.6056885042354166466e-06
6.6981200478104587647e-06
6.7608804386028624803e-06
6.7916256053988804546e-06
6.8058252650319041107e-06
6.8288090394189747054e-06
6.8899433849177827772e-06
7.0376446247760349143e-06
7.2173954970689160822e-06
7.3792121602972760266e-06
7.4971123901975984111e-06
7.5651939912297948702e-06
7.594535858962123694e-06
7.6055893141317175001e-06
7.6201836991149920919e-06
7.658403008685754618e-06
7.7575249729817715442e-06
7.8762492772533026619e-06
7.9781011160093479907e-06
8.0496176745284142302e-06
8.089699193618836933e-06
8.1066828151877362259e-06
8.1109152323440460565e-06
8.1112418330246570988e-06
8.1146429916688510753e-06
8.1285496596995297948e-06
8.1707183623160617469e-06
8.2824656860062664994e-06
8.436027553291744081e-06
8.5986601507207615226e-06
8.7511122598619573017e-06
8.873620533436261666e-06
8.9567171522819684874e-06
9.0050730314587942095e-06
9.0349396582223903668e-06
9.0637215463860108642e-06
9.1024137649770320041e-06
9.1546670894600593141e-06
9.2190270086327512789e-06
9.290985667002899667e-06
9.3645635915209462759e-06
9.4336616661486827156e-06
9.4927104469778281377e-06
9.5368093643412098448e-06
9.5624192310970412915e-06
9.5704633121954155839e-06
9.5683862143603319616e-06
9.5677133174279521975e-06
9.5804485526936451712e-06
9.6350784149457996625e-06
9.7652391834534477122e-06
9.8895452039675129025e-06
9.9863872762961208276e-06
1.0056768261377907098e-05
1.0110367761283623109e-05
1.0158388973569703066e-05
1.0208919462382338257e-05
1.0265076428642891891e-05
1.0327135597022604811e-05
1.0393591750435423042e-05
1.0461933011100288008e-05
1.052802021374764569e-05
1.0586294932124883585e-05
1.0630874037635892079e-05
1.0657617527177239085e-05
1.0668029067631877111e-05
1.0671512827499956397e-05
1.0682874500329135896e-05
1.0716839607341590421e-05
1.0781736442253380052e-05
1.0875385122014030376e-05
1.0985373627668257367e-05
1.1094729292455211394e-05
1.1187556849602181878e-05
1.1255702378191186793e-05
1.1298886190074508009e-05
1.1326043306280615908e-05
1.1347967439782989386e-05
1.137403682458933718e-05
1.1409274411940460473e-05
1.1453977792155986049e-05
1.1504584941616028684e-05
1.1556044794095630496e-05
1.1603726855107248002e-05
1.1644121697843294429e-05
1.1674494386875241216e-05
1.1694862075112055899e-05
1.1704128078137510598e-05
1.1704484169517368551e-05
1.1699400516420328162e-05
1.1690976271673096811e-05
1.1681504712443769911e-05
1.1674726429945461831e-05
1.1681760527996494633e-05
1.1740228380297564246e-05
1.1839847284546878054e-05
1.191934430908159899e-05
1.1983812910211413461e-05
1.204115614775973632e-05
1.2099312496816596455e-05
1.2162450916184026645e-05
1.2231436620282667356e-05
1.2302457869847722335e-05
1.2370980218390248236e-05
1.2430645378104762845e-05
1.2477490246056711345e-05
1.2508204539847567847e-05
1.2523740727619210816e-05
1.252668278322782113e-05
1.2521789792769188438e-05
1.251441284288618343e-05
1.2507413756850073181e-05
1.2499768339770389784e-05
1.248809865516786818e-05
1.2479700464401803753e-05
1.2473233207458729469e-05
1.2466769681489725053e-05
1.2467842034124781603e-05
1.2499354230393969754e-05
1.254562174083365521e-05
1.2583062421931243919e-05
1.2621874884735295925e-05
1.2671859082882193471e-05
1.2740577410817977645e-05
1.2828866900971077429e-05
1.2933905752280513236e-05
1.3052780584931253084e-05
1.3177314257691495221e-05
1.35442879417791215e-05
1.3532184404529491704e-05
1.3526039833678003011e-05
1.3544187416328066814e-05
1.3632308855149267903e-05
1.3755657366846073259e-05
1.3865520751381837426e-05
1.3964912375774608675e-05
1.4054034900432659774e-05
1.4132583276975993621e-05
1.4201597563348221446e-05
1.4262821588997981007e-05
1.4316482656744134366e-05
1.4361648341383635388e-05
1.4395832400175734869e-05
1.4416416771220649231e-05
1.4423188429490691785e-05
1.4419466690413717833e-05
1.4410109203119741587e-05
1.4386440908032297126e-05
1.4316018163699934402e-05
1.4187486794790402295e-05
1.4078341940130540956e-05
1.3995592245113621868e-05
1.3939079794076731289e-05
1.3904317397318915014e-05
1.3886289308217541886e-05
1.3876276914490301136e-05
1.3875625305104586092e-05
1.3909316053132023282e-05
1.4039129344496077245e-05
1.4202800860103370988e-05
1.4334736326154161697e-05
1.4438328170676695272e-05
1.4518279987506229996e-05
1.4581146544958651029e-05
1.4631953946297058121e-05
1.4672337034211206381e-05
1.4701546906483681522e-05
1.4718500087359472929e-05
1.4723105530362832553e-05
1.4718548125002043641e-05
1.47091599279143811e-05
1.46925490598910394e-05
1.4652725683078999806e-05
1.4547318297044874348e-05
1.4411810322743212739e-05
1.4296580383128202818e-05
1.4204339741212652443e-05
1.4137716185704140949e-05
1.4095384568302070266e-05
1.40727988079890344e-05
1.4060813531250702455e-05
1.4056266430983087597e-05
1.4082336484562438811e-05
1.4204592563539570723e-05
1.4388392460420453104e-05