/*--------------------------------*- C++ -*----------------------------------*\
  =========                 |
  \\      /  F ield         | OpenFOAM: The Open Source CFD Toolbox
   \\    /   O peration     | Website:  https://openfoam.org
    \\  /    A nd           | Version:  12
     \\/     M anipulation  |
\*---------------------------------------------------------------------------*/
FoamFile
{
    format      ascii;
    class       volScalarField;
    location    "0.0115";
    object      k;
}
// * * * * * * * * * * * * * * * * * * * * * * * * * * * * * * * * * * * * * //

dimensions      [0 2 -2 0 0 0 0];

internalField   nonuniform List<scalar> 
75962
(
3.1948383812466841266e-05
4.7424898060887772579e-05
6.6006485252532388279e-05
8.0448449141369454446e-05
9.6756369368072200053e-05
0.00012546613200743422074
0.00016672829357317775099
0.0002067581483973815156
0.00023157500488695049513
0.00024888329244888458954
0.00028107253938262888836
0.00033097581823173107636
0.00037761123216932242306
0.00040483471160523341837
0.00041835610511641474919
0.00043615865527858282665
0.00047885812320118756194
0.00054970902357297582452
0.00061026455365343983649
0.00064665769246895318974
0.0006676704364591228404
0.00069684324682942370369
0.00076516106093274657493
0.00091061654459556932127
0.0010453098279188843996
0.0011282250688775838192
0.0011616220845439726925
0.001172701932756527567
0.0011861585798271321451
0.0012163208165512590184
0.0012616919011764673314
0.001328019477736546881
0.001421121877740109344
0.0015281698205036025728
0.0016239891414528016735
0.0016893727481947225059
0.0017247236814077057058
0.0017486436307505789662
0.0017881080939719290381
0.0018782396517631361633
0.0020281722684599031402
0.0021926213921482418968
0.0023379949268488727475
0.0024397911884414158652
0.0024933688991525333918
0.0025147934616659367926
0.0025294678098199893657
0.0025584653212645295205
0.0026310554099053902119
0.0028209449991903647048
0.0030678282623736916578
0.0032958385152713708631
0.0034770246206211343452
0.0035986272713965485395
0.0036653572655811644289
0.0036941077990064489708
0.0037046971865368834471
0.0037137279222304504268
0.0037325106843376387213
0.003784089378507242505
0.0039418234026203221795
0.0041646373734543617323
0.0043452384977066401892
0.0044637297728536817071
0.0045213886994752098408
0.0045427789677537104215
0.0045617705793820550672
0.00460676479661873816
0.0047274274492626368327
0.0048695213871337190981
0.0049927753147285310747
0.0051116603479999392703
0.0052419952417055637114
0.0053771921325962953112
0.005496984155809524035
0.0055990590970577333585
0.0057008832126991086653
0.0058246564561280616407
0.0059784232590485942779
0.0061445104243174645739
0.0062903277979737140871
0.0063893159421206102699
0.006438427433822248129
0.0064613976806072951492
0.0064931800739015197582
0.0065585762692421676126
0.0066479175693079615994
0.0067455802270986551378
0.006844488191606101779
0.0069497605084341022505
0.007073361459588989493
0.0072238148366904090733
0.0073983595054001880312
0.0075848542257271724457
0.0077678329238866378886
0.0079370156350799699052
0.0080863686496915488516
0.008215801281528843647
0.0083328434596859537326
0.0084504469192200112188
0.0085767839486355010314
0.0087085990722686641707
0.0088328195486796715757
0.0089357184950418066388
0.0090091456743408918073
0.0090531131661021630591
0.0090742007989300151743
0.0090855734300951691146
0.009103463475770663324
0.0091464393553630229938
0.0092737479405104166624
0.0095890276948876976976
0.0099214498202271367983
0.010205177551489547777
0.010436957448841818058
0.010620748524579013208
0.010761341175250916866
0.010863534396038763627
0.010939252598891677573
0.011009320320855177019
0.011096016029634447886
0.011215516474363808677
0.011371281096367756233
0.011553308609246276673
0.011743146298364350033
0.011918369443451320641
0.012058593021716948815
0.012153255778890535363
0.012204194296100128597
0.012226655370997829148
0.012241337137013330941
0.012266291291716767409
0.012325766119808092419
0.012489221399401825852
0.012726887701990815399
0.012954591900466307097
0.013153288452762321517
0.013310694978659458679
0.013429605747041455446
0.013525094902262604565
0.013616131696891155961
0.013723042231891300832
0.013854221834819723663
0.014013668490653394608
0.014197544064886907789
0.014393988133258185658
0.014584804791828035256
0.014746983910455811403
0.01486382090311215258
0.014926259578313264345
0.014946241257482586334
0.014946552158830315321
0.014934987061892737725
0.014926867417929664747
0.014932033786708907158
0.014977452708510067061
0.015160403088850986711
0.015439592004361594665
0.015660294069914343362
0.015834045884226630868
0.015981491632019471927
0.01612332723294984671
0.016274091637779597441
0.016438683714921829143
0.016615297409849804494
0.0167955934882585943
0.016970625491927127104
0.017128715765934325599
0.017262457028719729868
0.017364529428293581231
0.017433053542924570323
0.017470952127271861115
0.017487580156428653849
0.017495021992118359178
0.017505663561767428882
0.017532101678085901253
0.017611048163836826724
0.017721425528412142886
0.017809175541004911014
0.017866474993324964193
0.017897085321099941851
0.017913749086521161408
0.017934354116773337101
0.017976103897477231641
0.01807848323658988593
0.018344340198256724184
0.018741698949281328235
0.019171965888317470811
0.022319804970482498563
0.022318646236995993287
0.022330463262135086255
0.022389880051885909656
0.022598094512075068974
0.023084773774198236174
0.023597867595405840752
0.024075045051451582356
0.024491005871509784197
0.024823397536432059013
0.025068173150095306861
0.025233924108109762052
0.025340727836100793158
0.025402935457097899213
0.025433945827995445982
0.025442891843956001036
0.025441557369991634613
0.025426021276956398826
0.02535883548550647848
0.02513034359662346881
0.024798502142708785806
0.024531601735661059949
0.02433532739196311509
0.02420795705225949751
0.024138177721331005587
0.024113035772359455583
0.024111540495202955781
0.024128755399320484659
0.024218252939548122471
0.024548356424804764625
0.025263169677183297535
0.025922751423848307967
0.026463721983726491704
0.026875963534729270521
0.027175508280945840506
0.027389584935680593575
0.027543400737837436115
0.027651137567791118921
0.027720970917575790682
0.027756689037821843935
0.0277678894940629091
0.027766700699402825647
0.027748971105663596676
0.027672332767102007789
0.027414474037136354195
0.027008431488945969928
0.02664731130802790518
0.026346936282346890279
0.02611541922967642107
0.025961064987245721647
0.025879630844845225718
0.025854059054961523595
0.025856971885188807098
0.025903898539334724305
0.026119140261852340917
0.02679515246465926509
0.027601471014503331514
0.028251249689395685483
0.028743780584470211836
0.029096433916390867375
0.029332274025925326316
0.029481058914687011119
0.029567667556574025317
0.029611852993138957496
0.029630407630610360037
0.029633349149255090726
0.02962988203875303525
0.029608125054095473655
0.029513261248555001937
0.029169881037925129985
0.028568071549165525991
0.028061456886564778435
0.027697203044685300699
0.027481867592024075697
0.027394685209137851351
0.027384326817340026022
0.027412482073639873881
0.027572087831327432572
0.028143777389831998309
0.028941322196851210907
0.029574713136873320707
0.030045919697345841587
0.03037277400988529219
0.030590027477954903623
0.03072835714878582522
0.030821311873368339995
0.030893560518561874462
0.030959567206720304405
0.031025373562774179875
0.031090765161389029986
0.031143234721299858925
0.031175259240228615082
0.031184375639264003133
0.031181295533848223805
0.031150911400360057485
0.03101158776792322519
0.030498897429828131928
0.029617165027786492709
0.028906344423520129172
0.028422172929403719671
0.028164833969417109316
0.028083227685098282461
0.028086115921563754166
0.02816808436406790031
0.028539276491868884739
0.029620906293642834672
0.030789310273385731009
0.031733125477673540527
0.032493836461522075665
0.033130343212781812601
0.033695182975895042465
0.034225009615902093896
0.034706304141932896312
0.035100655111279972787
0.035363591239039038339
0.035484207259373533316
0.035503953914186502094
0.035462482434956685284
0.035199049042462036974
0.034234540541891893273
0.033024710193157828797
0.032220705354750696359
0.031810229934886739833
0.031682631580134679172
0.031684822905676097993
0.031795990447513085286
0.032280112332309610079
0.032956315370746579185
0.033399657410530907142
0.033644369394829495845
0.033753390028789527488
0.033788806574845557662
0.033796716483925355601
0.033799353417735503169
0.033801365430117823185
0.033799707237776442648
0.033782683473183340583
0.033699908323483192263
0.033391951355862418971
0.032603768961248114078
0.03180822281152968084
0.031160351269677897396
0.030675846072548463433
0.030351295502907511131
0.030164610456879660527
0.030080897324420513561
0.030056007717278118013
0.030056655966234507166
0.030071715419755978838
0.030138428139132557998
0.030278291342919930879
0.030388504712474489339
0.030463554700419254173
0.030506664989277586242
0.030526684178811998305
0.030533434131857113691
0.030532109041888858686
0.030524769672461423559
0.030495328019538438941
0.030391287957326328789
0.030177587302989656443
0.029976683349334225237
0.029799478661066216428
0.029652888825623474611
0.02953649570949551037
0.029448584346837790998
0.029387595784956623002
0.029348584964397617797
0.029328269792063627053
0.029319138066571735768
0.029315579708790763525
0.029315957107404304327
0.029325349180092497026
0.029365260785938474691
0.029421543831528007562
0.029463717396007758215
0.02949320202460936971
0.029511047242543414493
0.029520599358225065728
0.029525283489037292689
0.029526506082070944764
0.029525669763844544086
0.029519191177156480638
0.029493970340107523304
0.029455403149585515643
0.029421039655814808234
0.029391603613186489952
0.02936744444954106012
0.029350916908712887388
0.029341866287434795885
0.029337361769914419712
0.029336679281579597367
0.029338151451161899319
0.029344581337170900365
0.029369119859828443642
0.029434069633020282231
0.029500465021762622975
0.029555234439803908242
0.029597727553884935203
0.029628583438240322506
0.029649320099723749933
0.029661410120182231387
0.02966783419612927658
0.029669604492822562736
0.029668929052682414121
0.029666521906287469934
0.029658397576361017478
0.029630999157815817585
0.029585317456337471148
0.029544394076426193363
0.029510747083490402459
0.029484756533375861692
0.02946805441346412105
0.029459048689873919974
0.029456173461488727866
0.029456492604919372325
0.029459722350853437267
0.029470534156526239505
0.029503606464936590892
0.029575110205714773282
0.029644673634677046886
0.029706318581442951732
0.029758248239329019441
0.02979963831295846452
0.0298302872542368612
0.029851516899144957956
0.029865526266664638166
0.029874471335681669626
0.029879497523379591056
0.029882341436773408871
0.029884179380577215873
0.029884374978607668866
0.0298833026468621199
0.029877588097169796577
0.029859936244349492146
0.029837665703969167008
0.029816074443660276622
0.02979532963458457126
0.029775513470351032408
0.029757903572387167657
0.029742142898664329642
0.029728466395987501736
0.029717964581183302364
0.029710508382202502342
0.029705779777031291605
0.029703450714006030681
0.02970274446755327008
0.029702838939024495818
0.029703801811631014296
0.029706755352672382237
0.029714498307298834595
0.02973658544230236081
0.029784895776979691123
0.029837490665478832996
3.4444906119717918211e-05
5.555080650021839686e-05
7.5948141225019741383e-05
9.2171855049557154514e-05
0.00010792218271527967497
0.00013148262192682157851
0.00016896001926776420482
0.00020994993965432477332
0.00024113303395398191613
0.00026837074352853250566
0.00030788076344173356423
0.00035740307247133059265
0.00039512204825722040645
0.00041378918568258656703
0.00043040550245433250448
0.00046577811731879245572
0.00053720615651439772124
0.00061310168462458717546
0.00067118596580166675538
0.0007040959258401780288
0.00072191996289338179315
0.00074518051645918088628
0.0007984833426904135948
0.00093421059745851776045
0.0010810279777350179781
0.0011770697065841249657
0.0012196826505942548295
0.0012328478594288989467
0.001242372637075774347
0.0012633165536214791772
0.0013220108236583214337
0.0014293318187767359122
0.0015463410017812304498
0.0016621739481131039481
0.0017600244738389546253
0.001826665960050811088
0.0018619107177681804358
0.0018815479161104992165
0.0019099952763089751012
0.0019766661904498583277
0.0021200605176458693114
0.002265131468613958924
0.0023911071218688496019
0.0024965652104141753016
0.0025791380290472445611
0.0026336078228867626852
0.0026701686136694565039
0.0027131189589129985247
0.0027833494203287731557
0.0028930731939985783983
0.0030459082045833077088
0.0032297004814514015947
0.0034132607799604963543
0.0035630916982373308025
0.0036642588885124056756
0.0037250633861297074469
0.0037688981339654504046
0.0038219021683887350986
0.0039056704574198307205
0.0040276045219084163906
0.0041772689755385939564
0.0043327673928181906909
0.0044674682374666397147
0.0045615959610296463733
0.0046117205860747778265
0.0046335261280276924048
0.0046534768222353086256
0.0046962924598543181673
0.0048132292553376429881
0.0050478272403245974184
0.005280824944366883239
0.0054702116615870021929
0.0056056795684235509805
0.0057019365657744449857
0.0057903148757758220525
0.0059089525630190977909
0.006069176815055012976
0.0062403939311958863539
0.0063789222368449754672
0.0064695655301874981091
0.0065256314410960499298
0.0065708078899413529389
0.0066284647007173909394
0.0067106786377608904082
0.0068082494414564579191
0.0068992208562285856077
0.0069704636951876996001
0.0070317720543788420767
0.0071100300846352456827
0.0072337489518420755585
0.0074191383295667805847
0.0076605672903464535478
0.0079247424342533904357
0.0081639737826207925409
0.0083429937323331714721
0.0084601916631569570176
0.0085449609837112815852
0.008632505876903279543
0.0087454226698429702452
0.0088860899617823202457
0.0090434316355712147939
0.0092014479596199006545
0.0093468156127801318295
0.009471373239837462335
0.0095686170656055901523
0.0096337268230347709863
0.0096699773084480862562
0.009696193494770515009
0.0097413079129008376539
0.0098357334730484729385
0.0099899479548562122172
0.010188022723430174843
0.010401947175437855145
0.010605052008658357246
0.01078266538307662975
0.010933721838136189336
0.011068313143897019063
0.011198897706782333372
0.011339262593335319371
0.011497495599859838822
0.011673523397219290332
0.011857936984068104258
0.012036683086165962664
0.012197797534031171521
0.012332613387884350589
0.012435126854897761428
0.012504453905669316027
0.012544286771237372555
0.012566904517800075655
0.012590591116236945352
0.012637174510468777641
0.012744521310045961102
0.013009706822901650689
0.013373953690419359761
0.013742832158902311412
0.014062533930202772772
0.014299224291082298158
0.014450081104420114952
0.014541406299226558238
0.014607140042395581198
0.014676994906076277006
0.014766790891325798016
0.014878612880361080303
0.015004889679568604935
0.015135658391249291396
0.015263495661490491043
0.015382857453258701186
0.015485006201221217584
0.015563886445656888863
0.015610690244133753127
0.015629500362696811117
0.015631270234505841021
0.015628117336748376109
0.015627591594385602941
0.01564470101588047099
0.015739653008474012441
0.016046663325201163813
0.016392705413983139906
0.016660068198075670548
0.016869064465142493553
0.017045151043351042947
0.017211760318236919015
0.017382116599910346633
0.017557617265517719979
0.01773164086827551042
0.017894152374772646918
0.018035222819919347753
0.018148460282921899389
0.018231258293844320589
0.018285109294443907535
0.018315610411988706568
0.018329721078419458635
0.018335323584810592906
0.018338756048134216559
0.01834473527125582773
0.018360574806571768741
0.018408377470522045011
0.018461844567355743807
0.018494844893983630046
0.018512320823261305125
0.018526339461823908283
0.018550724062956495258
0.018602542543488722465
0.01872641805963058681
0.018994458343129703992
0.019356562924508081969
0.01978442340185219972
0.020249514760230135496
0.020705343830063678567
0.02334371470706611551
0.023328112660331700584
0.023329604891808214395
0.023352610138667431045
0.02345754756266286295
0.023814127073078155544
0.024363476332922351375
0.024873645869007185438
0.025326856792063187629
0.025712202652951966775
0.026027605258934865401
0.026279676802165821692
0.026475551070449063196
0.026624695571789903925
0.026730690684946580016
0.026796534545105291092
0.026826281649253356371
0.026831100617196689678
0.02682394276184145096
0.026780061676366689188
0.026611551717248511234
0.026244605320083130851
0.025923965258923844374
0.025681909526168496954
0.025521904222034930143
0.025433513855812148186
0.025402096537626830952
0.025400583493221953746
0.025424170585349219892
0.02554703946185658478
0.026001947797001760676
0.02680137132220311233
0.02748228724978303214
0.028010712199569756664
0.02839166546187593676
0.028653514106580537518
0.028829330396330302144
0.02894883927947452737
0.029028539285009712784
0.029076761580395179413
0.029099976669220151138
0.029105634134335575669
0.029102550014543145801
0.029080330856488458002
0.028994215441235912656
0.028717609638097899016
0.028295915470221848914
0.027908149972402238742
0.027573668934033637723
0.027305093940310005973
0.027116162135413877238
0.027007871808694912386
0.026967263667324905402
0.026963551133766822804
0.026988250700266856741
0.027124963054274749824
0.027627698765475567494
0.028428453712387707214
0.029114732321542623195
0.029681076867477049208
0.030137638588161930198
0.030503772516143605464
0.03079299098981705049
0.031017384720179091984
0.031180100825912944462
0.031283822333405965355
0.031336762437626355937
0.031351417048391075348
0.031347285442054242943
0.031307631321443832317
0.031127220068537190395
0.030564795821605483805
0.029928343710382859788
0.029462491017762243439
0.029171857916193710131
0.029035851761470780202
0.029004492435438993664
0.029016678101107040016
0.029112852495247868584
0.029499813375589434283
0.030144528165038608075
0.030668183962890019356
0.031074155978244654558
0.031379315211244908357
0.031610523644355542627
0.031793210857252257595
0.031949550472010958269
0.032096544635592638706
0.032241238343336815764
0.032382609594859487756
0.032514589871092909601
0.032624057408655031398
0.032696165008776582883
0.032729055259817327328
0.032732497020534746801
0.032717908085364941217
0.032632216203206533545
0.032292852846364301922
0.031425817087282696682
0.030619515049766739268
0.030050517959450285393
0.029728648396459628894
0.029610680238203870157
0.029603179922808212088
0.029656387009228696999
0.029924948674752645944
0.030859579869767873872
0.032177117016175968423
0.033243622048048378226
0.034072845051539853156
0.034737953183375372412
0.035317397825032084691
0.035874039023650029778
0.036416940256448399049
0.036898162769423613339
0.037254993816852301214
0.037447354044131651862
0.037500236347314738761
0.037480569699473754997
0.037300422136890207248
0.036521966651002539528
0.035188506572661398808
0.034242651102312358924
0.033728737364689051481
0.033543058132344281963
0.033527030230042054182
0.033591806025129615498
0.03392692007232754603
0.034562375039873464988
0.035015152833439262825
0.035289229024072575613
0.035441583278124931533
0.035523457926226888193
0.035574594800513413551
0.035607032901361801436
0.035625964332739505636
0.035634897911566862372
0.035632490842829586675
0.035596357659252633732
0.035427329439131294286
0.034839281690911126643
0.033965937776586511976
0.033242136329155000385
0.032691635048303517574
0.032315670334842144795
0.032088932934040713396
0.031979286451436793326
0.031940547082840192727
0.031935185321805073522
0.031941444184404824136
0.03197545203644873435
0.032067398362826626812
0.032145564338485262124
0.032194612966259271436
0.032218849079565639593
0.032228779511870281338
0.032228120258438887336
0.032223127066611532976
0.032202429458769721293
0.032127356509025657705
0.031929404980733905317
0.031718538468074521097
0.031534592973685222905
0.031377916282073821386
0.0312520603025256416
0.031154526979730000347
0.031082225011780657831
0.031032344723085508037
0.031000257881434310769
0.030982992792959969386
0.030974681324897092305
0.030970793060631017501
0.030970363942887598613
0.030976683751156943586
0.031004036863686912362
0.031037191685243482181
0.031061131170599109996
0.031076962585391311455
0.03108594714407581644
0.031090679481098924125
0.031092500392018544708
0.0310922355556969357
0.031089191369662465964
0.031075633468210402816
0.031045918161432616011
0.031017819809501148698
0.030992377096198068381
0.030970142531855027884
0.030951877204940973082
0.030940127253515872785
0.030933831290828463917
0.03093089146123709221
0.030931216802002656219
0.03093314626190268174
0.030941532360934120155
0.030973036738624320358
0.031038800976278084487
0.031097606438324008893
0.031144789276053061466
0.031180282883147839718
0.031204503212291824499
0.031218595297875073591
0.031226287712663912399
0.031228433191463924462
0.031227514062621287982
0.031224631182790788669
0.031216851447495048283
0.03119263540611778851
0.031151645021919669581
0.031115192676578477121
0.031085642519029323128
0.031063733461803876013
0.031050400301797707187
0.03104360916245417143
0.031041599697684787995
0.031041746449516842421
0.031044185007663503695
0.031052100271316815383
0.03107391531970004131
0.031129092092498748812
0.031191170007924998164
0.03124659919451851578
0.031293034349563111918
0.031329036868079689071
0.031354668022853283971
0.031371279750407279896
0.031381295614313728382
0.031386185735488798809
0.031387910340475944082
0.031388457884375400853
0.031387576034332113906
0.031385785945758547244
0.031381782728640214564
0.031372397337120959404
0.031362583849735566066
0.031352915109848771003
0.031343723646545716688
0.03133446547048574643
0.031325463149894525183
0.031317499894764518065
0.031310126102069422982
0.031303512905573149805
0.031298097586157411221
0.031293603267965743042
0.031290551240962360957
0.03128864692765547656
0.031287801687230089309
0.031287794666369585228
0.031288195269802226983
0.031289682698612951428
0.031293860440310586335
0.031305946866779933713
0.031337551160940342598
0.031378622598713407088
0.031420768600494947131
3.2978525740971125022e-05
5.3100295162668391662e-05
7.5089853801551864404e-05
8.8102747720978996041e-05
0.00010141538780527166409
0.00013186161171545825242
0.00016872206626236462912
0.0001962026931898612817
0.00022516993231945240587
0.00026540879390876318368
0.00031747251870244954861
0.00037198433476573055257
0.00041015472967456347757
0.00042952751153790212071
0.00045100631322780827207
0.00049375335666950207966
0.00055741487093751795976
0.00063204612729449605613
0.00070154777811881824986
0.00074933386812132648288
0.00077453058017316683218
0.00079770103492545461638
0.00084524786064306802261
0.00095064259395586650156
0.0010840278938148845134
0.0011989087234617944264
0.001268814661913589964
0.001298442550710006806
0.0013114769964314976474
0.0013305654797443513659
0.0013768000305874844406
0.0014981357393396099818
0.001638694111119606573
0.0017649882158764246959
0.0018753396832908086553
0.0019581645867395823524
0.0020057831516723848529
0.0020280889978039687294
0.0020498858820920604074
0.0020958434035599181333
0.0022044378502127683073
0.0023445376853842730437
0.0024766023111182349642
0.0025948117226674200821
0.0026964600991740161375
0.002765228877608951006
0.0028060880999087644064
0.0028542065481352830135
0.0029347554110810318909
0.003046774087234647814
0.0031851794009995141981
0.0033385524371619085086
0.0034761615790156168843
0.0035689106699202978457
0.0036287075609860212043
0.003702754286914555857
0.0038230675144691824048
0.0039794551356882347515
0.0041371247299393076186
0.0042830387477165877269
0.0044295557893741458605
0.0045790892003317084161
0.0047114574066414276199
0.0048028170769901642675
0.0048504665412817922834
0.0048775653066917340137
0.0049189962179171852971
0.0050150515545722643834
0.005238446603642801444
0.0055159921853956735832
0.0057749566658518106804
0.0059723023678928755312
0.0060928881776376097798
0.0061500299849729066215
0.0061762095870194931232
0.006208452685065534403
0.0062809755444299310984
0.0064562030562508457635
0.00666768005214678737
0.0068528039356818845965
0.0069861901388061174029
0.0070645118653671675618
0.0071023713085913361964
0.007118472967865549679
0.0071288872983997194147
0.007145620105172181824
0.0071810165922820664089
0.0072660182131018191329
0.0074758716627625230663
0.0077657389807866648856
0.0080785595492339819929
0.0083793589647487599914
0.0086297579730494483607
0.0088091753636962838447
0.008924260415785591552
0.0090043080148610073199
0.0090812949177751615959
0.0091752789104817301935
0.0092932308936966075835
0.0094336780902224033618
0.0095905396803303427644
0.0097545603496871045868
0.0099139863295642522562
0.010055543468158976983
0.010166337846090138172
0.010238137673692889254
0.010273473307356563791
0.01028878687262898585
0.010306182508552081192
0.010348060525522367881
0.010475228730802326263
0.010766800093735965152
0.011052355637175192635
0.01128554982508916775
0.011466649260564398816
0.011613760780710786699
0.011749070813582975642
0.011889104756673863489
0.012040725919180598341
0.012205522333020279654
0.012380905718875043903
0.012561577733899115944
0.012737614291701615521
0.012895587486735138327
0.013022446174198492458
0.013109571077106635731
0.013160682688937710635
0.013196366811076458772
0.013249546730216898299
0.013354040292653013983
0.013530994570092248763
0.013778732135500666375
0.014071408452705359837
0.014369873763604242359
0.01463375107037103405
0.014838716613459042304
0.014979351092307606128
0.015075386051072947602
0.015154750229796485478
0.015244682437970469638
0.015361701543101492773
0.015507555386087661098
0.015671645352775116083
0.015838595729156731973
0.01599473414018092246
0.016130297714585073443
0.01623737926778021784
0.01631502672325307185
0.016359648164954387894
0.016377864920683510991
0.016380873619702310956
0.016376271973647962138
0.016371117959725452889
0.016375933848250132097
0.0164213139353304588
0.016612729939672905149
0.016924043789155483741
0.017179586660640736723
0.017391913709523948439
0.017583784987952013473
0.017779336130962875712
0.017991637681024113399
0.018223375433366134635
0.018463023063514102245
0.018696711091033078184
0.018905520856348376202
0.019078083315865416308
0.019204531805713055681
0.019287159583306266036
0.019331846557293117655
0.019349911231832089137
0.019354879283698750436
0.019353764280445721196
0.019344141729408331071
0.019318563608742095328
0.019304692586712277752
0.019302594964180689457
0.019307921792877606043
0.019342533056665379282
0.019474797274429009319
0.019654491171486508649
0.019805414995311902693
0.019958927024814356738
0.020146850993670705615
0.020394808175033397879
0.020707369900862342832
0.02107743490815868273
0.021497873464381200836
0.021943883946122674095
0.024458146483879492084
0.024458319624173073537
0.024480434717277205214
0.024588725146144886635
0.024948628283799793165
0.025438747554785125227
0.025880371372656973961
0.026286351456484287337
0.026660024219604984419
0.027001703929167172186
0.027314392866724563486
0.027601628721503405212
0.027859936080397527253
0.028081574459900740526
0.028254220520859362614
0.028367063512702829498
0.028420980094106332303
0.028432302428253487803
0.028424096404261387644
0.028365171276641260034
0.028129685080091317018
0.027672068039452723393
0.027295505437367251211
0.027023525290707572227
0.026852341534278234558
0.02676288232452379845
0.026735321528872726254
0.026736224855872479933
0.026771000160362525
0.02693683422719608464
0.027477876293205222291
0.028163802588422024581
0.028735644651156896923
0.029203464718476991602
0.029582114874730419674
0.029893539320723489655
0.030153700304599198589
0.030365996145272813878
0.030526135047946423989
0.030630616420560162483
0.030681572381771975849
0.030695351943778838993
0.030691995229689822411
0.030662162060518735607
0.030538359311220789755
0.030143493723463355566
0.029623953159421279741
0.029189077114758529841
0.028848980894484049092
0.028614302856305402767
0.028480236810423872895
0.028429029082912383314
0.028423972693991727406
0.0284512129546092285
0.028602621322238213492
0.02914521996751638297
0.029949354206276448259
0.030624281373958596453
0.031160633368261209802
0.031582303218016638535
0.031925948567436100711
0.032223984623989600229
0.032497567881879352303
0.032748009516743545322
0.032965114511515063167
0.033130622247105404043
0.033233053217559205272
0.033276632904123880363
0.033280629061084240905
0.033258711003456273292
0.03313078592466787986
0.032634568696194236892
0.031796958784367480855
0.031132960156332222662
0.030683339559374765704
0.030431980820555135092
0.030334343757967160982
0.030322963494187407663
0.030350312989843704348
0.030500156960880941276
0.03100485769818203674
0.031658633854723471079
0.032204526868030547426
0.032644931973875711273
0.0329942602399877008
0.03326733588828201249
0.033483469623987162367
0.033661595495388704768
0.033815221299322635595
0.033950288752801330294
0.034070331132946336805
0.034164555189885231767
0.03422475708670902339
0.03424856623717983245
0.03424895638838663936
0.034227312899469036767
0.034114887111192294944
0.033683489388682388843
0.032809714482962236415
0.032092640274357944752
0.031616554168052216078
0.031380353032683494519
0.031322225764723224395
0.031338771120645779467
0.031481800004785544245
0.032083426604801353055
0.033664940084568509282
0.035145597494796079752
0.036207418619015031835
0.036894849308148652822
0.03733079152225474151
0.037652543834887877705
0.03797570896236048682
0.038345678121836097862
0.038725823375290478745
0.039042739877663761028
0.039230847499761759001
0.039289442934189303114
0.039274847962079952046
0.039117657185541450382
0.038411584595428344135
0.03705441420968836469
0.036070860723560048411
0.035535563563234388862
0.035344961758428529441
0.035330575956898514767
0.035403918893289601511
0.035780962156747558867
0.036487827279912295186
0.036980499491828140723
0.037264187938451938387
0.037398633141088509502
0.037451427728093171499
0.037469081003023499421
0.037475884193574046654