/*--------------------------------*- C++ -*----------------------------------*\
  =========                 |
  \\      /  F ield         | OpenFOAM: The Open Source CFD Toolbox
   \\    /   O peration     | Website:  https://openfoam.org
    \\  /    A nd           | Version:  12
     \\/     M anipulation  |
\*---------------------------------------------------------------------------*/
FoamFile
{
    format      ascii;
    class       volScalarField;
    location    "0.0115";
    object      nut;
}
// * * * * * * * * * * * * * * * * * * * * * * * * * * * * * * * * * * * * * //

dimensions      [0 2 -1 0 0 0 0];

internalField   nonuniform List<scalar> 
75962
(
4.681740449358564168e-07
5.7001260080841005977e-07
6.7200564927296434753e-07
7.4137310164408083536e-07
8.1248646600433615682e-07
9.2456611991560209432e-07
1.0650689887934254256e-06
1.1852303691965311731e-06
1.2534749563835595392e-06
1.2985720736208945953e-06
1.379036504915993198e-06
1.4954195465061007836e-06
1.5961942407466567137e-06
1.6515834629468186511e-06
1.677772518487271052e-06
1.7119088428056242223e-06
1.7925042083072366459e-06
1.9192058297958645887e-06
2.020749874737527951e-06
2.0786868981483673609e-06
2.1107232534614795754e-06
2.1548454936738484436e-06
2.2564378973080081214e-06
2.4598752895692590654e-06
2.6336994019576814201e-06
2.7342607468768509755e-06
2.7725082803009928369e-06
2.7837652487024724472e-06
2.7977476045033173659e-06
2.8311285656040476262e-06
2.8814464070443522862e-06
2.9541631594283605514e-06
3.0538400392711068345e-06
3.1645706675394021792e-06
3.2600098797235728837e-06
3.3226795958091194992e-06
3.3549330073749258345e-06
3.3757720345111093408e-06
3.4112826638453746248e-06
3.4937730603587794524e-06
3.6280225373642179695e-06
3.769621504926864484e-06
3.8898788174536966198e-06
3.9709003227787295523e-06
4.0114768669629131809e-06
4.0258774546267455361e-06
4.034802999472495596e-06
4.0550469848318036148e-06
4.1093155090502121339e-06
4.2520676559547386934e-06
4.4311529980967370851e-06
4.5896815395284430229e-06
4.7108778122797043134e-06
4.7892196654860854233e-06
4.8300635681001562589e-06
4.8456031109996474109e-06
4.8491741537643233905e-06
4.851709979418519352e-06
4.8605866215544967331e-06
4.89065713277838131e-06
4.9880807177438007824e-06
5.1235603217774575694e-06
5.229840376416857337e-06
5.2969873857329254763e-06
5.3273874108645088076e-06
5.3362667101329102641e-06
5.3436968353541332847e-06
5.3662571206526542045e-06
5.4323064432078680636e-06
5.5095144992918830153e-06
5.5749319353713427288e-06
5.6369985015548683613e-06
5.7044477023614937556e-06
5.7735301188190699101e-06
5.8334337208493735631e-06
5.8832583200661715524e-06
5.9323918664275713042e-06
5.9922825490514770603e-06
6.0666483439953460826e-06
6.1460699897721312961e-06
6.2142520536033411235e-06
6.2586083371250768621e-06
6.2782537065700447926e-06
6.2850764048303943952e-06
6.2961405775795533613e-06
6.3233736618214673244e-06
6.3618765710498392636e-06
6.4039871044883507341e-06
6.4462871731331082266e-06
6.4911619665348133107e-06
6.5440833005892924004e-06
6.6087232036310907175e-06
6.6834444385184712848e-06
6.762458492444307574e-06
6.8387904713395317969e-06
6.908063875360657643e-06
6.9679152811821574813e-06
7.0185827282674295255e-06
7.0634916898374945437e-06
7.1082228138601234575e-06
7.1561888918488640463e-06
7.2059637920054329401e-06
7.2521365515087183695e-06
7.2891921686744745362e-06
7.3139979119684698632e-06
7.3267330567208344982e-06
7.3301684244774525134e-06
7.3296679217164241625e-06
7.3317866930265957268e-06
7.3439699409739016717e-06
7.3897691494896254494e-06
7.5091171700798964365e-06
7.6328641233062750356e-06
7.7358601607354628512e-06
7.817783714711135757e-06
7.8808420688614805002e-06
7.9273243588730334195e-06
7.959345679780664072e-06
7.98149024265706433e-06
8.0014515959368949114e-06
8.0273173550251066438e-06
8.0648241217608151538e-06
8.1149963029463887987e-06
8.1740103352107044358e-06
8.2351705500549068456e-06
8.2906226885172652427e-06
8.3334611391942209298e-06
8.3602984509571899141e-06
8.3719839223523017231e-06
8.3738664696651442785e-06
8.3730752058408336008e-06
8.3757858748914959589e-06
8.3902375568514138177e-06
8.4398231225030510491e-06
8.5138331632076719749e-06
8.5836947366510871649e-06
8.6432671210401124725e-06
8.6887938927693651156e-06
8.7214586902031381125e-06
8.7463333115758958367e-06
8.7696265905165977353e-06
8.7978751890935943567e-06
8.833687508518317901e-06
8.8782066582813947038e-06
8.9300586146106263313e-06
8.9853838317617721812e-06
9.0384662503614909162e-06
9.0822698265675110973e-06
9.1118465164023087967e-06
9.1246250109977054365e-06
9.1243910825187313294e-06
9.1181508955770052655e-06
9.1082943286610425828e-06
9.0994959322663299632e-06
9.0947516898221065942e-06
9.102248950142398704e-06
9.1513143135548460612e-06
9.2287817244886709208e-06
9.2880551976062376374e-06
9.3329544767661276166e-06
9.3697978345830704123e-06
9.4047502184283434838e-06
9.4420582793459271402e-06
9.4830968211398850595e-06
9.52728356103521477e-06
9.572184826345388092e-06
9.6152524204852624892e-06
9.6532273168510798072e-06
9.6841120057077320128e-06
9.7059572606132563864e-06
9.7183372049891960428e-06
9.7221403346086300617e-06
9.7200125258808131676e-06
9.7153304874203817335e-06
9.7115374172331422133e-06
9.7121203645763274774e-06
9.7272042426127247334e-06
9.7508646073018335608e-06
9.768189434245212147e-06
9.7770980512769719163e-06
9.7786759308634846609e-06
9.7764348297538001718e-06
9.7752641814853954175e-06
9.7798407812150146194e-06
9.8008414097245918022e-06
9.8657880476518968832e-06
9.9651439949302986394e-06
1.0071885742052755992e-05
1.0576913851916601312e-05
1.0569295988883898387e-05
1.0564753521408058449e-05
1.0571454698182257897e-05
1.0613121757523564742e-05
1.0719349089237699144e-05
1.0830296584103555479e-05
1.0931654339095909907e-05
1.1018031621959652376e-05
1.1084846441066742339e-05
1.1131630437634612804e-05
1.1160616873958013781e-05
1.117644570018100376e-05
1.1182386255687655737e-05
1.1181440951589432655e-05
1.1175642647262889806e-05
1.1167590572795040076e-05
1.1156429026413814212e-05
1.1133943772727591346e-05
1.1075974587951141508e-05
1.0994964437118564531e-05
1.0928043713149752762e-05
1.0876682073800535139e-05
1.0840648785815250852e-05
1.0817497695000519213e-05
1.0804355935516165129e-05
1.0796519756041186104e-05
1.0792874614725528676e-05
1.0805365041196869568e-05
1.0871203235983209771e-05
1.1020687580306570496e-05
1.1155876194592519908e-05
1.1263852834762210709e-05
1.1343364647780632208e-05
1.1398483536896291936e-05
1.1435346554154318937e-05
1.1459449427816990137e-05
1.147386775751505976e-05
1.148037102759996387e-05
1.1479788904042145987e-05
1.1474132879232852233e-05
1.1465920998271894113e-05
1.1454301612771427727e-05
1.1430531501214228081e-05
1.1369251270280406215e-05
1.1276905841272932533e-05
1.1193485399181167362e-05
1.112249109229717823e-05
1.1065826934968121047e-05
1.1025416174159623301e-05
1.1000467564107776935e-05
1.0987397616349381469e-05
1.0980387616559810756e-05
1.0982716461183847018e-05
1.1020594222577094977e-05
1.1154550042571865549e-05
1.1313277002360502271e-05
1.1437721172993587355e-05
1.1528982624763722741e-05
1.1591437270004555749e-05
1.1630239024004669e-05
1.1651603027226242962e-05
1.1660603829611163095e-05
1.1661211337143369843e-05
1.1656765334801504679e-05
1.1649250288265866369e-05
1.1640481241042785972e-05
1.1628127738705480327e-05
1.160142424769992278e-05
1.1525728980919200281e-05
1.139829527976739334e-05
1.1288933511194388704e-05
1.1207638950179542298e-05
1.1156235225411334654e-05
1.1130791946664302125e-05
1.1120960784441433718e-05
1.1118951138875065682e-05
1.1143531237212489049e-05
1.1250648810884230546e-05
1.1401025728232591785e-05
1.1517106393215679179e-05
1.1600433697826364158e-05
1.1655262824396324874e-05
1.1688751941592242739e-05
1.1707016926620595297e-05
1.1716570284416132007e-05
1.1722150443597262508e-05
1.1726519119905706796e-05
1.1730824889529008876e-05
1.1735027569190215475e-05
1.1736771114781463328e-05
1.1734651040575973851e-05
1.1728218160822815024e-05
1.1719496501361179185e-05
1.170565234434217371e-05
1.1671337039964216315e-05
1.156642233088267379e-05
1.1390088159844956385e-05
1.1244762733894269138e-05
1.1142450544393115404e-05
1.1084192021545160006e-05
1.1060437866467763725e-05
1.1053327007645736351e-05
1.1061759188053217693e-05
1.1126674659061008607e-05
1.1327692415053340307e-05
1.1540925130866522548e-05
1.1708342947271499712e-05
1.1839622959840252517e-05
1.1946720720202728117e-05
1.2039765274278201553e-05
1.2125628731737947527e-05
1.2202112595675756616e-05
1.2262720278122450049e-05
1.2300018325031563261e-05
1.2312422158747012935e-05
1.2307296727704562407e-05
1.229156676625489436e-05
1.223732543510859446e-05
1.2060120939934907311e-05
1.1836881107663379566e-05
1.1683787951211038121e-05
1.1601066480388322403e-05
1.1569737397052182713e-05
1.1562104409919685526e-05
1.1574328133579874273e-05
1.1654012967690757763e-05
1.1767268690421350298e-05
1.1837928645305495376e-05
1.1872967386270962174e-05
1.1883931619095925081e-05
1.1881909449865561348e-05
1.187504961981641304e-05
1.1867267765872212412e-05
1.1859381347444254915e-05
1.1850856742647198713e-05
1.183964601009184033e-05
1.1816922088769127907e-05
1.1754638533867993615e-05
1.1607017771515332501e-05
1.1456575331188414974e-05
1.1331428213407733079e-05
1.1235182234467801211e-05
1.1167830900685752688e-05
1.112570243469328989e-05
1.1102539832924581006e-05
1.1090240388038551542e-05
1.1082660001925646772e-05
1.1077739493495102456e-05
1.1082320667181122195e-05
1.1100293494442908188e-05
1.1112756855450693966e-05
1.1118745834904948807e-05
1.111888521042632343e-05
1.111481052855740522e-05
1.1108321482723381186e-05
1.1100368154613601623e-05
1.1091327905015512469e-05
1.1078280788393000909e-05
1.1051688446980206234e-05
1.1005118034568061669e-05
1.0960808859126216591e-05
1.0920776371169793319e-05
1.0886318901257923352e-05
1.0857389009132648595e-05
1.0833692191869842989e-05
1.081495400250566894e-05
1.0800269631855949042e-05
1.0789035017628365281e-05
1.077986562793719182e-05
1.0771727497537081396e-05
1.0764318027097355285e-05
1.0758567382697099062e-05
1.0758411360680569699e-05
1.0761239834171498612e-05
1.0761472955897352261e-05
1.0759380789132081595e-05
1.075516289834134395e-05
1.0749434903915162378e-05
1.074282382195450342e-05
1.0735587396348458117e-05
1.072798179579829018e-05
1.0719357184498595704e-05
1.0707337744581430175e-05
1.0692905648056523238e-05
1.0679246806661241276e-05
1.0666492284597620528e-05
1.0654704939086862434e-05
1.0644310938319659609e-05
1.0635280523298664052e-05
1.0627080679591972877e-05
1.0619578823160515162e-05
1.0612471968272794154e-05
1.0606265849107894729e-05
1.0603332550795084734e-05
1.0607680726397171906e-05
1.0612264869536788028e-05
1.0614736580793651571e-05
1.0614989466535239824e-05
1.0613147357923963682e-05
1.0609489475870537118e-05
1.0604284737921409492e-05
1.059806971475673103e-05
1.0591027498890736796e-05
1.0583553728772668168e-05
1.0575776567672701546e-05
1.0566986648496875097e-05
1.0554771413541593394e-05
1.0539309727513912111e-05
1.0524705717231073649e-05
1.0511407825660173e-05
1.0499483225418953977e-05
1.0489221327673210196e-05
1.0480336898986145476e-05
1.0472549349929628266e-05
1.0465335003004244918e-05
1.0458642291780232864e-05
1.0453298575488865018e-05
1.0451900615539160236e-05
1.0457292859842991177e-05
1.0462314921743084213e-05
1.0465915778380659453e-05
1.0467786742532073427e-05
1.046779113102618865e-05
1.0465901338777610567e-05
1.0462355857872250226e-05
1.0457544903686471263e-05
1.0451849154379214783e-05
1.0445471067339982463e-05
1.0438715567781002425e-05
1.0431788812610047826e-05
1.0424580187890469983e-05
1.0417155549944510752e-05
1.0408927583291930952e-05
1.0398627569065148067e-05
1.0387531999905954888e-05
1.0376563581511366306e-05
1.0365751267704872301e-05
1.0355109190350405518e-05
1.0344859241600628207e-05
1.033493892268377612e-05
1.0325388614218748644e-05
1.0316397090145012309e-05
1.0307941098057377827e-05
1.0299964596521627837e-05
1.0292409872684865252e-05
1.0285141627828135134e-05
1.0278017049106401748e-05
1.0271047545519462854e-05
1.0264426681166287014e-05
1.0258636816182025746e-05
1.025532362235780643e-05
1.0256524686410661848e-05
1.0258448962299760148e-05
4.9876348224680092181e-07
6.3295917089814506408e-07
7.3958390919102017149e-07
8.1419121109841311766e-07
8.8040190341386357031e-07
9.71087038233130464e-07
1.1000548023980883418e-06
1.2254020144805305272e-06
1.3123432290162150935e-06
1.3835186920389114331e-06
1.4808364318689247136e-06
1.5943854434734454246e-06
1.6752444152464073229e-06
1.7131700818265402126e-06
1.7460158726875290941e-06
1.8150859177330020316e-06
1.9479441640619220542e-06
2.0795560721930941435e-06
2.1743236040274355574e-06
2.2254458397106964891e-06
2.2518735826686360334e-06
2.2862756601658569274e-06
2.3649891044651448432e-06
2.5563303454308723747e-06
2.7479663758354153493e-06
2.8654471679908199859e-06
2.9148291495600151901e-06
2.9284835602575395986e-06
2.9377332123365935691e-06
2.9603351001553637465e-06
3.0262210878327531115e-06
3.1444742703857241635e-06
3.268379795250375732e-06
3.3862302390120168315e-06
3.4820577389283208862e-06
3.5449045789053096832e-06
3.5764550759099719024e-06
3.5927695093020925758e-06
3.6173141592436577977e-06
3.6773512591844634981e-06
3.8057560311484970605e-06
3.9310800604887621767e-06
4.0361106619097724828e-06
4.121291872308341157e-06
4.1859841033576078477e-06
4.2270190073415189787e-06
4.2533033583704067744e-06
4.2843979266994259192e-06
4.3364826641640809882e-06
4.418062207140299906e-06
4.5301114635055802194e-06
4.6615459922784723931e-06
4.7888579103722387972e-06
4.8894395648952342968e-06
4.9549243081959367912e-06
4.9923974175568031403e-06
5.0181990370574841858e-06
5.0498541237987125226e-06
5.1013511003236208452e-06
5.1767738513231475621e-06
5.2684197632106512078e-06
5.3618567116319497404e-06
5.4407856975512487892e-06
5.4939873853206321665e-06
5.5202546236087936447e-06
5.5294481731169728097e-06
5.5374922061996344669e-06
5.559046213690875097e-06
5.6239228943379101285e-06
5.7553493716377593004e-06
5.882591660721436638e-06
5.9829896232036846205e-06
6.0524148105678161614e-06
6.0999195644923709982e-06
6.1427434131489671605e-06
6.2010452830598713049e-06
6.2801918771858844463e-06
6.3637394115594471305e-06
6.4295178324729132258e-06
6.4705422317621828145e-06
6.494007047846626202e-06
6.5119226976761270334e-06
6.5358893646208043488e-06
6.5717314180015894045e-06
6.6147385199298863536e-06
6.6541615775184159527e-06
6.683785748370896072e-06
6.7084539649757528323e-06
6.7409970614335967519e-06
6.7946720746549441462e-06
6.8764119502890765393e-06
6.9825488825025951861e-06
7.0969944164010286515e-06
7.1983184052911818995e-06
7.271760684811490267e-06
7.3175733899347347023e-06
7.3490363343187462778e-06
7.3814581296857693281e-06
7.4244192480555153442e-06
7.4786947180921171322e-06
7.5393768098372550331e-06
7.5996794319070679776e-06
7.6541574321517214733e-06
7.6996395623305233572e-06
7.7336920308176928444e-06
7.7545717156281395577e-06
7.7637536674057616655e-06
7.7688730264166661423e-06
7.781519121519255087e-06
7.8137137306773255327e-06
7.8692637160785092312e-06
7.9413768603462427386e-06
8.0187475739013867057e-06
8.0910332971156217899e-06
8.1528418487306161827e-06
8.2040506137297767333e-06
8.248660061988003975e-06
8.2914157636501914267e-06
8.337422829497748443e-06
8.3895644270639424403e-06
8.4476737554955348236e-06
8.5082274238133652635e-06
8.5661623440423592939e-06
8.6173149225879452451e-06
8.658789458712448398e-06
8.6886659012360234022e-06
8.7068030287560834037e-06
8.7146050262632118711e-06
8.716401882744958637e-06
8.7185550691674501669e-06
8.7286044463723370381e-06
8.7595128138739376236e-06
8.8440320950870728755e-06
8.9607596654518314544e-06
9.077189661624526467e-06
9.17578960640463704e-06
9.2462634027076493398e-06
9.2884560635512020902e-06
9.3112922974785774409e-06
9.3258348163683075176e-06
9.341617069255121701e-06
9.3636445284481077157e-06
9.3925052089182223703e-06
9.4257299421570574899e-06
9.4601411114723953696e-06
9.4934119445765903055e-06
9.5238423371473870493e-06
9.5487769325603136965e-06
9.5664201241481792575e-06
9.5741415219197021334e-06
9.5732566882639243545e-06
9.567151665081240585e-06
9.5595449908231504879e-06
9.552747160320092064e-06
9.5513389503767487983e-06
9.5736284137719144247e-06
9.6598354208963476124e-06
9.7566570750415015912e-06
9.8290711250068006351e-06
9.8836636140274839525e-06
9.9282167679615234503e-06
9.9696941524475048564e-06
1.0011954947393179321e-05
1.0055385216116157919e-05
1.0098078768750935356e-05
1.0137204858180647301e-05
1.0170019375472059631e-05
1.0194813458452997988e-05
1.0210948356443455215e-05
1.0218917775060696161e-05
1.0220336376006005497e-05
1.0217173918379329121e-05
1.0211640428251821515e-05
1.0205505662634118037e-05
1.0200082456129598438e-05
1.019740014948299554e-05
1.0203577022279657134e-05
1.0211289838532265075e-05
1.021331606100630429e-05
1.0211045839463270369e-05
1.0207819152617050726e-05
1.0207442871926579578e-05
1.0214592490522263649e-05
1.0241430355640596619e-05
1.0307303929819293189e-05
1.0397863552894674245e-05
1.050485489436284357e-05
1.0620232781520733611e-05
1.0731645442207240346e-05
1.110579480881687545e-05
1.1094374722156877727e-05
1.1087026537342990662e-05
1.1084790167854955838e-05
1.1101954202478984702e-05
1.1178250268661917916e-05
1.1298596266878863095e-05
1.1408353041329633167e-05
1.1503824377920114628e-05
1.1582961252564649468e-05
1.1645695618559735607e-05
1.1693828109154411526e-05
1.1729177720917772839e-05
1.1754001848401685431e-05
1.1769198460505987661e-05
1.1775503316497383589e-05
1.1773857345100582415e-05
1.1766739536504357071e-05
1.1757001398337335566e-05
1.1739224718078191588e-05
1.1694107880025830459e-05
1.1605140059583358167e-05
1.1526022030371311218e-05
1.1464120769832167855e-05
1.1420418021762625269e-05
1.1392709224818215824e-05
1.1377765485268191581e-05
1.1369527337200625373e-05
1.1366907536902240631e-05
1.1386430155835985267e-05
1.147938455620356323e-05
1.1646422430564054744e-05
1.178525095013453827e-05
1.1889753195252120003e-05
1.1962021133436331546e-05
1.2008712390456874488e-05
1.2037135295829131057e-05
1.2053684188299358516e-05
1.2061885155135410201e-05
1.2063518156532096777e-05
1.2059954009416867346e-05
1.2052752287910067726e-05
1.2043745974496106031e-05
1.2030788807434228714e-05
1.2004621706589996543e-05
1.193892733216504161e-05
1.1842718502531481532e-05
1.1753126822731015122e-05
1.1674372422883985288e-05
1.1609311635756220773e-05
1.1561045478858478848e-05
1.1529926721561039238e-05
1.1513256301521143941e-05
1.150447072244123727e-05
1.1501747611885996831e-05
1.1522836774051053023e-05
1.1621054958997249036e-05
1.1780078508239022163e-05
1.1913142408005056801e-05
1.2020101254481060514e-05
1.2103787105340891981e-05
1.2168633456192037693e-05
1.2217696621149859036e-05
1.2253618487838973132e-05
1.2277187556803383775e-05
1.2289052655417930814e-05
1.2290906900184645102e-05
1.2285244968660897656e-05
1.2275906420789090451e-05
1.2259621781833801902e-05
1.2215760275060107151e-05
1.2096492195926133854e-05
1.1961576117913915132e-05
1.1859876459409271913e-05
1.1793041996839052923e-05
1.1757350150877867576e-05
1.1742840682379835425e-05
1.1737152475398953064e-05
1.1748424959033166047e-05
1.1818034902609386789e-05
1.1938183387531895488e-05
1.2033068731087805347e-05
1.2104041523997535908e-05
1.215488437305648041e-05
1.219111176531515836e-05
1.2217800505487807727e-05
1.2239299920966928336e-05
1.2258905813031271899e-05
1.2277976327657679799e-05
1.2296321887167520033e-05
1.2312799521200598092e-05
1.2324945887548687247e-05
1.2329992426449410222e-05
1.2327627501357137099e-05
1.231971620432003434e-05
1.2308418825606086554e-05
1.2283755214124726009e-05
1.2211230865029369723e-05
1.2037821278599067937e-05
1.1874138843725559034e-05
1.175512675635942189e-05
1.168388529070671925e-05
1.1652584506497601737e-05
1.1643019319114533724e-05
1.1645386922232961292e-05
1.1689875242855578939e-05
1.1862781753638431111e-05
1.2104963035891744421e-05
1.2295393643232622319e-05
1.2439153734917209141e-05
1.2551253917630857457e-05
1.2646714612388526005e-05
1.2737138594955063969e-05
1.2824245695248313875e-05
1.2899736554765739557e-05
1.2952961789809274437e-05
1.2977342646978710298e-05
1.2977486103245564948e-05
1.296507485414211457e-05
1.292489956244036101e-05
1.2780438300288927259e-05
1.2536244526769797395e-05
1.2358025703050276329e-05
1.2256425008416856423e-05
1.2214156059111719242e-05
1.2202759358550348259e-05
1.2206061325208596377e-05
1.2258277687976225874e-05
1.2363954363959315063e-05
1.243603638559568543e-05
1.2475944174565637378e-05
1.2494165712880837059e-05
1.2499904306121149123e-05
1.2500213160608204032e-05
1.2497228124577553144e-05
1.2491870855102194142e-05
1.2484762857483696187e-05
1.2475673372371048089e-05
1.2460688873572769349e-05
1.2422438238185390806e-05
1.2310355681582821742e-05
1.2146640460085290827e-05
1.2008180341421569373e-05
1.190006753912148812e-05
1.1823227778534056297e-05
1.1773496973146594239e-05
1.1745204694445011723e-05
1.1729938832883610755e-05
1.172081090156443917e-05
1.1713820905976510722e-05
1.1711917885261335096e-05
1.1720601564487552397e-05
1.1726730194214547454e-05
1.172752525475861062e-05
1.1723793238647328542e-05
1.1717458815329856906e-05
1.1709203680657588375e-05
1.1700167562701262896e-05
1.1688288564521226795e-05
1.1666550608459384729e-05
1.1622478525851125838e-05
1.1575993928134086796e-05
1.1534364941289371691e-05
1.1497687217804684423e-05
1.1466638829625204092e-05
1.1440783158273487357e-05
1.1419565772595387755e-05
1.140247693511130306e-05
1.1388667850501860206e-05
1.1377591148004907493e-05
1.1368166628395111564e-05
1.135956071354118094e-05
1.1351595183805264773e-05
1.1344871165995949717e-05
1.1341998784137649451e-05
1.1340182662936989824e-05
1.1336678783282995434e-05
1.1331694480498662436e-05
1.1325463719269457724e-05
1.1318461933914776958e-05
1.1310934794456153709e-05
1.1303033529458008505e-05
1.129463292903768762e-05
1.1284329784578078117e-05
1.127110240507833499e-05
1.1258178821313242303e-05
1.1245747258424522615e-05
1.1233907504102683513e-05
1.1222796945949091706e-05
1.1212876090682198768e-05
1.1203950933488258164e-05
1.119564005233774002e-05
1.1187925812683250759e-05
1.1180506788782698671e-05
1.1174258602570513393e-05
1.1172183735957022212e-05
1.1176273226088329559e-05
1.1179088403743741309e-05
1.117979845184925353e-05
1.1178400566284606594e-05
1.1174977199314949433e-05
1.1169739764107561967e-05
1.1163359767457180086e-05
1.1155992331443874725e-05
1.1148082719190632105e-05
1.1139828417587683008e-05
1.1130707200969741627e-05
1.1118664119539004251e-05
1.1103641613975857288e-05
1.1089438512720225358e-05
1.1076475745362044073e-05
1.1064884093265082705e-05
1.1054828560274430064e-05
1.104594510035338056e-05
1.1037918692883061768e-05
1.1030281193024608791e-05
1.1023055868299442208e-05
1.1016806810710382873e-05
1.1013024351314619568e-05
1.1015144644847549166e-05
1.101846704186126376e-05
1.1020596179472278255e-05
1.1021124690597192762e-05
1.1019806435872775635e-05
1.1016659192116786472e-05
1.1011926284394569573e-05
1.1006037278079970152e-05
1.0999252742176873789e-05
1.0991917993647993016e-05
1.0984382165476714186e-05
1.0976601567017787203e-05
1.0968667771559772512e-05
1.0960353222631592717e-05
1.0951105554629533191e-05
1.0941790522731907753e-05
1.0932508115194603112e-05
1.0923316228912186812e-05
1.0914119983384973508e-05
1.0904975538217199344e-05
1.0896019062734252478e-05
1.0887172075991115107e-05
1.0878464131238126922e-05
1.0869970924898414907e-05
1.0861644022484448775e-05
1.0853573529440062998e-05
1.0845707901499563886e-05
1.0838031385646787648e-05
1.0830505378198733123e-05
1.0823055098765937314e-05
1.0815797784716900171e-05
1.0809009956565212684e-05
1.0803591010314894232e-05
1.0801538243864961848e-05
1.0801109882429424394e-05
1.0800856977745582437e-05
5.0072240375838055471e-07
6.3493349626662597169e-07
7.5451654546054581233e-07
8.1671631569024338698e-07
8.7564243423227719923e-07
9.9777456393189733937e-07
1.1278661118259640896e-06
1.2154090175372764229e-06
1.3011385292130936113e-06
1.4116413122304144563e-06
1.5428302341486634479e-06
1.6688825144994573314e-06
1.7511996737141809541e-06
1.7908353782802197572e-06
1.8337910540746158436e-06
1.9173965271369896377e-06
2.0358442420419982557e-06
2.1663470230278537455e-06
2.2807654886983642641e-06
2.3555268222626668587e-06
2.393139550419314882e-06
2.4269855134189463918e-06
2.4965341616247722248e-06
2.6457723552589755855e-06
2.823335151221869548e-06
2.9671099050069462763e-06
3.0502682502637364805e-06
3.0835335373733596261e-06
3.0968203498451370308e-06
3.1171102709316760673e-06
3.1686030829559876363e-06
3.3029831334469670935e-06
3.4520580237864165542e-06
3.5801268294553556503e-06
3.6877871416975230774e-06
3.7657270387311531627e-06
3.8085932805642882933e-06
3.8270530169116412218e-06
3.844892333993671562e-06
3.8850545635732463878e-06
3.9816676255070958737e-06
4.1033924022166478772e-06
4.2144503781854284727e-06
4.3108617995690364273e-06
4.3914358237719579119e-06
4.4439938558210319801e-06
4.4735976928659712561e-06
4.5086584880555974448e-06
4.5686613172103658753e-06
4.6518050047289531907e-06
4.7529877054855275824e-06
4.8626970038133569035e-06
4.9584558740304337485e-06
5.0206816052219244666e-06
5.0590525836027156384e-06
5.1068608216737573671e-06
5.1855631315295770055e-06
5.2868880619098081896e-06
5.3868636487718972022e-06
5.4772308300223905461e-06
5.5662601110632481692e-06
5.6555041789972999939e-06
5.7326810190369069687e-06
5.7839766677152458187e-06
5.8085620437592432963e-06
5.8207210825148944402e-06
5.8413315046455037107e-06
5.8939938343034318683e-06
6.0196550294175224107e-06
6.172776190765754874e-06
6.311628685511090819e-06
6.4141090124864173549e-06
6.4740405272513556779e-06
6.4998119693292337812e-06
6.509109176846371738e-06
6.5215465413322981197e-06
6.5549718066758818195e-06
6.6411644452361440267e-06
6.7443699765113771893e-06
6.8326083967050981645e-06
6.8939946894377619621e-06
6.9277178255103546517e-06
6.9414334446422711224e-06
6.9444725268143762641e-06
6.9447255150664320456e-06
6.9480436663562637664e-06
6.9603953684529030338e-06
6.9966081571630139323e-06
7.091997868247508453e-06
7.2231633931992325468e-06
7.3620943095771909049e-06
7.4926970933684599693e-06
7.598545224233614132e-06
7.6717976457706650936e-06
7.7163869088487438273e-06
7.7455349200033705959e-06
7.7731760074353701314e-06
7.8078707553855695371e-06
7.8524414861200926688e-06
7.9060624063955319826e-06
7.9659871564769490495e-06
8.0282390443060323967e-06
8.0879595380397519726e-06
8.1398415810976513976e-06
8.1788795903939461577e-06
8.2020118974016264439e-06
8.2104493720725756247e-06
8.2108615899047064933e-06
8.2120942851648267121e-06
8.2230486436233436541e-06
8.2676770377379546706e-06
8.3761305480325425873e-06
8.4805868265339704435e-06
8.5636361623709412902e-06
8.6260799137768763475e-06
8.6752104245852820655e-06
8.719542665983076799e-06
8.7652617575365494613e-06
8.8148518027686455022e-06
8.868807560150261958e-06
8.9260974018736291118e-06
8.9847474716122011822e-06
9.0412024438772224812e-06
9.0907785729320242802e-06
9.1290411733481478319e-06
9.1531691528892497031e-06
9.164627611462939708e-06
9.1706721958005581191e-06
9.1827520516505799707e-06
9.212490544720494586e-06
9.266888564496384784e-06
9.3448444377055047804e-06
9.4370139921932340088e-06
9.5299507757612539994e-06
9.6103759941879899432e-06
9.6707261382765242363e-06
9.7096993167899378765e-06
9.7340118157619583101e-06
9.7528244301042383424e-06
9.7749281172108201806e-06
9.8055601848966116556e-06
9.8451601538106079574e-06
9.8902388305793504357e-06
9.9358765119166269204e-06
9.9777984712844417729e-06
1.0013035902849238301e-05
1.0039241833244662901e-05
1.0056230284703964546e-05
1.0062981208546936438e-05
1.0061591735416418049e-05
1.005552952070425289e-05
1.0047136518605656962e-05
1.0038580774160135646e-05
1.003308642655051574e-05
1.0040002809616353619e-05
1.0091337977490052037e-05
1.0178380592436316558e-05
1.0247816445576148208e-05
1.0303790867402785701e-05
1.0353278544715679876e-05
1.0403461233341657394e-05
1.0458124265643436838e-05
1.0517953042737704337e-05
1.0579535231542985067e-05
1.0638886076838381144e-05
1.069070239636030049e-05
1.0731925614604539762e-05
1.0759956409445286125e-05
1.0775592360232851932e-05
1.0780578174529903372e-05
1.0778125563402326108e-05
1.0772024945379886352e-05
1.0764235912546005945e-05
1.075408793156923455e-05
1.0739514119051025602e-05
1.072820414475610718e-05
1.0720173137555586424e-05
1.0714208237692203764e-05
1.0716361563468493096e-05
1.074547266305950609e-05
1.0787438185285284264e-05
1.0821258154505046447e-05
1.0855572851381639767e-05
1.089898625868501596e-05
1.0958237203740684492e-05
1.1034222118534800652e-05
1.1124653591034172991e-05
1.1227258857857469452e-05
1.1335249932831250802e-05
1.1663414006315048175e-05
1.1655357409079968609e-05
1.1652529661679275266e-05
1.1670165828363734381e-05
1.1747101573249070283e-05
1.1853691418865436118e-05
1.1947839316073852043e-05
1.2032826178726325778e-05
1.2109636990418044423e-05
1.2178528223706695625e-05
1.2240336692151967078e-05
1.2295984578502245913e-05
1.2344809131714563915e-05
1.2385211157776542171e-05
1.2414599693639742973e-05
1.2430729395648161743e-05
1.2433898385932965332e-05
1.2427740329708134479e-05
1.2417319502303252526e-05
1.2395829498118700692e-05
1.2335696923893332049e-05
1.2226451536553953743e-05
1.2134546755186333608e-05
1.2065556492476315722e-05
1.2018929941909191092e-05
1.1990561792279446669e-05
1.1976065475847778131e-05
1.1967952732165843623e-05
1.1967418755094782489e-05
1.1996093249318221576e-05
1.2107556516234402967e-05
1.2249234121072610174e-05
1.2364373870493444995e-05
1.2455960229570531202e-05
1.2527747731416641913e-05
1.2584774132494064956e-05
1.2630642135410666868e-05
1.2666226689445328946e-05
1.2690763985482922933e-05
1.2703637481652560668e-05
1.2705372334775556236e-05
1.2699401844078191551e-05
1.2689890798016884875e-05
1.267491565179255655e-05
1.2640519053630366062e-05
1.2549811927645181038e-05
1.2432552359434362584e-05
1.2332392528103686016e-05
1.2251824361762544711e-05
1.2193418384142467337e-05
1.2156374076858952996e-05
1.2137008003769687327e-05
1.212750269527063938e-05
1.2124888431302082245e-05
1.2148667414770901622e-05
1.2254843235367976728e-05
1.2414127148806471167e-05