/*--------------------------------*- C++ -*----------------------------------*\
  =========                 |
  \\      /  F ield         | OpenFOAM: The Open Source CFD Toolbox
   \\    /   O peration     | Website:  https://openfoam.org
    \\  /    A nd           | Version:  12
     \\/     M anipulation  |
\*---------------------------------------------------------------------------*/
FoamFile
{
    format      ascii;
    class       volScalarField;
    location    "0.0115";
    object      pPrime2Mean;
}
// * * * * * * * * * * * * * * * * * * * * * * * * * * * * * * * * * * * * * //

dimensions      [2 -2 -4 0 0 0 0];

internalField   nonuniform List<scalar> 
75962
(
1547886.6098194122314
1528014.2433032989502
1519750.6161098480225
1514115.6865234375
1509859.7801609039307
1506179.8036766052246
1502717.7329502105713
1499375.4348220825195
1496144.1399631500244
1493045.3479652404785
1490043.6840362548828
1487140.0480632781982
1484313.6190719604492
1481523.402286529541
1478845.9530353546143
1476409.5255756378174
1474216.69358253479
1472178.7002277374268
1470198.7145595550537
1468200.3870468139648
1466159.4200305938721
1464097.1907901763916
1462104.3844604492188
1460229.3535041809082
1458480.1165866851807
1456873.9088382720947
1455443.5120944976807
1454206.6437873840332
1453153.5406246185303
1452241.1028785705566
1451423.1866416931152
1450661.8381748199463
1449922.5954246520996
1449191.551197052002
1448468.4843654632568
1447732.8938426971436
1446957.8600997924805
1446142.6602897644043
1445296.158519744873
1444432.5676574707031
1443562.0870494842529
1442678.1234092712402
1441764.3532981872559
1440803.8467845916748
1439785.555046081543
1438706.2368431091309
1437571.7102909088135
1436392.1324043273926
1435168.7927703857422
1433880.7169647216797
1432501.9059104919434
1431032.7126216888428
1429483.9823970794678
1427863.548755645752
1426184.8354759216309
1424460.2574577331543
1422698.3119487762451
1420914.4113750457764
1419134.8931846618652
1417388.1457500457764
1415693.7284259796143
1414050.857234954834
1412444.2264308929443
1410856.1010818481445
1409284.9260578155518
1407743.3683128356934
1406235.4140567779541
1404750.8563652038574
1403273.5809516906738
1401793.4973201751709
1400314.4900550842285
1398840.4010124206543
1397357.9087162017822
1395847.3404903411865
1394304.7637367248535
1392745.220458984375
1391194.941499710083
1389668.1633472442627
1388162.3493576049805
1386658.241771697998
1385138.6527919769287
1383599.828634262085
1382044.5396156311035
1380481.2032356262207
1378920.1599426269531
1377372.7706737518311
1375841.7519931793213
1374319.1963024139404
1372797.29616355896
1371282.1508369445801
1369788.9702835083008
1368326.7765693664551
1366893.8142547607422
1365490.7688140869141
1364130.0591621398926
1362825.2444801330566
1361574.0725173950195
1360355.8145351409912
1359149.2196826934814
1357937.9879722595215
1356711.7170143127441
1355466.2980937957764
1354203.123872756958
1352922.8479518890381
1351622.5728530883789
1350300.3424110412598
1348958.5187377929688
1347599.083984375
1346218.7114582061768
1344807.4585437774658
1343353.8903923034668
1341854.6591167449951
1340314.0581703186035
1338737.2266845703125
1337123.9138374328613
1335468.4631996154785
1333768.0839519500732
1332026.0249137878418
1330249.8471755981445
1328445.1250686645508
1326613.6923656463623
1324753.6442909240723
1322862.1143417358398
1320936.9557094573975
1318977.107593536377
1316986.1312313079834
1314973.5624198913574
1312951.3936195373535
1310928.1126556396484
1308908.0694465637207
1306893.1512794494629
1304888.0932941436768
1302901.2041645050049
1300944.3789749145508
1299030.0732288360596
1297167.0715770721436
1295356.7545547485352
1293593.7334747314453
1291872.4029579162598
1290194.09836769104
1288566.523416519165
1286997.2045841217041
1285485.3868808746338
1284019.4079895019531
1282582.4062080383301
1281160.4726409912109
1279745.3346157073975
1278330.213041305542
1276905.2864570617676
1275457.9601364135742
1273978.0985050201416
1272462.9915866851807
1270917.1278743743896
1269347.8335704803467
1267758.295539855957
1266145.2764739990234
1264503.4146270751953
1262829.4965057373047
1261124.3330879211426
1259390.9271183013916
1257628.9401397705078
1255832.9704608917236
1253999.4333782196045
1252134.040943145752
1250249.743501663208
1248357.2599620819092
1246460.3439083099365
1244558.0096740722656
1242651.8903427124023
1240749.8178291320801
1238860.0339736938477
1236982.3797969818115
1235109.0903148651123
1233233.6637916564941
1231356.975923538208
1229486.4779891967773
1227631.5198078155518
1225798.9698333740234
1223990.5602016448975
1222204.8315563201904
1220438.9629135131836
1218691.7957668304443
1216966.2807025909424
1215270.474609375
1213613.9128112792969
1212000.5761566162109
1210425.058256149292
1208875.8148918151855
1151664.4905223846436
1150291.4744148254395
1148912.3787097930908
1147519.8696880340576
1146109.4490547180176
1144682.00319480896
1143241.9206428527832
1141792.972843170166
1140336.6608009338379
1138873.723575592041
1137404.8720626831055
1135931.6310367584229
1134455.7745056152344
1132979.5349502563477
1131505.0092124938965
1130032.4874725341797
1128559.4060974121094
1127081.5676174163818
1125594.6267833709717
1124095.9507427215576
1122585.1560955047607
1121062.6083126068115
1119528.2171382904053
1117981.6118869781494
1116424.3639354705811
1114860.8676204681396
1113296.038293838501
1111731.6972236633301
1110166.0865268707275
1108596.9526901245117
1107024.1672897338867
1105451.1964778900146
1103886.1468353271484
1102341.1413421630859
1100829.440803527832
1099360.7094192504883
1097937.5465202331543
1096553.6546688079834
1095195.8214836120605
1093848.2107925415039
1092498.6991729736328
1091143.5959339141846
1089787.6835174560547
1088438.9548759460449
1087103.931058883667
1085784.2054309844971
1084475.8519401550293
1083171.8742561340332
1081866.3907127380371
1080559.2470111846924
1079257.0418014526367
1077969.9649257659912
1076706.2696418762207
1075467.7727718353271
1074248.4246501922607
1073036.1130847930908
1071817.936429977417
1070586.4901065826416
1069342.5171146392822
1068093.2619609832764
1066846.6442413330078
1065606.4681091308594
1064371.1982479095459
1063135.8038520812988
1061895.4589920043945
1060647.5911026000977
1059391.465539932251
1058126.7292175292969
1056851.1572322845459
1055561.5102500915527
1054255.6382637023926
1052933.9396991729736
1051598.5299053192139
1050250.8818016052246
1048891.1039962768555
1047518.6007347106934
1046132.8200778961182
1044733.8944892883301
1043322.7137851715088
1041901.2909889221191
1040472.2015800476074
1039036.7574729919434
1037593.2427196502686
1036136.3674545288086
1034660.4599227905273
1033162.5419578552246
1031644.5457153320312
1030112.2678833007812
1028572.8200283050537
1027030.8571491241455
1025486.2416458129883
1023936.2878456115723
1022379.665060043335
1020819.5309314727783
1019262.5019702911377
1017714.9805812835693
1016178.4539890289307
1014648.212553024292
1013116.1360855102539
1011575.5552196502686
1010024.9981937408447
1008468.2260856628418
1006911.366527557373
1005360.478422164917
1003819.9943351745605
1002291.7025775909424
1000775.646505355835
999271.60262870788574
997780.0551815032959
996301.43918418884277
994835.48246002197266
993381.43756484985352
991939.5358829498291
990511.10698318481445
989097.21844291687012
987697.42632484436035
986309.69705009460449
984931.8559684753418
983563.42457962036133
982206.05106925964355
980862.50313377380371
979534.84795570373535
978223.16252136230469
976925.8886604309082
975640.65094947814941
974364.84826278686523
973095.91178703308105
971831.66581535339355
970570.7292594909668
969313.37734222412109
968061.47595024108887
966817.11257553100586
965580.47050666809082
964348.41780471801758
963114.54885292053223
961870.62001037597656
960608.64580154418945
959322.22521018981934
958007.17194557189941
956662.03770637512207
955288.9073657989502
953893.37409973144531
952483.06721115112305
951065.65567588806152
949647.03165435791016
948230.38438415527344
946816.46685409545898
945404.97114944458008
943995.94205284118652
942589.51800537109375
941185.08686256408691
939780.44413948059082
938372.26766395568848
936957.99678421020508
935537.2693042755127
934112.10130500793457
932685.54697036743164
931260.25713539123535
929837.94979476928711
928419.8431282043457
927007.21323204040527
925601.25300979614258
924202.12771224975586
922808.14699935913086
921416.38933753967285
920024.65027236938477
918633.65276718139648
917247.45658111572266
915871.89735984802246
914512.40584945678711
913172.44208145141602
911853.37148857116699
910555.42647171020508
909278.34487342834473
908021.6175594329834
906784.47744178771973
905565.85968208312988
904364.44822692871094
903178.84744262695312
902007.92277336120605
900851.07554626464844
899707.95491981506348
898577.6682014465332
897458.27154541015625
896346.84843826293945
895240.09391784667969
894135.15494728088379
893030.35793113708496
891925.61201667785645
890822.42329978942871
889723.14929580688477
888629.99889183044434
887544.48045539855957
886467.564453125
885400.40374183654785
884344.71428680419922
883302.34766960144043
882274.18977546691895
881259.26215744018555
880254.66392517089844
879256.31653213500977
878259.98983955383301
877262.18358421325684
876260.74464225769043
875255.1639461517334
874246.12618637084961
873234.48488616943359
872220.23284339904785
871201.99817085266113
870177.12518692016602
869142.06588745117188
868093.21137809753418
867028.08611106872559
865946.36441993713379
864849.84054183959961
863741.08615875244141
862621.70470237731934
861491.52861213684082
860349.08061981201172
859192.8693962097168
858022.60566902160645
856840.11852645874023
855649.7983512878418
854458.36379814147949
853273.85782814025879
852103.7667407989502
850953.0073413848877
849822.61956977844238
848709.64077949523926
847608.17111968994141
846511.48698616027832
845414.49234962463379
844315.52865600585938
843216.63061714172363
842122.07651138305664
841036.04444313049316
839960.71040725708008
838895.91093444824219
837840.23543548583984
836792.47906303405762
835752.51995086669922
834721.49497985839844
833701.59924697875977
832695.72482109069824
831706.87167549133301
830737.2307300567627
829787.506103515625
828856.97578620910645
827944.25275802612305
827048.18243026733398
826168.30295753479004
825304.72622871398926
824457.69702911376953
823627.02266693115234
1563117.483757019043
1537956.3778381347656
1527211.3729152679443
1519328.9667358398438
1513369.6030330657959
1508757.7538299560547
1504956.5033473968506
1501506.2659225463867
1498187.156587600708
1494910.0670986175537
1491634.5768280029297
1488409.9924907684326
1485252.5285682678223
1482131.0396976470947
1479106.4202346801758
1476328.2484645843506
1473852.1680068969727
1471609.827693939209
1469547.411434173584
1467618.5156860351562
1465737.7811889648438
1463857.7030735015869
1462025.662841796875
1460285.8856105804443
1458609.1883144378662
1456974.4686756134033
1455434.4825534820557
1454036.1975402832031
1452799.677942276001
1451729.608907699585
1450806.3824520111084
1449994.4097423553467
1449261.4635028839111
1448583.0374965667725
1447938.1826248168945
1447294.6465301513672
1446615.8136425018311
1445886.1731719970703
1445098.8417415618896
1444250.6070823669434
1443351.9517402648926
1442411.5457420349121
1441423.856086730957
1440375.1993789672852
1439252.2473087310791
1438057.4933414459229
1436814.9226570129395
1435544.3849811553955
1434242.3037567138672
1432888.959924697876
1431467.1437244415283
1429973.4823818206787
1428418.5160980224609
1426808.5164489746094
1425149.4576511383057
1423442.181282043457
1421688.1652965545654
1419896.8090171813965
1418096.6986198425293
1416324.1739406585693
1414605.4711875915527
1412953.3484535217285
1411360.7793483734131
1409807.4753799438477
1408284.7822570800781
1406799.0291519165039
1405356.6081447601318
1403944.7557582855225
1402539.5644969940186
1401123.9855365753174
1399697.9317741394043
1398263.6544818878174
1396815.248477935791
1395344.2938385009766
1393848.0310249328613
1392336.7722930908203
1390829.5486488342285
1389337.3722229003906
1387854.4582748413086
1386365.9255924224854
1384858.0949802398682
1383330.1185264587402
1381794.1983432769775
1380262.965503692627
1378740.4504623413086
1377225.9338817596436
1375715.3469295501709
1374203.6972312927246
1372690.599479675293
1371185.7067356109619
1369704.8283672332764
1368256.6461849212646
1366839.5515384674072
1365452.1190185546875
1364102.1138935089111
1362799.0253887176514
1361540.8011493682861
1360311.6266403198242
1359091.951623916626
1357863.5997695922852
1356613.9397678375244
1355339.5697708129883
1354047.8672199249268
1352744.8201885223389
1351427.4983406066895
1350088.7591495513916
1348725.9074535369873
1347341.8703327178955
1345939.7175884246826
1344512.9976253509521
1343049.4356212615967
1341539.2188568115234
1339980.6470642089844
1338378.1021137237549
1336737.7854480743408
1335066.3671531677246
1333369.7484245300293
1331650.7783432006836
1329904.1984081268311
1328123.4692649841309
1326304.9759979248047
1324447.8876533508301
1322552.6962051391602
1320620.785831451416
1318654.8721618652344
1316660.2051849365234
1314646.6293354034424
1312624.8678131103516
1310602.6742572784424
1308582.8365631103516
1306566.8669033050537
1304557.5945110321045
1302562.5250377655029
1300592.9648113250732
1298660.6989765167236
1296776.0896167755127
1294943.3462238311768
1293158.0079612731934
1291413.5172348022461
1289710.2361392974854
1288056.6781520843506
1286462.6445274353027
1284929.817554473877
1283446.5438079833984
1281992.3983097076416
1280549.7374858856201
1279109.7798900604248
1277668.4189033508301
1276218.9026832580566
1274750.925163269043
1273257.3827972412109
1271737.7582302093506
1270198.0877208709717
1268645.3908176422119
1267080.8191299438477
1265498.2856311798096
1263888.9744625091553
1262247.079496383667
1260572.7169151306152
1258869.6056213378906
1257140.0310344696045
1255382.2242660522461
1253594.927453994751
1251782.8940601348877
1249954.6880779266357
1248117.353479385376
1246273.0757007598877
1244420.0543270111084
1242558.7263641357422
1240694.8154277801514
1238834.877124786377
1236979.4345169067383
1235123.6281547546387
1233262.1340217590332
1231394.2755889892578
1229525.6808528900146
1227665.4425468444824
1225823.7196216583252
1224008.1819763183594
1222220.9940776824951
1220458.6013336181641
1218716.2569770812988
1216992.4828472137451
1215291.8770580291748
1213623.3792991638184
1211993.0343589782715
1210398.4236736297607
1208830.31955909729
1207279.3167018890381
1153061.7827262878418
1151669.9897804260254
1150279.0949039459229
1148883.3596839904785
1147476.4519023895264
1146054.7401084899902
1144619.2093753814697
1143174.3108444213867
1141723.1371555328369
1140265.9512901306152
1138802.6515998840332
1137334.0222282409668
1135862.4588413238525
1134392.0520725250244
1132925.9448165893555
1131464.6455917358398
1130004.5596904754639
1128539.4077053070068
1127063.8402252197266
1125574.7596893310547
1124072.6437759399414
1122560.2738189697266
1121039.9122734069824
1119511.6697216033936
1117974.3411998748779
1116427.784351348877
1114874.3151721954346
1113317.3739128112793
1111758.1657581329346
1110194.6186962127686
1108624.7343559265137
1107048.8303146362305
1105471.5555763244629
1103902.1042194366455
1102353.1935081481934
1100838.1450958251953
1099366.0802993774414
1097937.814868927002
1096545.5461540222168
1095175.3247547149658
1093812.4067420959473
1092447.4181480407715
1091079.3809261322021
1089714.2236003875732
1088359.4867248535156
1087019.0962181091309
1085691.0998573303223
1084368.6239318847656
1083043.1694202423096
1081709.4434852600098
1080369.1876659393311
1079031.8346900939941
1077710.9733238220215
1076417.6114444732666
1075154.3096828460693
1073913.3803424835205
1072680.4435787200928
1071441.494535446167
1070188.9731903076172
1068923.6369037628174
1067651.262523651123
1066378.3035697937012
1065108.2267818450928
1063841.4315204620361
1062576.5167026519775
1061311.4117946624756
1060044.0328922271729
1058772.354362487793
1057493.7169933319092
1056204.4136524200439
1054900.3048534393311
1053578.9043045043945
1052241.5690803527832
1050891.9275302886963
1049532.518684387207
1048162.8513317108154
1046780.6303844451904
1045384.2354335784912
1043973.8721408843994
1042551.6438999176025
1041121.1646957397461
1039685.8444786071777
1038246.9066772460938
1036801.6435203552246
1035343.3616638183594
1033865.0136985778809
1032362.8578853607178
1030838.7455749511719
1029298.4744758605957
1027749.0373802185059
1026195.3496246337891
1024638.0856113433838
1023075.5167560577393
1021506.8080196380615
1019935.221170425415
1018368.0943069458008
1016812.7431259155273
1015271.7885971069336
1013740.8545207977295
1012211.2490673065186
1010675.1359405517578
1009129.7844142913818
1007578.2789077758789
1006026.6703338623047
1004481.0170707702637
1002945.3807468414307
1001421.3438091278076
999909.03532409667969
998408.92007637023926
996923.05301856994629
995453.34976768493652
993999.97427749633789
992561.43144989013672
991136.4393253326416
989725.27040100097656
988328.99745750427246
986947.98845481872559
985580.43577575683594
984223.77692604064941
982876.95176315307617
981541.64345169067383
980220.85884666442871
978916.51180267333984
977628.12286949157715
976353.64305305480957
975090.86989212036133
973837.8675422668457
972592.50319671630859
971352.62432289123535
970116.3547420501709
968883.12929725646973
967653.54751396179199
966428.05925941467285
965205.54693603515625
963982.59293365478516
962753.9086799621582
961513.53329467773438
960255.92382431030273
958976.58565139770508
957672.35991668701172
956341.75000381469727
954985.61862754821777
953607.55055618286133
952213.05861473083496
950808.1556282043457
949397.75078964233398
947985.18141555786133
946572.41713333129883
945161.28247833251953
943753.85023307800293
942351.60773658752441
940953.77322387695312
939557.10251617431641
938157.25618171691895
936751.12113571166992
935338.38242340087891
933921.07600975036621
932502.28514671325684
931085.17234039306641
929672.51103973388672
928266.32655906677246
926867.48344421386719
925475.43863677978516
924088.23265647888184
922703.05462265014648
921317.63883781433105
919932.08236503601074
918549.60504341125488
917175.7595329284668
915816.13597869873047
914474.33273506164551
913151.60955238342285
911847.8053092956543
910562.3367977142334
909294.72019958496094
908044.58050918579102
906811.58320426940918
905595.32866287231445
904395.31471252441406
903210.8210620880127
902041.07206344604492
900885.41608810424805
899743.18396377563477
898613.20807266235352
897493.46357154846191
896381.12030601501465
895272.93636512756348
894165.82597541809082
893057.58690643310547
891947.79851913452148
890838.27864646911621
889732.51125907897949
888634.21499824523926
887545.99797248840332
886468.88508224487305
885402.82144165039062
884347.62525749206543
883303.49978637695312
882270.78245162963867
881249.17054557800293
880237.1115608215332
879231.83169174194336
878229.9780445098877
877228.63881301879883
876226.15391159057617
875222.16720581054688
874216.95466041564941
873210.41701126098633
872201.47226905822754
871188.06503295898438
870167.43992233276367
869136.37436485290527
868091.53846740722656
867030.45507049560547
865952.66878700256348
864859.91630554199219
863754.90393829345703
862639.3715991973877
861513.01121520996094
860373.80230522155762
859219.31352996826172
858048.39049339294434
856862.28368949890137
855664.95957374572754
854462.70707702636719
853263.41311454772949
852075.47870445251465
850906.20181655883789
849759.75444984436035
848635.46035194396973
847527.65952301025391
846427.79275131225586
845327.96273231506348
844223.81784820556641
843115.4239330291748
842006.04454612731934
840899.94654083251953
839800.67331886291504
838710.36628341674805
837629.98418617248535
836559.82908248901367
835499.91801643371582
834450.08042907714844
833410.24916076660156
832381.01342010498047
831364.07331466674805
830362.04828834533691
829377.55712890625
828412.40256881713867
827467.45431327819824
826543.16271018981934
825640.00226974487305
824758.42488861083984
823898.26912117004395
823058.07223701477051
1540518.674934387207
1525068.403076171875
1518154.6096019744873
1512213.6756000518799
1507334.2388954162598
1503403.2597560882568
1500159.2027740478516
1497320.8510131835938
1494748.7304878234863
1492239.8102188110352
1489599.0681915283203
1486836.244701385498
1484020.4890766143799
1481171.316349029541
1478297.1230201721191
1475527.6899642944336
1472967.3591957092285
1470605.095142364502
1468437.1795234680176
1466477.6762981414795
1464673.3698406219482
1462926.7854251861572
1461223.4829025268555
1459618.2943878173828
1458081.74001121521
1456572.3293552398682
1455116.0740947723389
1453766.6420459747314
1452541.0094127655029
1451429.9489078521729
1450430.7803363800049
1449524.0927276611328
1448700.9139709472656
1447949.0571479797363
1447247.4478626251221
1446570.7031707763672
1445895.6957988739014
1445204.5130558013916
1444482.8949451446533
1443706.5601329803467
1442861.9718246459961
1441954.6327590942383
1440980.4464359283447
1439920.1324214935303
1438762.9525451660156
1437518.1824264526367
1436213.7447814941406
1434879.2392978668213
1433514.9997901916504
1432101.5060749053955
1430630.4895286560059
1429104.5345420837402
1427529.9076728820801
1425911.76171875
1424255.0606689453125
1422553.9191017150879
1420801.6015148162842
1419002.5977687835693
1417182.7057189941406
1415384.2548484802246
1413638.5099868774414
1411960.0416374206543
1410344.3588008880615
1408775.3277225494385
1407236.9971122741699
1405735.0513076782227
1404283.0487728118896
1402880.4959716796875
1401504.4634380340576
1400127.0979347229004
1398739.3736476898193
1397340.8826599121094
1395932.5682582855225
1394514.4921455383301
1393085.3792781829834
1391648.9369792938232
1390211.0179462432861
1388776.6092796325684
1387340.2362728118896
1385889.1742553710938
1384413.0413856506348
1382914.4006443023682
1381410.9167575836182
1379914.6648082733154
1378424.13844871521
1376931.2001113891602
1375429.6778335571289
1373920.3706245422363
1372410.4394588470459
1370911.0004291534424
1369434.9016647338867
1367990.065673828125
1366575.6413440704346
1365190.5833206176758
1363837.3748149871826
1362522.4404792785645
1361246.1793613433838
1359995.5184173583984
1358751.2423763275146
1357494.4798145294189
1356213.0535831451416
1354908.509334564209
1353590.3713150024414
1352267.6213512420654
1350936.1732978820801
1349583.448766708374
1348200.898494720459
1346795.3287830352783
1345378.1972064971924
1343947.7418537139893
1342487.9762268066406
1340979.1916618347168
1339413.9118061065674
1337798.6953315734863
1336148.9431858062744
1334481.7950038909912
1332808.5030155181885
1331127.1954154968262
1329421.6202220916748
1327675.2960987091064
1325881.2815608978271
1324041.0106601715088
1322158.0996265411377
1320235.5709133148193
1318277.2884483337402
1316289.6562557220459
1314282.5195350646973
1312266.0437240600586
1310246.9562129974365
1308229.4979515075684
1306216.8971729278564
1304213.2278728485107
1302224.8058166503906
1300258.0913734436035
1298320.482458114624
1296420.2886734008789
1294562.9370460510254
1292748.8119525909424
1290975.3398113250732
1289245.5813217163086
1287568.1254386901855
1285951.2136917114258
1284394.1337432861328
1282883.7467765808105
1281398.1861171722412
1279919.1172962188721
1278438.9383125305176
1276957.9843101501465
1275474.4900894165039
1273982.912109375
1272477.555025100708
1270956.933666229248
1269425.3068161010742
1267887.0376605987549
1266341.9917182922363
1264783.9163417816162
1263203.9103488922119
1261594.7284164428711
1259953.900936126709
1258284.0087909698486
1256589.7833614349365
1254875.3270664215088
1253144.9989719390869
1251403.3089923858643
1249653.2267246246338
1247894.8923473358154
1246126.1133213043213
1244343.6344585418701
1242547.520378112793
1240742.3880825042725
1238934.2165050506592
1237123.7877540588379
1235307.0809497833252
1233478.0983333587646
1231633.4063568115234
1229775.6325302124023
1227915.3568630218506
1226068.7506427764893
1224249.881031036377
1222463.7656898498535
1220706.2379360198975
1218969.3461265563965
1217246.6108169555664
1215538.4792613983154
1213851.5575256347656
1212192.9176063537598
1210563.8138904571533
1208959.6304111480713
1207375.6575546264648
1153059.392053604126
1151643.5084323883057
1150228.7617015838623
1148809.8743724822998
1147381.7397766113281
1145942.5719699859619
1144494.9218082427979
1143043.294454574585
1141589.3131046295166
1140130.9638442993164
1138666.1454696655273
1137195.3021450042725
1135722.1770515441895
1134252.1813678741455
1132789.427360534668
1131333.6657848358154
1129879.1638717651367
1128417.689281463623
1126942.3999290466309
1125450.6938991546631
1123945.4016723632812
1122431.6128826141357
1120913.5661029815674
1119392.8282718658447
1117869.0413341522217
1116341.0398750305176
1114808.6518402099609
1113272.4771823883057
1111731.9950046539307
1110184.649169921875
1108628.1872100830078
1107063.3930149078369
1105495.7212963104248
1103934.8343486785889
1102392.8090629577637
1100881.2431621551514
1099407.9235725402832
1097972.9347343444824
1096568.2846813201904
1095180.8496723175049
1093798.5141754150391
1092415.8484973907471
1091034.8101024627686
1089661.7459926605225
1088301.8825340270996
1086955.4745464324951
1085616.5729637145996
1084275.6108741760254
1082924.1494674682617
1081559.17653465271
1080185.6807231903076
1078815.4038639068604
1077463.2476272583008
1076140.7007617950439
1074849.5404777526855
1073580.5004177093506
1072318.20969581604
1071049.2369041442871
1069767.4191379547119
1068473.8516731262207
1067172.8771343231201
1065868.7752323150635
1064565.2609939575195
1063265.3518047332764
1061970.7658061981201
1060681.0532512664795
1059393.4015197753906
1058103.7369861602783
1056807.5364017486572
1055500.5651016235352
1054179.4828586578369
1052842.5870895385742
1051491.5124130249023
1050129.73095703125
1048759.0912036895752
1047378.1833648681641
1045983.9635753631592
1044575.0170059204102
1043152.6589298248291
1041720.5195274353027
1040282.9626026153564
1038843.5381050109863
1037402.7239723205566
1035956.9622802734375
1034499.2745265960693
1033022.4206466674805
1031522.3255958557129
1030000.1849155426025
1028460.7981948852539
1026909.8574295043945
1025351.7385387420654
1023788.2761211395264
1022219.5315093994141
1020646.34130859375
1019072.1189880371094
1017503.320779800415
1015946.5031147003174
1014404.7366828918457
1012875.0332050323486
1011349.752368927002
1009821.2256641387939
1008286.2769546508789
1006746.8803310394287
1005207.8067932128906
1003673.5395107269287
1002146.5674724578857
1000627.8519649505615
999118.59368705749512
997621.54539680480957
996140.73652076721191
994679.34062004089355
993237.54291725158691
991813.09879302978516
990403.95531845092773
989010.13346862792969
987633.35612869262695
986274.54115104675293
984932.26597213745117
983603.60379219055176
982286.51267433166504
980981.20344543457031
979689.49522972106934
978412.45223426818848
977149.42807579040527
975898.82966232299805
974659.18124198913574
973429.14533042907715
972206.63037109375
970988.66076469421387
969772.68353271484375
968557.70086288452148
967343.87495613098145
966130.95010375976562
964916.91134071350098
963698.24116706848145
962470.88494873046875
961231.41584014892578
959976.96151351928711
958705.09475326538086
957413.49785041809082
956100.24807167053223
954764.5103702545166
953407.37655258178711
952032.27230834960938
950644.03650283813477
949247.3481616973877
947845.91023254394531
946442.57309722900391
945039.98598098754883
943640.73902130126953
942246.11927223205566
940854.76017379760742
939462.98507690429688
938067.24611282348633
936666.00531196594238
935260.14857482910156
933851.90603637695312
932443.67055702209473
931037.88395309448242
929637.23740005493164
928243.94766616821289
926858.36843872070312
925478.50136184692383
924100.94102668762207
922722.62268257141113
921342.53164100646973
919962.71367073059082
918588.0621166229248
917224.66565704345703
915877.58932495117188
914549.3540153503418
913239.86812400817871
911947.52081871032715
910670.4324893951416
909407.27826690673828
908157.54346656799316
906921.53517723083496
905700.14910697937012
904494.24995803833008
903304.06464195251465
902128.97431373596191
900967.74156951904297
899818.89356422424316
898680.85031700134277
897551.99082946777344
896430.59810066223145
895314.57472038269043
894201.39404296875
893088.71845245361328
891975.54064750671387
890863.12318420410156
889754.82814979553223
888654.71501159667969
887565.81047630310059
886489.17402648925781
885424.21187591552734
884369.73630142211914
883324.71282386779785
882288.40598678588867
881260.06830596923828
880238.64626693725586
879222.78164672851562
878210.99631309509277
877201.96694564819336
876194.77696800231934
875188.89404678344727
874183.67672920227051
873177.89969062805176
872169.78147506713867
871157.378173828125
870138.58120536804199
869110.75464248657227
868070.75357246398926
867015.81922721862793
865944.90503120422363
864859.14777755737305
863760.81399345397949
862651.38856887817383
861530.27560997009277
860394.92121124267578
859242.31937980651855
858070.96193695068359
856882.21376800537109
855680.22954940795898
854470.97304725646973
853261.36869049072266
852059.14345359802246
850872.27804565429688
849707.20813941955566
848566.13897323608398
847445.56217002868652
846337.47235870361328
845232.78623008728027
844124.95389556884766
843011.60890007019043
841893.9532642364502
840775.00783920288086
839658.04776954650879
838545.88374710083008
837440.91276168823242
836345.40646934509277
835261.2381420135498
834189.26719093322754
833129.17821311950684
832080.2451114654541
831042.48565864562988
830017.42669296264648
829007.67804145812988
828015.78335380554199
827043.46537590026855
826091.77738571166992
825161.78798294067383
824254.90463638305664
823372.21711349487305
822513.29727935791016
821675.40754318237305
1554494.5558261871338
1532240.571704864502
1522100.3520393371582
1514126.395658493042
1507624.4886054992676
1502392.0598392486572
1498141.4389781951904
1494664.4087772369385
1491783.368989944458