/*--------------------------------*- C++ -*----------------------------------*\
  =========                 |
  \\      /  F ield         | OpenFOAM: The Open Source CFD Toolbox
   \\    /   O peration     | Website:  https://openfoam.org
    \\  /    A nd           | Version:  12
     \\/     M anipulation  |
\*---------------------------------------------------------------------------*/
FoamFile
{
    format      ascii;
    class       volScalarField;
    location    "0.0115";
    object      rho_0;
}
// * * * * * * * * * * * * * * * * * * * * * * * * * * * * * * * * * * * * * //

dimensions      [1 -3 0 0 0 0 0];

internalField   nonuniform List<scalar> 
75962
(
1.1633585264859518382
1.1623802201543307344
1.1645508187864999083
1.1653436281156803744
1.1669823631474640635
1.1681896583367175069
1.1676978470151888612
1.1673910087427912252
1.1671884764034681226
1.1670280620309931852
1.1668039243532719595
1.1667953688620193997
1.1678348284438446747
1.1691780220074519114
1.1692662391930730426
1.1682169656144840708
1.1673634350935027104
1.1673786939578367772
1.1680572758704010905
1.168991210149289639
1.1698541492888896443
1.1699922749199465066
1.1693172275809893268
1.1686486902604471538
1.1685175621471233232
1.1685123514073718631
1.1682950510056540061
1.1681079203486566254
1.1680410691772329379
1.1679475992649832605
1.1679463998575958517
1.168133003193187136
1.1682195517248485928
1.1679674476834167596
1.1676495650053844155
1.1676212768480864757
1.1678176259553909588
1.1679603790231263272
1.1679568042534056449
1.1678331399494283893
1.1676550309143252093
1.1675681011385909969
1.167654138913495343
1.1678821937817582821
1.1681023974167052959
1.1681705296732374233
1.1679873636757236444
1.1676745165638464652
1.1675352639724423387
1.1677177572776424874
1.1680425525879778448
1.1682479574904038877
1.1682683173940053845
1.1681892553050381434
1.1680986650234135293
1.1680556086258178095
1.1680550375018912135
1.1679729173102915141
1.1677061418533287718
1.1673845943254068658
1.1672754587488245459
1.1675554115466473259
1.1681132355977499326
1.168612708752645446
1.1687917990655807277
1.1686896891592135628
1.1685448469943562344
1.1685509789205288378
1.1686588259786327981
1.1686781196825128948
1.1685094912690967561
1.168269304479235382
1.1681567141981252789
1.1682323418981146457
1.1683294918189868206
1.1681913185954848622
1.1677580121528770007
1.1672073086384184837
1.1668037965748510043
1.1666789210751196126
1.1668089326767410174
1.1671250087285756081
1.1674926195952828323
1.1677453981745367084
1.1677596486554369104
1.1675712549155528031
1.167375869587669035
1.1673337296082482162
1.1674191516397485202
1.1674944815240300144
1.1674969599123872221
1.1674499373386704182
1.1673206268028601951
1.1669889989338289027
1.1664078639263519843
1.1657158849794209132
1.1651647531805240376
1.1649401248813620047
1.1650582844836492313
1.165398476392495164
1.1657938659612177013
1.1661046595347008825
1.1662674552452507726
1.1663015737031079411
1.1662293892026711628
1.1660495634158050127
1.1657282837311324641
1.1653407569376255104
1.1650504217105597249
1.1649964497941980301
1.165156245337346963
1.1653579541045875345
1.1654509451356460659
1.1654119547903090126
1.1653253148605597911
1.1652616380859024403
1.1652179719228885624
1.1651221474954085444
1.1649472586160662946
1.164720871815008385
1.1645023163283794165
1.1643614784122773287
1.1643402247676575278
1.1644105367303507759
1.164480978401356337
1.1644497956955126572
1.1642798893021191198
1.1640346333614131069
1.1638417703238899126
1.1638133105303478665
1.163967349228563597
1.1642037799503008877
1.1643786914980895908
1.1643690285279653107
1.1641491591251136306
1.1638148264961492018
1.1635115097099204551
1.1633482341888965461
1.1633217808752081002
1.1633292525448450938
1.163262197025866751
1.1630925886739214015
1.1628655347179854829
1.1626464812967791662
1.1624680489064371791
1.1623398564157516599
1.1622786239209801362
1.1623173801456809784
1.1624836247352523522
1.1627591322645030036
1.1630599115127413512
1.1633103152438917238
1.1634513624444697832
1.1634823075647913182
1.1634346058055549111
1.1633286527804151955
1.1631827596492638754
1.1630139327783832748
1.1628440476611061616
1.1627059823655412352
1.1626295472085841354
1.1626278305904984567
1.1626717196836524604
1.1627175587786673372
1.1627199266465226835
1.1626595303698277206
1.1625347813436999189
1.1623605815508193384
1.1621610398902337824
1.1619640392511032534
1.1618091646944455064
1.1617399108630579452
1.1617858887398149204
1.1619577376011362979
1.1622287417574805879
1.1625686969713198149
1.1629140306402081517
1.1632056908753711788
1.1633964018056366374
1.1634639860862798777
1.1634121121958596046
1.1632617992122680217
1.1630440408413349473
1.1627948539093804214
1.1625559567974173003
1.1623620484773473649
1.1622327896990980456
1.1621714346022564701
1.1607844198236672018
1.1604882675432135475
1.1602855091922044117
1.1602198977695334925
1.160288455170829236
1.1604374465179085885
1.1605791699968988073
1.1606275591836694439
1.1605420175498233348
1.1603409577553402965
1.1600876561779132068
1.1598653815456156924
1.1597329194926937479
1.1597103123055305662
1.1597850304360364238
1.1599266087763790978
1.1600939097981697312
1.1602480554698906268
1.1603499072070762033
1.1603738015564468711
1.1603071849659500892
1.1601593053335339523
1.1599595112935781049
1.1597484250296838937
1.1595635135414106287
1.1594286956345527528
1.1593526709165589139
1.1593280050437158035
1.1593339216843119299
1.1593377241716060766
1.1592993283018173667
1.1591859682463379055
1.1589849037331769743
1.158715151739492244
1.1584307159576252566
1.1581971394452776902
1.1580750217466511121
1.1580961616783793655
1.1582537446389231661
1.1585057732049586221
1.1587858592573936356
1.159033474461040214
1.1592082543269355277
1.1593048058179284965
1.1593408185024203227
1.159349289604147959
1.1593599567361421165
1.1593845758210084007
1.1594142966342932954
1.1594279576274177934
1.1594006012665323269
1.1593171735803440292
1.1591825375156072919
1.1590200267885915064
1.1588636803413017162
1.158745557384298186
1.1586858463700164812
1.1586844802046392111
1.1587199503355456454
1.1587619128428623405
1.1587863408782459462
1.1587857342467544619
1.1587734834294074471
1.1587773303512118872
1.1588232688817092786
1.1589232747574662596
1.1590674356345838092
1.159229891182714578
1.1593808907343545744
1.1594961452688905545
1.1595663251484988887
1.1595921955536541148
1.1595778946471171356
1.1595250914877541781
1.1594350896442313648
1.1593118122218830646
1.1591651982090547257
1.1590129811014118211
1.1588759116563971396
1.1587698704569640018
1.1587018142763605422
1.1586666098865561203
1.158652732779260397
1.1586462430526780487
1.1586365318361744325
1.1586155821030710289
1.1585818914068377605
1.1585395770254383052
1.1584929728584285602
1.1584452056441982837
1.1584003553984161261
1.1583578645120995443
1.1583165883629984449
1.1582733697791296468
1.1582218636943950596
1.1581557087433187458
1.1580692204181615157
1.1579604482085110728
1.1578353670324903479
1.1577075629904929333
1.1575905603018825651
1.1574941960176854394
1.1574184066042019214
1.1573563937823188041
1.157295880094261209
1.1572295611790457404
1.1571597338620314144
1.1571009691805389519
1.1570762678731485451
1.1571120689145728555
1.1572258955452834339
1.1574197115243620715
1.15768001765961559
1.1579741261106459849
1.1582611321350968492
1.158497146526472843
1.1586408252394593266
1.1586629199885289943
1.1585486481306657147
1.1583034857845020404
1.1579555170622510829
1.1575488946865759576
1.1571353766654637329
1.1567648452595300501
1.1564758230032596842
1.1562891466717339917
1.1562084777013910131
1.1562230487051927685
1.1563147700430498332
1.1564663676105388923
1.1566656223462141728
1.1569058893911183805
1.1571858355534814233
1.157500907235322618
1.1578386767401220858
1.1581768008121338109
1.1584805168034590928
1.1587091538176590433
1.1588299770677232825
1.1588287362018365734
1.1587197405876585865
1.1585421181758872589
1.1583480802625512052
1.1581888207825170589
1.1580972166952989699
1.158083305882259717
1.1581310405116671536
1.1582085860461617255
1.1582796277367042315
1.1583168349161352406
1.158309518263153981
1.1582587002798874209
1.1581744164600704661
1.1580692811646418061
1.1579526050966970629
1.1578265589972460692
1.1576895480464710619
1.1575413313652729297
1.1573857368558542191
1.1572330546604767676
1.1570971723356686667
1.1569902588995255588
1.1569178150943417727
1.1568748621400368748
1.1568490089591236814
1.1568229712448092616
1.156786682998868887
1.1567393155837166763
1.1566925579009246228
1.1566682951708215921
1.1566960947986439923
1.1567981612406947889
1.1569894408801320029
1.1572742154735367048
1.1576460007534685737
1.158090685080601201
1.1585907617155599691
1.1591295148970797158
1.1596930006412149439
1.1602689907871437391
1.1608455290610533162
1.1614111431967621968
1.1619549604198131654
1.1624678069722784723
1.1629447044250753596
1.1633848614884405581
1.1637900835512653419
1.1641631362347417689
1.1645059993989008706
1.1648179118946744293
1.1650946964700736874
1.1653298323242236023
1.1655173328990304782
1.1656546463556076709
1.1657439510154372631
1.1657917767138314957
1.165807271187125238
1.1658002803207354603
1.1657797620208003586
1.1657525567312607695
1.1657234633390713974
1.1656962219868787223
1.1656747365510689018
1.1656636862241351871
1.1656681272074249645
1.1656920166006257134
1.1657365695780390613
1.1657996852076957239
1.1658760625026713953
1.1659582162393427041
1.1660381651915463497
1.1661101951666796861
1.1661732691480448665
1.1662318576373174039
1.1662939169972450504
1.1663670775548649061
1.1664550517194183232
1.166555693848817965
1.1666603144742149212
1.1667545475016207757
1.1668211913205921437
1.1668453196038934827
1.1668194479668168029
1.1667460574738872658
1.166637313327804959
1.1665117346457871683
1.1663896628687868695
1.1662893745556974778
1.1662241537576014672
1.166200600487435679
1.1662181047879494056
1.166270088380069847
1.1663472449546810061
1.1664410039152020016
1.1665453619367642801
1.1666560303771953411
1.1667687286157866211
1.1668782008087614788
1.1669780667589213508
1.1670616363688957051
1.1671230923986768424
1.167158784783640435
1.1671681301187344371
1.1671537801106472987
1.1671213777424416236
1.1670782011380909093
1.1670306622122605944
1.1669822116692327718
1.166932880726049504
1.1668805146929435157
1.1668234596834998751
1.1667626878889025832
1.1667018100253609969
1.1666461571512836137
1.1663272186108746276
1.166296827108093126
1.1665590182700267263
1.167001955085825049
1.1670358211693103723
1.1655734238618364884
1.165137063557848851
1.1659236561814165789
1.1668291326226249982
1.1674976707949413779
1.167769565713486779
1.1679187963999859701
1.1686897188053340102
1.1698132629874642419
1.1699030853956717824
1.1687771254918433161
1.1678627553019387264
1.1679366522282264018
1.1685026677483512092
1.169298884394567084
1.1701685017406040501
1.1703258337728887906
1.1695571119942744787
1.168659343746930368
1.1684498856656617694
1.1685569044820955931
1.1683428855156205994
1.168014008010974436
1.1678197164796064733
1.1677433915528330211
1.1678958024283820905
1.1682977662180895617
1.1685727462127324383
1.1684481212213599921
1.1682075254519104224
1.1681850998473928271
1.1683120794686119304
1.168354620198417182
1.1682724528917185491
1.168038328820463434
1.1676924955342353751
1.1674107884842501726
1.1674015494176623875
1.1677359882852920148
1.1681777956508054839
1.1683750398963672623
1.1682221201606763916
1.1679332153285038043
1.167786187143595944
1.1678589714722620307
1.168010500656713635
1.1680825535726244713
1.1680414998202557353
1.167939251710836901
1.1678697456182411951
1.1678973811472612709
1.1680143504256996767
1.1680338068141824515
1.1678462699479483788
1.1675955472474697228
1.1675342189861677156
1.1677972307898825122
1.1683160127870004796
1.1688296866875704794
1.1690861366765405993
1.1690278807033018804
1.1688655447559137546
1.1688533071499707106
1.1689899971098598463
1.1690615281841967299
1.16891361967744567
1.1686224845217862978
1.1684119423541134974
1.1684072051994784935
1.1684804470338407967
1.1683851362122998907
1.1680302725237960981
1.1675647205491868075
1.1672115500450013226
1.1670885390852847596
1.1671935560843018642
1.1674434668319551012
1.1677073857936552947
1.1678780642752497609
1.167880345902801098
1.1677625185124509422
1.1676623451307330814
1.1676665114111437482
1.1677406143040616193
1.1677988103528800234
1.1678040485225260614
1.1677518615698743165
1.167599763890615483
1.1672610552326103672
1.166712474954151979
1.1660794831327068177
1.1655670641712203572
1.1653466705860249242
1.1654382224087354025
1.1657376445795186726
1.1660617433574855806
1.1662551651791919216
1.1662729888510556808
1.1661862121057990915
1.16607416214857329
1.1659245286335051528
1.1656837624366613859
1.1653498436383915582
1.165073710018084574
1.1650304567799618649
1.1652393692181546303
1.1655462402040379644
1.165755232487798887
1.1657669300525046463
1.1656188886167206942
1.1653922565339189799
1.1651572072794427193
1.1649290595316525998
1.1647329628675486823
1.1645644889231436814
1.1644374980035188116
1.1643687767917461073
1.1643771372102371675
1.1644348377925619609
1.1644493873314116783
1.1643262223903643182
1.1640474535324083494
1.1637087917423076799
1.1634610128702562726
1.1634369701125020224
1.1636473352582603624
1.1639787239862344759
1.1642581756760170819
1.1643376748633853524
1.1641868615128370124
1.1639037847335069742
1.1636326230156366357
1.1634885199739537498
1.1634724536996035038
1.1634784805273015174
1.1633950193447311072
1.1632003293255215315
1.1629602435910626479
1.1627521457793503767
1.1626149788489557046
1.1625471787267582791
1.1625486219228648999
1.1626378385872966348
1.1628218663127505295
1.163069494979681151
1.1633099999434475258
1.1634800842195074377
1.1635552367403037
1.1635504979433937134
1.1634886660864138808
1.1633867333414664724
1.1632555496989271937
1.1631152804051094751
1.1629823480629757348
1.1628626460808224596
1.1627643934184346275
1.1626980619418993967
1.1626638110434122098
1.1626522111294594897
1.1626466924411131831
1.1626300319028102237
1.1625731185030929726
1.1624580812566163157
1.1622826733440607683
1.1620733918508403537
1.1618944719197228377
1.1618141462101345684
1.1618856492774514155
1.1621259584239636009
1.1624887724782302367
1.1628858479525758796
1.1632175202719781115
1.1634162251196034088
1.1634647178697388181
1.1633924790798062521
1.1632501743884371415
1.1630799209782660686
1.1629037811154454563
1.1627328373216565538
1.1625782094968428737
1.162454901075898217
1.1623722651404211348
1.1623227343979787296
1.1622890960193874577
1.1613058190822138638
1.161022715198399391
1.160732355637591029
1.1605007175874351155
1.1603833874167925888
1.1603960971221123355
1.1604986660238385543
1.1606052458723685739
1.1606271724766334952
1.1605158914040145657
1.1602872412748983511
1.160002859659980512
1.1597479215471919733
1.1595909235093069256
1.1595642706018565171
1.15966238489263751
1.1598504045568494014
1.1600758293708222091
1.1602816638932078597
1.160419038471067088
1.1604562986600990282
1.1603876267526187505
1.1602336692148040864
1.1600315292567142667
1.1598220438011630495
1.1596386976761066112
1.1595025567039485281
1.1594225920402438934
1.1593955345168482918
1.1594018634536527035
1.1594081280924692923
1.1593719024297577391
1.159257507994242653
1.1590526052016290048
1.1587804865061828163
1.1584979389191856214
1.1582756037991488451
1.1581722796029250144
1.1582127478373407392
1.15837942727888632
1.1586211534467387718
1.1588749262341675461
1.1590834329518191481
1.1592199734461618998
1.1592879713781985007
1.159315893212628179
1.1593348579863278491
1.1593682491396752887
1.1594190950983045418
1.1594713511764709324
1.1594988833413444329
1.1594767702759607442
1.1593944507615461248
1.1592608303277154302
1.1591058265816098771
1.1589657346261716953
1.1588720384575510458
1.1588408494958670758
1.1588632519920383235
1.1589101577124285569
1.1589470008094593378
1.1589459921569684742
1.1589032407395936097
1.1588370714123970018
1.1587802080673448302
1.1587671577109310839
1.1588188094127138683
1.1589318489423638958
1.1590838824081726166
1.159242640894139198
1.1593793660973186199
1.1594742896447272074
1.1595181520765480698
1.1595113472412488242
1.1594597838682096924
1.1593716352894021249
1.1592579964077571741
1.1591311828047594634
1.1590034992049798035
1.1588853030406902622
1.1587839369857326766
1.1587025293229438194
1.1586426451740996502
1.1586036907427290643
1.1585827622493154454
1.1585751561140924526
1.158572894498473449
1.1585668959955723878
1.1585481795441621156
1.1585128668668727148
1.1584601743446061306
1.1583926120356009548
1.1583161123906731138
1.1582348900899988031
1.1581522097946934657
1.1580672341814661763
1.1579769321261685899
1.1578798803291820985
1.1577755213123199773
1.1576726163012232007
1.1575820579130513543
1.1575143077069611763
1.1574761384555272148
1.1574627960451191466
1.1574598339900392663
1.1574498143911369219
1.1574212572242832398
1.1573732304261872272
1.1573198299298661507
1.1572856608438182313
1.1572953229410318787
1.1573681214729301114
1.1575085089756349532
1.1577038797772722933
1.1579281779318459922
1.1581440641149052251
1.1583167704181200897
1.1584135331225391408
1.1584135669106696565
1.1583090482762083973
1.1581045059123755703
1.1578184793367551908
1.1574826493609822187
1.1571335008371659292
1.1568051269204866482
1.1565277204314627912
1.156322649317733875
1.1562007642426446186
1.156162105643136373
1.1562007531454885356
1.1563107412817339448
1.1564843386278984561
1.1567179626901393785
1.1570061492994956343
1.1573378435054264557
1.1576939164043078545
1.1580436627629806523
1.1583467750654601325
1.1585618025031305667
1.1586598308467614959
1.1586340247644435486
1.1585065173480220135
1.1583216526758102205
1.1581336499333638734
1.1579906173742291475
1.1579204856276714697
1.1579278070156304725
1.1579912268603482772
1.1580768875365416992
1.1581497390502166756
1.1581865431072084771
1.158179164601882416
1.1581289918435380137
1.1580480725985278223
1.1579445323220403097
1.1578233160267978885
1.157684864000733338
1.1575260579543733552
1.1573468129286728079
1.157154612815825212
1.1569647044689990167
1.1567952159208463314
1.1566601431343168649
1.1565644135351365041
1.1565005531370347036
1.1564525630327568972
1.1564032743203667142
1.1563415878911926793
1.1562715009082964457
1.1562132660505204385
1.1561981222461876762
1.1562563533923602144
1.1564132841874057434
1.1566804096812406399
1.1570534856552174841
1.1575155565948871406
1.1580417749875209221
1.1586057936458264983
1.1591859787417286842
1.1597674561678148475
1.1603405877710206706
1.1608985426720541678
1.1614357264709065376
1.1619473612401221008
1.162429258772409213
1.1628787938459679285
1.1632961558981447237
1.1636831548101056466
1.1640413548536301391
1.1643710222884153804
1.1646704122434514694
1.1649362863744161523
1.1651651065871939661
1.1653546937807954809
1.1655058305070979952
1.1656223230418290004
1.1657099138392132964
1.1657742972184723662
1.1658193931334874804
1.1658471411453452671
1.165858043022216517
1.1658524887030914385
1.1658325236187807583
1.1658032711506787216
1.1657735627959258107
1.1657540842779550161
1.1657541626697445203
1.1657787554864780244
1.1658276533410705245
1.1658959884190243095
1.1659756697930423464
1.1660577336722062203
1.1661354780194039815
1.1662070651510505481
1.1662763623189114082
1.1663513487171084382
1.166440285956818812
1.1665474604444840967
1.1666704165836481177
1.1667994779840731301
1.1669188201569831165
1.167009406136632288
1.1670537607877655706
1.1670417443338405583
1.1669739448110520996
1.1668614016716207793
1.1667225115644577205
1.1665785768228960073
1.1664498163529197772
1.166352068248450502
1.166294835856224843
1.166280506528683647
1.16630506266019629
1.1663605812660138294
1.1664384841608257393
1.1665322345023627637
1.166637218116830077
1.1667487510247589455
1.1668607950771892057
1.166965648322122906
1.1670550208538847947
1.1671217271644904745
1.1671610238280465399
1.1671714007464075724
1.1671548171993204601
1.167116789804193866
1.1670650745144581784
1.167006911730789076
1.1669462792437590437
1.1668833440736801066
1.166815789060893005
1.1667411152246884853
1.1666595361384255458
1.1665752214984248525
1.1664954042292559055
1.1674092216040856673
1.1680170523576938191
1.16713917704402248
1.1666497678324567744
1.1662585771027229598
1.1662900458484208865
1.1672071160446486626
1.1673559035861671429
1.1669024526795619412
1.1677778996348984197
1.1689163982386596707
1.1691262539610336457
1.1693052141476942829
1.1698895898856624953
1.1699708637391801336
1.1691743398052185654
1.1686610143770066461
1.1689573514623856632
1.1693447924677873306
1.1696788116074601227
1.1703010102713016227
1.1706958566484260142
1.1700782282722062
1.169097744324849808
1.1687973047443882546
1.1688845911548746415
1.1685815344177727937
1.1680044236845636973
1.167675831817377663
1.1677315041308682364
1.1680916079263883312
1.168628743524988467
1.1690282358873373969
1.169093575574350341
1.1689566342065400573
1.168847094092012151
1.1687835539783930638
1.1687130691103877478
1.1685514246014365725
1.168213762784495513
1.1677102621925687931
1.1672630279098759054
1.1671894265676294733
1.1675919883606087346
1.1681533053166381908
1.1684417674324218961
1.1683572732157625484
1.1681114147416877813
1.1679048972133991846
1.1677678310777492854
1.1676721387179400669
1.1676203143136125728
1.1676200869979342922
1.167655525669946126
1.1677160367468171209
1.1678579403836533146
1.1680565971383061186
1.168191493074833831
1.1681393365190244626
1.1679563267397747861
1.1678626051922726958
1.1680034657147837507
1.1684211600219520655
1.1689287123793197232
1.1692826207727788912
1.1692744779506878405
1.1690691193604969556
1.1689606816336770567
1.1690524667561978944
1.1691735047890849941
1.1691021011981579392
1.1688275434188921675
1.1685509740201702744
1.1684530085783051412
1.1684879139092314571
1.16848758796387453
1.1683346610273086519
1.1680652912474818184
1.1678005597155640682
1.1676411461716875717
1.1676361545342046622
1.1677522841072780491
1.1678999359709332229
1.1680014939244569572
1.1680059548689414317
1.1679356069199915424
1.1678539911471883528
1.1678128523797046689
1.1678221907102774857
1.1678656503726203564
1.1679149941851183492
1.1679119882023407673
1.1677808812102659086
1.1674789376713379241
1.167011776425789904
1.1664816971400846501
1.1660373258933880436
1.1658100003957161395
1.1658445192258193313
1.1660740560680418199
1.166330510793094799
1.1664486056251681667
1.1663810800749760954
1.1662091985002289718
1.1660452776046665857
1.1658876110855398434
1.1656719635739392071
1.1653589079889985491
1.1651005055711174396
1.1650929405436829533
1.1653847109389661174
1.1658157541954110581
1.1661190743197635822
1.1661227085464394015
1.1658442727514308768
1.1654232628180190012
1.165006807024790092
1.1646958009191117345
1.1645142294346890743
1.1644265255259915737
1.1643977986959757054
1.1644043072730976274
1.1644465277709579176
1.1645117750367512954
1.1645193009697887288
1.1643753284435307549
1.1640580932191220143
1.1636710740481137627
1.1633744077479961643
1.1632987739447908648
1.1634634933608294372
1.1637693860662083889
1.1640512880771309856
1.1641733303011778666
1.164095236853290638
1.1638873068612531902
1.1636740650837171795
1.1635648302902561468
1.1635691144611326475
1.1635993070472465671
1.1635494991367894002
1.1634038046646200115
1.1632165790312418707
1.1630560226612860486
1.1629539353339073404
1.1629019484215878943
1.1628978962662905872
1.1629642567902940264
1.1631086095154499205
1.1633054371982201047
1.1634990920303414086
1.163630479387102179
1.1636760269392738554
1.1636355284375974328
1.1635244528554149479
1.1633705562298530811
1.1632148218481312973
1.1631003455423383208
1.163044149350793921
1.1630237388729693926
1.1630002081584196461
1.1629539845789420571
1.1628945986661587408
1.1628384336395776177
1.1627948993122398935
1.1627445862384160336
1.1626485434785385209
1.1624793258453198774
1.1622389260436685188
1.1619789046256427945
1.1617939086183302067
1.1617714398723131275
1.1619661105410243884
1.1623561798028239078
1.162847273720855501
1.1632853273948207118
1.1635477972193601914
1.1635864896933660884
1.1634435686977109281
1.1632082557542136048
1.162976110334710711
1.1628042282416020115
1.1627020351624710592
1.1626506180936559964
1.1626269169437943862
1.1626145682165234252
1.1625995759623770631
1.1625585059769385499
1.1624663869819034101
1.1612767392530101151
1.1610374568758510261
1.1607854262740613382
1.1605692801660931757
1.160438428746588535
1.1604146209511068122
1.1604716185847978593
1.1605387481354061396
1.1605389040646192367
1.1604247160488903035
1.1602045011670114594
1.15993538028363119
1.1596989944714120035
1.1595688945455624452
1.1595849163649820657
1.159743691644821828
1.1599984074052160921
1.1602760038111512575
1.1604970075084137804
1.1606066368148899581
1.1605823093516101085
1.1604403092780624096
1.1602256895613867194
1.1599916575594773072
1.1597810315550469706
1.1596187825634216573
1.1595127462148990816
1.1594609372278823489
1.1594521733247769024
1.1594669135203192756
1.1594733932460907777
1.1594336774380202826
1.1593169717441471622
1.159116779423366328
1.1588622926508631572
1.1586111136782333286
1.1584310765635221774
1.1583707469252841893
1.1584393761137063983
1.1586062673136245937
1.1588152160035432026
1.1590032452310083944
1.1591327152647328269
1.1591958306241361143
1.1592147704496251759
1.1592242377403156883
1.1592544269484021946
1.1593178868890747779
1.1594026223977020873
1.1594804627189227997
1.15952000702254443
1.1595002901482724944
1.1594163136499981981
1.1592848277425815695
1.1591401937581009562
1.159024803006160953
1.1589671842608872954
1.1589777026785066383
1.159035962632883221
1.1591057290481290298
1.1591459192684985258
1.159128978195676396
1.1590513945396314632
1.1589381813486221429
1.1588283964589383146
1.1587618466399847161
1.158765695007357488
1.1588448103335344808
1.1589786141254645457
1.1591351247792567314
1.1592804848632904946
1.1593877985687939258
1.1594441226325178373
1.1594484916999685531
1.1594111139277358813
1.1593449290680615249
1.1592610395354772113
1.159168813502548856
1.1590714255119418663
1.1589689078303055947
1.1588612661408590476
1.1587545903627283206
1.1586588534489097313
1.1585860873143609684
1.1585452678318444164
1.1585361043360402622
1.1585502151773783286
1.1585684915783511784
1.158570113252781475
1.1585418418448694133
1.1584808963063957243
1.158389622120208573
1.158279101945379308
1.1581602671228008461
1.1580432548943504489
1.1579300199026834051
1.1578225513207738295
1.1577178645351366981
1.1576186164279531621
1.1575333191671262068
1.1574697179992921026
1.1574383688892371236
1.1574450612647433356
1.1574866160319567943
1.1575476015927677054
1.1576077289275059634
1.1576477466439747399
1.1576587094506329834
1.1576450274246452565
1.1576234117194235118
1.1576171725981077021
1.1576460295118526922
1.1577229214439475058
1.1578444996093280039
1.1579943363026601322
1.1581449081888282038
1.1582647481028880421
1.1583287350094855217
1.158316809488828758
1.1582215001065956361
1.1580453085160817839
1.1577989775021129137
1.1575050185450301843
1.1571921940158731434
1.1568907696493386794
1.1566303967460027646
1.1564320548312243542
1.1563104183163375183
1.1562705661948089464
1.1563097097358367993
1.1564189799811894765
1.1565914075768830571
1.1568209954491841529
1.1570979332151201113
1.1574088736513283848
1.157730230254106818
1.1580300990303482589
1.1582718035845511739
1.1584246984753909793
1.1584689441103035445
1.1584102850033632937
1.1582744030036642435
1.1581051313650958523
1.157949553200354309
1.1578438638899681834
1.1578061890305979542
1.1578305759291960264
1.1578935378113337507
1.1579645995603264907
1.1580172546230633746
1.1580342810730646086
1.1580138769624894746
1.1579646287785141379
1.1578931476556670876
1.1578054726134425767
1.1576997197701117681
1.1575696079104673686
1.1574095081472433044
1.1572198358464456103
1.1570112337304987449
1.1568028685037639036
1.1566165861642589974
1.1564676650813832115
1.1563594493107980377
1.1562822766945242137
1.1562176356080133832
1.1561474620074243536
1.1560637678434544373
1.1559747000216837876
1.1559054838015843103
1.1558917259096024299
1.1559693506891346448
1.1561639094206497269
1.1564843726037008498
1.1569211643722661087
1.1574508121652540282
1.1580427366689360902
1.1586660429646638004
1.1592951782910885239
1.159913405740268022
1.1605112874829692782
1.1610837296888567582
1.1616273116292621381
1.1621394539079201724
1.162617888690810064
1.1630608239358044553
1.1634678877834585542
1.163839706598568613
1.1641769150287306633
1.164479257061743489
1.1647457505824065915
1.1649751891154835892
1.1651676049465506946
1.1653255955245838127
1.1654546736457362943
1.1655620825556396447
1.1656544225926259717
1.1657357016674581018
1.1658067412669628204
1.1658658071085206132
1.1659101431883005517
1.1659374063117018405
1.1659477354515215275
1.1659447270814291553
1.1659357828579786087
1.1659307171358122002
1.1659388657586755578
1.1659653708503849856
1.1660097880330075881
1.1660673654255448994
1.1661311034606531845
1.1661940708279523449
1.1662520138675438464
1.1663058233152812093
1.1663618083639000211
1.166429685620486767
1.1665183304774062734
1.1666316406854937426
1.1667658288837510216
1.1669094549537626371
1.1670451920341622376
1.1671533266242275495
1.1672157248996841705
1.1672204846358389396
1.1671657490280462621
1.1670603911695445198
1.1669214184682192847
1.1667694546938547351
1.1666248473531579677
1.1665045733781529425
1.1664198646322354591
1.1663755073309987065
1.1663704464388351401
1.1663994702168452022
1.1664555125052826767
1.1665320185842320555
1.1666241101788130674
1.1667270026356499901
1.1668341859310524811
1.1669372298127183019
1.1670267964133904659
1.1670943375515268059
1.167133408410008899
1.1671409539502144437
1.1671180708694295358
1.1670697640858060939
1.1670039333461361686
1.1669291932117804578
1.1668518116787351957
1.1667738747872740124
1.1666936821709539274
1.166608010001376039
1.1665151907095212547
1.1664174489245018318
1.1663209322171002036
1.1662336851268317872
1.1656935859575834336
1.1643626052773670132
1.1663782270781202222
1.1674925254686421283
1.1666692254441555221
1.1663216106478992984
1.1668296209311168621
1.166706459604008872