/*--------------------------------*- C++ -*----------------------------------*\
  =========                 |
  \\      /  F ield         | OpenFOAM: The Open Source CFD Toolbox
   \\    /   O peration     | Website:  https://openfoam.org
    \\  /    A nd           | Version:  12
     \\/     M anipulation  |
\*---------------------------------------------------------------------------*/
FoamFile
{
    format      ascii;
    class       volScalarField;
    location    "0.0115";
    object      T;
}
// * * * * * * * * * * * * * * * * * * * * * * * * * * * * * * * * * * * * * //

dimensions      [0 0 0 1 0 0 0];

internalField   nonuniform List<scalar> 
75962
(
299.81768208819329402
299.75273897912984467
299.95901778883018096
299.77477285270094853
299.67522599810445172
299.73543163108797671
299.74800967741748536
299.75175013904538446
299.69291719868800783
299.61646909414116635
299.55310871402872408
299.51020231256529769
299.56252873515813917
299.66792636001048322
299.69975114548276451
299.65485714354952052
299.61405225651037654
299.59626397063391323
299.5762263258604321
299.55594101152985331
299.55551790258743949
299.53063102064851364
299.45065597648084577
299.36597207825894884
299.31482483784020587
299.26373913000219318
299.19812983925731942
299.16194572095236026
299.17122554500298293
299.20249814184177239
299.25361376201783514
299.32326166113779209
299.37475978780264541
299.37849003004691895
299.35848547017513965
299.34886809076101599
299.34361069607979289
299.32147395107085686
299.28772037404883122
299.26068750762897253
299.25159964353213127
299.26463783416380693
299.28944912084256202
299.30942039362275864
299.31180927562860461
299.29914093769127703
299.28172362354575853
299.28224024522165791
299.32764071805814865
299.41904132347485756
299.52213278935721519
299.59872284290383959
299.63818213765449627
299.65108773330888425
299.65007695369888552
299.64383775647223729
299.63297208038187591
299.60444279356943298
299.5470251917367932
299.4760392554791224
299.42506467536617265
299.42118425558288664
299.46101112424270241
299.51360327614094103
299.5499790072000792
299.56984052750465253
299.59427280982015418
299.64241751538384051
299.7090182362780979
299.7714578340691105
299.81217471020511312
299.83371733187453856
299.84944530352021275
299.86479511838899725
299.86869270255590436
299.84467746515281306
299.79559749656476697
299.7433246714043662
299.71147000373150604
299.70506786652168785
299.71364415424289973
299.72861767346859097
299.74405395382467532
299.7568588131171623
299.76789542619155782
299.78632127154747877
299.8259122552971121
299.88680823328968472
299.94708912057933503
299.97989539064508335
299.98022602144425264
299.96660034103319958
299.95828432605742364
299.95948806413298371
299.96582925227039595
299.97442058770087669
299.98387351753495977
299.98856548252962284
299.97984582392643915
299.95485508453208467
299.9223110950979958
299.89914433416709016
299.90245304546533589
299.94124424440565235
300.00661391196501881
300.07530700343767194
300.11876706631721845
300.12809750269275355
300.11770017314341885
300.1130409055264181
300.13021518268988075
300.16841240331160634
300.2205411663793484
300.28164055211925643
300.34916194595768957
300.41579186857273953
300.46882604631582581
300.49410405932536605
300.48833794352242421
300.45895848554573604
300.41935037105099582
300.38494198927435264
300.3683034899067934
300.37390319604872957
300.39747148505404084
300.42994126397735499
300.46420998111869949
300.4990620213483794
300.53778322822546443
300.58324246484755804
300.63393216504783823
300.68326208941914501
300.72670104217439757
300.76454764881231085
300.80385779066153873
300.85554211232096122
300.92447517295795478
301.00284535151138243
301.06885474147037485
301.09619343824067528
301.07041333944317785
300.99970835106074674
300.91044535416830286
300.83369573886648141
300.79119198762606402
300.79015424689225711
300.82542343791402573
300.88419660370044539
300.95056693164559647
301.00856338749991892
301.04449717117137197
301.05555717482309319
301.04787463046739049
301.03596040960650271
301.03501163913409755
301.05241421814713476
301.08707777467049027
301.13041316122712487
301.16993720735558782
301.19416157789135013
301.19566814480265293
301.17287278874715639
301.12844876082021983
301.07086024072850705
301.0122731577595232
300.96687227114114194
300.9455037414348908
300.95235917493727129
300.98344566290182911
301.02781950248197518
301.07241506637200246
301.10629188761959085
301.12328053593864752
301.1239552852995871
301.11359933327798899
301.10321078132056982
301.10203136385678135
301.11683664050184461
301.14926341061607218
301.19571474231952379
301.24851444442333559
301.29790821416543167
301.33490476044573825
301.35406934728086981
301.35566717111368007
301.34482471683077165
301.32943594653482933
301.31746842109265572
301.70221789129550416
301.76416053100405179
301.80837184099044634
301.83474777090395946
301.84716732526402438
301.85155503840155689
301.85390260388328443
301.85923591151924938
301.87169678112167048
301.89309907072271244
301.92142843739600266
301.95087736055035066
301.97195010858200703
301.97516185592070315
301.95578914676497106
301.91681904431214889
301.86834525711014976
301.82499342444094736
301.80048856332956575
301.80437435922823397
301.83896707018203642
301.89954888327650906
301.97607615361698663
302.05621895970438118
302.12870185585410354
302.18643901177517819
302.22854475112001182
302.25979145202688869
302.28809516681667446
302.32058290635450248
302.36008098894927798
302.40400771069153052
302.44520912053803841
302.47503815610565425
302.48722965239409177
302.47939887317784269
302.45433825294600183
302.41861724069588035
302.38054863295923269
302.34787885033676957
302.32562520391695671
302.31632671076090446
302.31969406723629845
302.33404755563810795
302.35617490771272742
302.38263476708709732
302.41017200917264063
302.43591206974110719
302.45791669841730709
302.47576579495796523
302.49023389236577941
302.50314321579384114
302.51696265851626322
302.53389604370619281
302.55508817743327654
302.57988246248191899
302.60576904451835389
302.6284246271441134
302.64242774409251524
302.64299761788112164
302.62774607401053117
302.59752886910109737
302.55648984613225139
302.51089881067088072
302.46702986262556578
302.42964234819180547
302.40108055307177892
302.38185313054628978
302.37186943206012302
302.37109547232461182
302.38019026335473427
302.39955626310313619
302.42833734406991653
302.46378886006476705
302.50179218456156605
302.53773600494014318
302.56762632431781412
302.58900410955845928
302.60112372720243457
302.60448297505604387
302.60040088140868875
302.59037010169527093
302.57606650756719091
302.55907850930464065
302.54083118191175572
302.52207565605505124
302.50302759874176672
302.48343633822946686
302.46238541002168176
302.43880359664160551
302.41241521455708607
302.38369821591555819
302.35466338416716781
302.32847656996256092
302.3087259045138353
302.29875891900258011
302.30089916593885846
302.31603625283179326
302.34374225586896046
302.38241170787733836
302.42902527206047125
302.47960245973928295
302.52940185561112685
302.57379983543506796
302.60848083538473929
302.63019232136520031
302.63668451546675442
302.62673612683329338
302.59994857828115755
302.55700533981109857
302.4994624915169652
302.43028329710051594
302.35461348956692973
302.27941628805041319
302.21368375997855082
302.1670724661809686
302.1479894578297376
302.16191599847985572
302.20950509030643616
302.28610926428535777
302.38258219741692301
302.48666708183651508
302.58538059874246073
302.66743981604253122
302.72480266598705612
302.75306748290580572
302.75124412382956507
302.72095747117845121
302.66599764833574682
302.59218872636176911
302.5072664547475938
302.42047541972971203
302.3419520539041514
302.28092768401478452
302.2442710708667164
302.23539860642364374
302.25332359965739215
302.29307222965150004
302.34721691038271274
302.40748539096159675
302.46668269243298255
302.51939966518574465
302.56197997383617349
302.59213372413569232
302.60796389924200867
302.60800754305790861
302.59106737216137617
302.55707030226596999
302.50771028141826946
302.44716160281188877
302.38190378473564124
302.31928834453350419
302.26653246806557718
302.22947371567960317
302.21177338434279136
302.21452806774038891
302.23682255505940475
302.2765636782488059
302.33104990902279496
302.39746671046952997
302.47281748585612604
302.55356043099794761
302.63530533050607119
302.71262568372782198
302.77958180242467279
302.83022117798867612
302.86002286862725441
302.86623506111590132
302.84832620678452031
302.80772892096445048
302.74761593937000725
302.67123793903260776
302.58182302283404397
302.4821417825137928
302.37435150053858024
302.26017808841686474
302.1412150534206944
302.01921361416037826
301.89615858326487796
301.77403502652481393
301.65456865596769376
301.5391676096094784
301.42888364199308171
301.32448713635358217
301.22672167946853961
301.13634176079631288
301.05399510680888397
300.98011550960148952
300.91481468821592671
300.85774650614746406
300.80808914723110092
300.76468181051080819
300.72632702334487931
300.69208586929312332
300.66140796089507603
300.63409242298916979
300.61011870760262354
300.58947224146754706
300.57201735388082398
300.5574143215363847
300.54517547159241531
300.53482365438952684
300.52606167406815985
300.51886548708466762
300.51345149935917789
300.51012245503625309
300.50906841098935729
300.51026099842528083
300.51340520784299315
300.51798829599647433
300.52340531641698362
300.52921144451738655
300.53535206992785334
300.54224098380342411
300.55056090914450806
300.56089177109817001
300.5733643761909093
300.58747798779222649
300.60204482445840313
300.61529547751098335
300.62519595421343865
300.62999908644178504
300.62880371512557076
300.6218274292604633
300.61038104055836584
300.59652742668089331
300.5826017324948225
300.57078229294887706
300.56274825951305729
300.55946277190383853
300.56108455244816469
300.56707710338895367
300.57653956353698277
300.58856337041271445
300.60242923154248729
300.61753637836801545
300.63325441595674192
300.6488498064126702
300.66348321733318016
300.67630204707802477
300.68656842682759134
300.69379406335372096
300.69783367988588907
300.69890543840750752
300.6975626345114847
300.69455226214779486
300.69054946405867668
300.6859489534163572
300.68081562152855213
300.67501729144976252
300.66849613110946393
300.66147954511205853
300.65449907572900656
300.64825770954649897
300.07425032964283673
300.20198872842371429
300.16210270598469378
299.95901928666211234
299.71162102405008909
299.46757115448230024
299.45914031273719047
299.58331514571273146
299.65814322622367172
299.67706270656015022
299.65758419651166378
299.62074198912557677
299.63940573431000303
299.71894405730068911
299.75051463144023955
299.70270053094856166
299.66759772673702855
299.6706002360812704
299.645553754535797
299.60130125767051368
299.58346099997362444
299.54649439744054007
299.45697870786807471
299.36029464436671788
299.31497405448106974
299.2839225794944582
299.21937766504538558
299.16370173675653632
299.15323959810365295
299.18030973357201674
299.24309863908769103
299.33365263077581631
299.40677470267627314
299.42815746690649803
299.41991358284207081
299.41115312053841535
299.39426227098448408
299.35367822066490362
299.3040823105158097
299.26172783171898573
299.23713803717885185
299.23719398529834734
299.26257049402846633
299.3050055379206924
299.34013463252625797
299.34646466982997026
299.33147447640521932
299.32760224492233192
299.36064365874864279
299.42669728519916816
299.49838969783741049
299.55172581045633251
299.58211708519280592
299.59715964512173514
299.60807651444912381
299.62085192754619811
299.63223418045902235
299.61977552114097989
299.57107069251588882
299.50487623195476772
299.45676062630536762
299.45223355734265169
299.49297492675214016
299.55447190935632307
299.6061763236420461
299.63437531164441907
299.65469747676866064
299.6922035526792456
299.74884687492522062
299.80321132981350729
299.83530811108158787
299.84489384736980355
299.84726775126824805
299.8527256442879434
299.85324232899250774
299.83405045198952621
299.79656163163474503
299.76117968516302881
299.74703614157471065
299.75516704330686935
299.7733995423172928
299.78822481363721408
299.79228364429275189
299.79005405215048086
299.79086670162314476
299.80885735784335111
299.85384079710610195
299.91758242411106039
299.97445867980144385
300.00059650159170133
299.99334438887638044
299.97029736756883267
299.95286316794425829
299.95140886336838548
299.96495974862926914
299.98787665764683652
300.0110021218428642
300.02422787528365689
300.01764554821824049
299.9904259509086728
299.95112510909740422
299.91678066174887363
299.907363365484116
299.93731783554670756
300.00315212467603487
300.07938447750308342
300.13430364843259213
300.15020064261597099
300.13965788559283965
300.13218346294155481
300.14880824678812132
300.19127874782520848
300.24852184632800345
300.30823978115262207
300.36343817119313826
300.40808944467556785
300.43736692279270528
300.44633288905595236
300.43797684824534144
300.41692395901418422
300.39201941985169242
300.37285671262856113
300.36875908903800791
300.38323176874564524
300.41103938341774438
300.44301247854866688
300.47318589121124432
300.50298718906782369
300.53703015388748554
300.5794364146049702
300.6271298693457652
300.67247923284907074
300.71003867108896657
300.74095746281079755
300.77561163441527015
300.82764127598113646
300.9020031497675518
300.98975879485186624
301.0668175158417057
301.10396537963191577
301.08439163333309807
301.01577471906460914
300.92627259311711896
300.84877408683735212
300.80709237778216902
300.80936924331331284
300.85063077091206196
300.91755344417043716
300.99151789052052663
301.05298928676592141
301.08654476833902436
301.08816695038490252
301.06670853058091097
301.03963155578873057
301.02407178629420059
301.03041793776486656
301.05966896039740277
301.10519781489517754
301.15416460953878186
301.19129619987779733
301.20486823290991651
301.19030147434801847
301.1503015066443254
301.09405139916111693
301.03495885552933942
300.98736162161071661
300.96112754798980404
300.96047267148378523
300.98259753923184689
301.01959960440376562
301.06243105438585417
301.10205386003491412
301.132221262800158
301.15070186647955097
301.15769792384992343
301.15620737969084075
301.15144078627031377
301.15056978607367455
301.16037131901271096
301.18458939371487304
301.22161079313315213
301.26390403640886007
301.30078412223639361
301.32336239623305119
301.32845959962332927
301.31976305089955304
301.30538918777511981
301.29362330923675017
301.29004163661289795
301.61788177428724111
301.69613853486794142
301.76121539762903012
301.80549109599593294
301.82841950267709308
301.835172850055244
301.83359867476610816
301.83120187643834242
301.83425134616692276
301.84721674271645497
301.87223286591961369
301.90691379667265437
301.94480926261024933
301.97593996512216563
301.99017006988475487
301.981377929977441
301.95047814648785334
301.90566973072122892
301.86038657704756361
301.82949793826878704
301.82478368463722518
301.85168181327918546
301.90786552611240268
301.98384553172382994
302.06586433125647773
302.14025919502472561
302.19784393454693827
302.23679500927153185
302.26248718030848295
302.28417370713896162
302.31062565322059754
302.34603754424233557
302.38855389521893358
302.43134782160370833
302.46583839038345332
302.48510731175815636
302.4860491469511885
302.46997043946242911
302.44165479129475216
302.40774045078188692
302.37512381998470801
302.34987550459550221
302.33589943455410776
302.33546624275714976
302.34835074315304837
302.37235451467785197
302.40297161007811155
302.43493123675381185
302.46317909566681692
302.48422523414518537
302.49695305542792312
302.50262381657250899
302.50458436234191595
302.50722737147640373
302.51511511748702787
302.53107839342914076
302.55538547841638319
302.58535167079975281
302.61532404551235231
302.6381265644502605
302.64728924510342267
302.63873581656309852
302.61264557750359927
302.57305272109942962
302.52664987326335222
302.4810030161095824
302.44246349615514191
302.41468249454538864
302.39884488449604305
302.39436952523601576
302.40017723383448356
302.41509184993901727
302.43775850931439209
302.46646912194222523
302.49870217962109109
302.53113795954999432
302.56028591142114692
302.58304812796080796
302.59730700893919675
302.60223004846329786
302.59829877508110485
302.58705993574449167
302.57096038978551178
302.55274114177711908
302.53486583387359588
302.51907244300247157
302.50588762969749723
302.4946872993418765
302.48388006165282604
302.47168375676102414
302.45640488916683353
302.43708173163327046
302.41399971696665716
302.38860400995872624
302.36352832372250532
302.34193294346295033
302.32692609577298981
302.32108725155319462
302.32565878773738177
302.34113866642860557
302.36672030849882731
302.40059723894046328
302.44032200337659333
302.48257029614899238
302.52347239025039016
302.55915901399743007
302.58621183391676368
302.60173051010752943
302.60363170914223474
302.59048316304142645
302.56141624223226927
302.51686180366465351
302.45893761956608614
302.39216776869392334
302.32375106048232283
302.26263091025492713
302.21872679099959669
302.20022295512410437
302.21212924794616583
302.25476474467501475
302.3232791021055732
302.40889810343395538
302.50095830977636524
302.58871042223125869
302.66281569908511528
302.71649735405691217
302.74559377001725125
302.74825518609054598
302.72450765979493781
302.67660157957925549
302.60951230508914023
302.53046202600739889
302.44888843828476865
302.37480519265210432
302.31727250609714019
302.28294279774587494
302.27471109968456631
302.29125361163818297
302.32764638429119941
302.37696027292366807
302.43183920437365941
302.48601415338316656
302.53467911239391697
302.57432142471657244
302.60213776664323859
302.61547821410044889
302.61208307041857779
302.59015380997243483
302.54962025250694069
302.49283600056389787
302.42511634869748605
302.35413281945056951
302.28821139802334983
302.23550816041813505
302.20180564960872971
302.19023211939355633
302.20117888020189412
302.23267799334297479
302.28156548905235468
302.34448235012405348
302.41834808063924811
302.50017998754657356
302.58653826471208959
302.67310276574073669
302.75436250184094433
302.82406457846064995
302.87605296809942956
302.90521043654081268
302.90860335162824413
302.88585105529006114
302.83882617460670872
302.77052273255901582
302.68473021238537513
302.585074824255571
302.4746281396711538
302.35595787290873204
302.23128858581094391
302.10279806941605329
301.97292617249507884
301.8443153354882611
301.7194597005307628
301.60035765522434303
301.48834262867740108
301.38411066172398023
301.28780489510722873
301.19924138130210167
301.11818323196081337
301.0443563770838864
300.97737773639045145
300.91674103857133105
300.86181443034763561
300.81192832253464076
300.76650397442762142
300.72518718032836205
300.68795177167817201
300.65503371198860805
300.62675862836135821
300.60329756604897966
300.58446744991692867
300.56971526010806883
300.55820768927515019
300.5490177350667409
300.5413749754788455
300.53487503494403654
300.529599628495248
300.52596687261814168
300.52442701642252132
300.52516180621535113
300.52799288617666207
300.53240854698617568
300.53767354031299419
300.54303556588337187
300.54801498578325436
300.55264279968974961
300.55751508316484433
300.56360432650535586
300.57185264880757813
300.58273125903832579
300.59595396193878969
300.61042656989235411
300.62436304382441676
300.63560745872837288
300.64215528164743318
300.6427795838885686
300.63740705043909429
300.62710071818054303
300.61375189435892707
300.59962726548712908
300.58694938754558734
300.57752829689064811
300.57252009563990214
300.57231800983913672
300.57660896549327845
300.58462424170141958
300.59547406283508053
300.60842466054651823
300.62289617708057676
300.63827230837438265
300.65378713085482332
300.66850720677234676
300.68144716697531749
300.69174776022663309
300.69881512306272953
300.70240333731948112
300.70264895597517807
300.70008120407618435
300.69549037942448422
300.68964175477020717
300.68300306575065406
300.67568697719610782
300.66758868399182347
300.65861052386367192
300.64894728339714902
300.63922425446179432
300.63036374195326061
300.18780173973505043
300.372398968859045
300.21142630605362456
299.89478476754999292
299.60544408235995206
299.53688859121729138
299.69761360477093604
299.77813106227819162
299.71964507334240579
299.75194395455059748
299.8050526535682252
299.75519300535131606
299.70127704060075757
299.72251142311500871
299.75117644604142697
299.72886200387574718
299.72061284370073508
299.73308778661049701
299.6840648193845027
299.59770114981438383
299.56889982254284632
299.57787809296434034
299.52452911324616025
299.43133197641486731
299.38115504205643447
299.35129901656370066
299.28348361987724502
299.20673653731660124
299.17767509932969006
299.20149941232250512
299.26154033908562724
299.34382619463747233
299.41745207179025101
299.45714713613523372
299.46463345035920156
299.45241139742057612
299.42017045565847866
299.37414165396586441
299.32688881494954103
299.28743161666977812
299.25899477773441504
299.24953868247177979
299.27052336844252522
299.31973516255186496
299.36701311224544497
299.3819775161700818
299.37069183567302844
299.36444089267786239
299.38265715970010206
299.41874356306146865
299.45802013689825571
299.49273372016119765
299.52152081490532964
299.54459861325057091
299.56353448077339863
299.58527766144510451
299.60574066257396453
299.60942032471444918
299.58146583716012401
299.53013335878301859
299.48643596517240439
299.47635980998973082
299.51309306924389375
299.57962438854093534
299.64623405330848982
299.68263653478305741
299.69883758205435242
299.7237263900813673
299.77039286298247589
299.8230168568873637
299.85604649004585553
299.86131606765798097
299.85250176518053422
299.84614131309643881
299.84293807742562876
299.83652402608657894
299.82541901078849378
299.81759278337807473
299.8198461795054186
299.82953169620117251
299.83850127154431675
299.83836539103663199
299.82707108783972672
299.81409104878110838
299.81325718229311406
299.83730847871868264
299.88796110321311517
299.95149532306061246
300.0045970713831025
300.02876658637148921
300.02148079100322775
299.99523055538389826
299.97007994800168262
299.96437589682818725
299.98360595446342813
300.02133808446711782
300.06109641765743845
300.08477577646124246
300.08052207644385589
300.04800006866668127
299.99668743890595124
299.94488031813858697
299.91694061022150208
299.93257435621404738
299.99350239385017858
300.07361669283295669
300.13662749156583232
300.15721948157312227
300.14638608025745725
300.13632044569152413
300.15313725318628713
300.20061188890127823
300.26235080741639649
300.31943885232567482
300.36257854772156861
300.39112160507107774
300.40752801334474498
300.41522796811142371
300.41605522914596804
300.40970853805885099
300.39799565063538012
300.38504116648499576
300.37859386542913853
300.38586050048496645
300.40590852545687994
300.43212278949357597
300.45851512391470806
300.48551065692743123
300.51632650758403997
300.55346293021375459
300.59551156029056074
300.63907208600471677
300.68222370660566867
300.72820048022828132
300.78406856810448744
300.85554463743858378
300.94003113587825737
301.02458977234368831
301.08664798116018346
301.10364165758915078
301.06657996114893194
300.99043495331028453
300.90608392664972826
300.84520933127055287
300.82683031889638414
300.85218920036203372
300.90992088767757195
300.98297064287226021
301.05188427818734453
301.09981660513597035
301.11728876255062914
301.10536341635594226
301.07669267088175502
301.04871297200270419
301.03662769420679979
301.04841087723076498
301.08330239399197126
301.13264082278311662
301.18140191697563068
301.21215537587187328
301.21194418486339828
301.17848463563990435
301.12104780628880007
301.05576900986699229
301.00027508890985928
300.96715904420767629
300.96089642468837155
300.97874575843223965
301.01235509525747602
301.0521631193071812
301.09106664344454884
301.12419109644150694
301.15018807067866646
301.16866385411628926
301.17964057179784731
301.18162711966101597
301.17676516416088361
301.17096934466314906
301.17276780258652025
301.18802114022582828
301.21713364555910175
301.25366870331282598
301.28730550475791006
301.30913810495758298
301.31599414772040291
301.31125269539438705
301.30223755148432474
301.29558778188402357
301.29450881961469122
301.67839940304281754
301.75559732652772027
301.81018037071504523
301.83659887266145461
301.83876162134481547
301.82700591392949718
301.8132151451885079
301.80662113150361847
301.81279386849445245
301.8332152464438991
301.86589431441933584
301.90529525498823205
301.9432130878138878
301.97054307532965822
301.97998919931632145
301.96892421531504169
301.94042948670789883
301.90304425041762215
301.86850065599179516
301.84955447100094261
301.85571495965689337
301.89079797061998534
301.95142103927952348
302.02743547957049941
302.10486326933749979
302.17076638919559173
302.21776595958300504
302.24647429725348502
302.26414464069870291
302.28104469203861981
302.30546805972437596
302.34045187271260602
302.38289852789785073
302.42534821633904585
302.45927370204537965
302.47804859125642452
302.47911830589964666
302.46401166772739089
302.43738324477703827
302.40576381649520954
302.37603435321892675
302.35377723338848455
302.34347586610891767
302.3471947967111646
302.3646647713388802
302.392899124048256
302.42681733130018529
302.46038101882521687
302.48780571827205677
302.50531889762658011
302.51222004617261518
302.5109761806608617
302.50605783203093324
302.50293732427678606
302.50666256201031956
302.52061150011701329
302.54471994567097681
302.57587911145861881
302.60767422846441832
302.63275523801627287
302.6444707452185412
302.63896541518624872
302.61619800735581975
302.58021630563422377
302.53736602438902992
302.49472096407964727
302.45846160757810139
302.43262713531487407
302.41859245458482519
302.41610441166193368
302.42382487904109212
302.43989734325958807
302.46240337837565448
302.48915136903326584
302.51788859051129066
302.54586161589884341
302.57003627079825492
302.58773256225504156
302.59671678153785024
302.59581133739874304
302.58528041232858641
302.5672926821555393
302.54528863969534314
302.52326770919802357
302.50474346875279252
302.4916479212744207
302.48415118113967992
302.48031211574368626
302.47717374528286882
302.47207374717288531
302.46326346189925971
302.44979831922262292
302.43226746594899623
302.41203324280456854
302.39129779521363162
302.37212819266591168
302.35697311980720769
302.3475568516815315
302.34547799151584968
302.35191318668910299
302.36685055592511162
302.38969990104982344
302.41897113418917797
302.45228517787012379
302.48629953516336855
302.51756719356933445
302.5429123836531744
302.5599321497692813
302.56683131364047767
302.56213824284935754
302.5445111045078761
302.51286170932161212
302.46769488269671911
302.41160618090344769
302.35034667988031742
302.29231927354777554
302.2473148421041742
302.2246386217054237
302.23016283838779827
302.26522817965786771
302.326047874197684
302.4044998359318015
302.49047061346539067
302.57346792679265945
302.64409218897401388
302.69522792634012376
302.72201413160456696
302.72244201945619579
302.69705986507386797
302.64894600625007115
302.58344578526742907
302.50829941806210854
302.43277706603089428
302.36620893525002884
302.31689822970326986
302.29028331769194438
302.28810002699395909
302.30816208511078003
302.34530602350292838
302.39234374088482582
302.44245777450134938
302.48969441719361839
302.52998874196902079
302.56059713671362488
302.57938844838537307
302.58465540721442721
302.57463323362344454
302.54816162211733399
302.50557536575774975
302.44940791682171266
302.38442171380415857
302.31766375748992459
302.25724503370787488
302.21025961629379708
302.18229551199590333
302.17610926522303316
302.19174438461413956
302.22715183610745271
302.27911724589790765
302.34425082154541542
302.41940509214225585
302.50156921064512971
302.58723026773782294
302.67195461246626564
302.75030391352123615
302.81621479073731962
302.86392909361245529
302.88902486313116924
302.88914534329114758
302.86427900063955576
302.81628769858377836
302.74809115396743664
302.66275125050390216
302.56295423316112192
302.45080993318663332
302.32818973314954292
302.19713571418282072
302.06015626919838724
301.92033456489804166
301.78124047768602622
301.64641284956076106
301.51881652575536918
301.40048958865304485
301.29251833799253291
301.19513665838428551
301.10794646009861708
301.03023324241098635
300.96113896985303882
300.8997333169210151
300.84504330958566243
300.79615108687249858
300.75227484613168372
300.71291042358598133
300.67792155277857091
300.64750948561248833
300.62201554776709145
300.60161665640077899
300.58609612525162902
300.57478829655116215
300.56667442609153795
300.56059390356705308
300.5554526827509676
300.55049476395385
300.54544941868505248
300.54058633835194314
300.53657679643055189
300.5341856002962686
300.53387112500325884
300.53560579997321156
300.53897956403085345
300.54337788658835962
300.54819296101555892
300.55307295130182865
300.55816776270000901
300.56414298342161828
300.57196065252600192
300.5824405716102774
300.59584852440781333
300.61163122958168969
300.62843373698348159
300.64429363067716849
300.65701900569047211
300.66462342946181252
300.66582286925887502
300.66044165048282366
300.64947944336449837
300.63482989869044104
300.61879994267934535
300.60369299389748221
300.59146747551523049
300.58345703425965212
300.58027004746111288
300.58183997617885552
300.58760350344249446
300.5967511705242714
300.60847949690082714
300.62212247202870685
300.63700748820991748
300.65229139272366865
300.66695615391085994
300.67991055397487798
300.6901591432823011
300.69694169942613371
300.69986982537858466
300.69901065815145103
300.69486934287357371
300.68828950377599085
300.68022277691540012
300.67141604776634267
300.6622136091707489
300.6526062923386462
300.64245187254891789
300.63176701121295764
300.62097654929289092
300.61086972499037984
300.60245050983763804
300.13517196088332639
299.99438586269764073
300.11456179176360592
300.00099223789283087
299.67659118369874705
299.54456852753799012
299.64949168047610328