/*--------------------------------*- C++ -*----------------------------------*\
  =========                 |
  \\      /  F ield         | OpenFOAM: The Open Source CFD Toolbox
   \\    /   O peration     | Website:  https://openfoam.org
    \\  /    A nd           | Version:  12
     \\/     M anipulation  |
\*---------------------------------------------------------------------------*/
FoamFile
{
    format      ascii;
    class       volScalarField;
    location    "0.0089";
    object      alphat;
}
// * * * * * * * * * * * * * * * * * * * * * * * * * * * * * * * * * * * * * //

dimensions      [1 -1 -1 0 0 0 0];

internalField   nonuniform List<scalar> 
106891
(
1.0085304583361786435e-05
1.0076089460124720796e-05
1.0064353586678291834e-05
1.005568592065948025e-05
1.0044277534160243965e-05
1.003559588663630026e-05
1.0023804130775078357e-05
1.0014485505998608477e-05
1.0001728298342313378e-05
9.991566359538353622e-06
9.9760504982491325909e-06
1.2253353872624682383e-05
1.2340744586252438706e-05
1.2378184585942406115e-05
1.2386746638678326337e-05
1.2384519608518433872e-05
1.2383477280574909911e-05
1.2392412749863556559e-05
1.2411169641535540131e-05
1.2425514197516817597e-05
1.2430973181222556304e-05
1.2426888653141479705e-05
1.2417529343481738493e-05
1.2400853585164437696e-05
1.2353907352160374664e-05
1.2224929888505430112e-05
1.2088777974931768562e-05
1.1999707345128233515e-05
1.1955955535036017244e-05
1.1942257004321104563e-05
1.1946572438802074417e-05
1.2013527933953291373e-05
1.2237852255599698787e-05
1.2480985514110445672e-05
1.2672189877167831958e-05
1.283055880244022915e-05
1.2978343266994815566e-05
1.312909003450597456e-05
1.3282036566215610471e-05
1.3420983207290230422e-05
1.3523515397472083693e-05
1.3576129657106398169e-05
1.3584318310140739856e-05
1.3568782831521710973e-05
1.3501951278401038908e-05
1.3305555562187221049e-05
1.3137629926802790444e-05
1.3062458407953975387e-05
1.3044081171033862433e-05
1.0728058914564829175e-05
1.0714486782469447032e-05
1.0703437839057470786e-05
1.068949313452732351e-05
1.0678323540657017361e-05
1.0664183181166214312e-05
1.0653092134926549187e-05
1.0639301373134675422e-05
1.0628703397693957917e-05
1.0615589201960737544e-05
1.060580323357928534e-05
1.0593256700594823723e-05
1.0583914069954557539e-05
1.0571646859524827939e-05
1.0562279160564695132e-05
1.0549616821127473059e-05
1.0539674409386833056e-05
1.0526133908111267597e-05
1.0515461140284632308e-05
1.0499188923459923584e-05
1.278724897927405841e-05
1.2825277915399596563e-05
1.285306052640338502e-05
1.2883386905534598499e-05
1.2919588734677951556e-05
1.2959617213458625196e-05
1.2998598992762005336e-05
1.3029904943906273797e-05
1.3049364213335019785e-05
1.3055220413012322845e-05
1.3048985125878310548e-05
1.3036687711879349844e-05
1.3008898895147542118e-05
1.2924114334541558316e-05
1.277484409786623629e-05
1.2666343885144468266e-05
1.2607915963059296131e-05
1.2587741702852754298e-05
1.2584869819760929812e-05
1.262455346161781552e-05
1.2801473732447409752e-05
1.3065812676015781221e-05
1.3272795988588945032e-05
1.3437810416713067059e-05
1.3590170894459123626e-05
1.3753420943699024693e-05
1.3932053876600071978e-05
1.4107530895577391844e-05
1.4249896549317230579e-05
1.4334030756682074629e-05
1.4358300161935358448e-05
1.4347906176081175241e-05
1.4296464391811800973e-05
1.4109704695985152227e-05
1.3892602693223346608e-05
1.3780295615251277288e-05
1.1292487147316465008e-05
1.1278186681529732858e-05
1.1266614642699553724e-05
1.1251975159428526043e-05
1.1240313389758717854e-05
1.1225497178948142489e-05
1.1213919101570968021e-05
1.1199424887211752354e-05
1.118826047426498544e-05
1.1174304832925542369e-05
1.1163822120549544322e-05
1.115033133392912298e-05
1.1140221056815667971e-05
1.1126919855410637188e-05
1.1116751967867520931e-05
1.1103097549878677196e-05
1.1092469997692484587e-05
1.1078082177089709163e-05
1.1066885753401228671e-05
1.1049946117768689357e-05
1.3250837474889678969e-05
1.3328852078112535525e-05
1.3397742061707040072e-05
1.3463325018773882581e-05
1.3526770024636028067e-05
1.3584847995752059033e-05
1.3633184773482812915e-05
1.3667794925902041747e-05
1.368601248343061248e-05
1.3688212196209302118e-05
1.3679240532526604093e-05
1.3662696361394299237e-05
1.3619768609680412647e-05
1.3502506760795384119e-05
1.3377031573676113627e-05
1.3301050556521443023e-05
1.3269947475469576588e-05
1.3261727407801028483e-05
1.3288028015514237261e-05
1.3440243832336617089e-05
1.3774015971273873051e-05
1.403242498595160086e-05
1.4199340119774452488e-05
1.4301139654553227101e-05
1.4382722838298906494e-05
1.4484850451077935449e-05
1.4624160189549988655e-05
1.4784796065039147224e-05
1.4930071635558920745e-05
1.5024133276758946471e-05
1.5056314079932896772e-05
1.5048419026056807088e-05
1.5001027693803158767e-05
1.4816339818481822138e-05
1.458882424262879537e-05
1.4473523359548326068e-05
1.1871955906421570771e-05
1.1859898952646360842e-05
1.18446094303738081e-05
1.1832515211309577006e-05
1.1817026132749769882e-05
1.1804923935099420859e-05
1.1789615050581105175e-05
1.1777715549601495339e-05
1.1762716055707964912e-05
1.1751346058217053504e-05
1.1736728526288516507e-05
1.1725702223384925165e-05
1.1711217498907815549e-05
1.170017409861669766e-05
1.168543368736070631e-05
1.1674077216235901325e-05
1.1658809459432475312e-05
1.1647095468330456266e-05
1.1629556785675929589e-05
1.4072865892909359239e-05
1.4130277973193823671e-05
1.4180594755175676271e-05
1.4230713726125458283e-05
1.4282385158860410552e-05
1.4332140985055924804e-05
1.4372928327383737278e-05
1.4398974589768926931e-05
1.4407495081491003785e-05
1.4400308273693306473e-05
1.438512620544079066e-05
1.4349494851161950646e-05
1.4248647233593322826e-05
1.4128804746983221659e-05
1.4059134188578223363e-05
1.4033026876646085204e-05
1.4029066884419503876e-05
1.4079123833577003892e-05
1.4318530405059968526e-05
1.4702598340118759916e-05
1.4962511609175017729e-05
1.5099507013852792714e-05
1.514915016766714847e-05
1.515944200446335961e-05
1.5175162976429662062e-05
1.5234018207560815264e-05
1.5410079759894848816e-05
1.5607281297215557046e-05
1.5741023540457069977e-05
1.5797772707629670699e-05
1.5798203582079437576e-05
1.576467853679052662e-05
1.5621768446960867583e-05
1.5424744544369181539e-05
1.2512603129383827983e-05
1.2496850268694003063e-05
1.2484303939387600632e-05
1.2468393551867072824e-05
1.2455903597163601725e-05
1.2439682884169564822e-05
1.2426917150985485709e-05
1.2410594761613153781e-05
1.2397757632325176539e-05
1.2381522128861507649e-05
1.2369033683726817765e-05
1.2353041652882550773e-05
1.2340941170647388899e-05
1.2325186365937601678e-05
1.2313216127726642316e-05
1.2297396815824640972e-05
1.2285323261797663976e-05
1.2269233131364040571e-05
1.2257039503539028435e-05
1.2238919883047957374e-05
1.5027828477103269617e-05
1.5055250539293811934e-05
1.5057501879649797913e-05
1.5050603830017499776e-05
1.504281827699348072e-05
1.50370051231460516e-05
1.5039909979344902159e-05
1.5057883494644488647e-05
1.5064890529564247838e-05
1.5057075094747611482e-05
1.5042055789902572025e-05
1.5012555828631306696e-05
1.4934554924282655408e-05
1.4833671751866282275e-05
1.4773914694864526145e-05
1.4750647117403912307e-05
1.4747656982162419704e-05
1.4802392194487618438e-05
1.5048935822124372979e-05
1.5380470300080626317e-05
1.5583850760895139433e-05
1.5675577604613757498e-05
1.571512811677568358e-05
1.5772646502088087932e-05
1.5887852646560993652e-05
1.6061430735700062009e-05
1.6264869551623307927e-05
1.645541724992686096e-05
1.6589175255341373808e-05
1.6648412828419815866e-05
1.6650427030601822704e-05
1.6620372080953931557e-05
1.6492960990711503914e-05
1.3154340759777230377e-05
1.3141353121127075871e-05
1.3124780950423125815e-05
1.3111762827382932923e-05
1.3094678629719370307e-05
1.3081126198018361509e-05
1.3063580656361644828e-05
1.3049519990450827403e-05
1.3031750478973239623e-05
1.3017908669706458846e-05
1.3000355258511709738e-05
1.2986989826596362509e-05
1.2969867339528353222e-05
1.2956968477912931786e-05
1.2940172164170782629e-05
1.292754431417885516e-05
1.2910759301516035953e-05
1.2898176697464535826e-05
1.2879479786943078267e-05
1.5735604697684019918e-05
1.5773197665189229197e-05
1.581255373624759357e-05
1.5850475430421857273e-05
1.5882863699692544024e-05
1.590565271605802602e-05
1.5915946335581653709e-05
1.5911593193644894064e-05
1.5898108517957761928e-05
1.5876333651175229231e-05
1.5826879327368654262e-05
1.5705101250038883761e-05
1.558168860902229381e-05
1.5505203365581968e-05
1.5471311182019867699e-05
1.5461238312320340602e-05
1.5482205745616004454e-05
1.5614814600366344719e-05
1.5890820302979614487e-05
1.6109141535439338265e-05
1.6270267630570345817e-05
1.6400123660505635224e-05
1.6530688651812809842e-05
1.6690385838458945305e-05
1.6887742035155420614e-05
1.7104732981835476028e-05
1.7306804761664256636e-05
1.7451916928382996255e-05
1.751960054924453939e-05
1.7524654409366235242e-05
1.7496458163222187825e-05
1.7373740363745043591e-05
1.3846194283759300029e-05
1.3832667879042974832e-05
1.3815347174061497893e-05
1.3801732379295405455e-05
1.3783721332511779571e-05
1.3769259760459446094e-05
1.3750359418060874197e-05
1.373500615951569208e-05
1.3715529206835030995e-05
1.3700137118822555061e-05
1.3680834459823422021e-05
1.366610648037952424e-05
1.3647569955519732598e-05
1.3633751479616709951e-05
1.3616048987497656936e-05
1.3602969956280160275e-05
1.3585678106512562711e-05
1.3572842727121731736e-05
1.3553673855864068536e-05
1.6510534725724683496e-05
1.660176747154229365e-05
1.6696034243797166976e-05
1.6780747096527277022e-05
1.6841922600222033047e-05
1.6874540231513273064e-05
1.6880692816724940131e-05
1.6868295625881096842e-05
1.6847110395378239744e-05
1.6800058156203975411e-05
1.6666658124701619575e-05
1.64901878725023178e-05
1.6371791141939872466e-05
1.6312454986157252587e-05
1.6292999331486762639e-05
1.6294238216390454578e-05
1.6357150608613856891e-05
1.6577600266434703463e-05
1.6807394317315558563e-05
1.6972477863878027978e-05
1.7104778721515657042e-05
1.7244212595456168802e-05
1.7423609472807988945e-05
1.7652531411716822479e-05
1.7903869042234043618e-05
1.8130235549349415239e-05
1.8286277712037622012e-05
1.8354751302396273103e-05
1.8357788530303759909e-05
1.8326996936095458005e-05
1.4562130021137694778e-05
1.4543979105807768645e-05
1.452976023336000282e-05
1.4510873919459356342e-05
1.4495646550751142308e-05
1.4475532615099176529e-05
1.4459055199597114168e-05
1.4437933272548354589e-05
1.4421046864280544336e-05
1.439994918102962961e-05
1.4383796017090163787e-05
1.4363769018832864277e-05
1.4348996596026612191e-05
1.4330394023799695736e-05
1.431690545810632655e-05
1.4299216610604002401e-05
1.4286231925212870589e-05
1.4266822773668850943e-05
1.7250336851719609322e-05
1.733896489822750952e-05
1.7447491601337631305e-05
1.7560674181550309366e-05
1.7653542333427754793e-05
1.7707696977381711409e-05
1.7720267807295453762e-05
1.7706628713178950411e-05
1.7680849666563916992e-05
1.7610098875823306295e-05
1.7438527350612008718e-05
1.7295835442747371145e-05
1.7220121478707421458e-05
1.7193023721791423898e-05
1.7188940908164280802e-05
1.7237500117603066311e-05
1.7438643981489443141e-05
1.7659499729360324683e-05
1.7792903244168443354e-05
1.7869204907257073717e-05
1.7935117046880485483e-05
1.8047098102717869391e-05
1.8243029755672912742e-05
1.8518825254493984496e-05
1.8820717526666157861e-05
1.9071426253856414154e-05
1.921773429709967295e-05
1.9256707708093438969e-05
1.5352016346457747974e-05
1.5333224233455239685e-05
1.5318582246171179789e-05
1.5299226269035995818e-05
1.5283635498418956367e-05
1.5262869475638741969e-05
1.5245754455519223001e-05
1.5223577424271577904e-05
1.5205604286516771658e-05
1.5183119590178858279e-05
1.5165711914808144113e-05
1.514445602246176376e-05
1.5128784601245677925e-05
1.5109467493906434158e-05
1.5095582282968019575e-05
1.5077730915965823483e-05
1.5064670031609876612e-05
1.5046044632743276213e-05
1.7935869531083410927e-05
1.793830134272504141e-05
1.7993460211598236024e-05
1.81698426398550055e-05
1.8328379539812370805e-05
1.8418288147344027305e-05
1.8446986375262002504e-05
1.8438792284930392775e-05
1.8414564132406892354e-05
1.8337592377096652567e-05
1.8226391300803521594e-05
1.8168028999116533315e-05
1.8147644499521779348e-05
1.8151071015095987624e-05
1.8241124996165941565e-05
1.8532837469107741858e-05
1.8785170706334630936e-05
1.8916920769758880055e-05
1.8955638617180486672e-05
1.8948041476913252075e-05
1.8927895106279411081e-05
1.8911601176154544914e-05
1.8918211718739783256e-05
1.9034759672984526396e-05
1.9429154022666314782e-05
1.9773073517832384373e-05
1.9930343862760975749e-05
1.6075907432965497667e-05
1.6056031137731590686e-05
1.6037885996269910253e-05
1.6017144567398324781e-05
1.5997428576492192883e-05
1.5975040664357506836e-05
1.5953517718093569104e-05
1.5929747308198521027e-05
1.590776400949230716e-05
1.5884060974640547688e-05
1.5863153595549582423e-05
1.5841280424219716521e-05
1.5822303973166541944e-05
1.5802494182741951066e-05
1.5785133403541555606e-05
1.5766390929761152237e-05
1.5749325329102989896e-05
1.8161128925530090435e-05
1.8076290326135214306e-05
1.8042742941836585515e-05
1.8031927153576261737e-05
1.8069050465610063329e-05
1.8286563390611585675e-05
1.8656263980087222151e-05
1.8906823446876435687e-05
1.9038738636724802179e-05
1.9086278996041079563e-05
1.9089220753004529422e-05
1.9079224791056013488e-05
1.9069740679358154756e-05
1.9079589533886776872e-05
1.9176617859318494558e-05
1.9393291942070021766e-05
1.9537313831466632144e-05
1.9592799455695723306e-05
1.9588658233880846252e-05
1.9542950549468208468e-05
1.9359941359453972098e-05
1.913331958297762969e-05
1.9027666467336077651e-05
1.9003164473762040599e-05
1.903698241998157638e-05
1.9302244382355408976e-05
1.993620876274087943e-05
1.6499995768749106087e-05
1.6481692183169133225e-05
1.6455159066406951869e-05
1.6435418798373629636e-05
1.6407095579959705435e-05
1.6385627453089017904e-05
1.6355767438917599265e-05
1.6333684326045304504e-05
1.6303785846905848565e-05
1.6282591107029457901e-05
1.625425374950541715e-05
1.623499105935617424e-05
1.6208429645167555367e-05
1.619082369453451827e-05
1.6160784270800924957e-05
1.6154728907594789533e-05
1.4473485699106324132e-05
1.4412192488386356835e-05
1.4379199087366706906e-05
1.4360995677827489045e-05
1.4351345470583344086e-05
1.4371557020250803191e-05
1.4490466110073161303e-05
1.4826256579421185407e-05
1.5175761894561754452e-05
1.5460502918615682237e-05
1.5679860068550579031e-05
1.5841385413271372401e-05
1.5957021326962748161e-05
1.6036489454584264454e-05
1.6080715167940918614e-05
1.6091452630649201113e-05
1.608214666633933434e-05
1.6049724176139439698e-05
1.5926182437196229378e-05
1.5625282649731433472e-05
1.5359553405947362875e-05
1.5182286518250570032e-05
1.5092454142460144518e-05
1.5063579808257324049e-05
1.5064906263534188021e-05
1.5155724056984233252e-05
1.5549012201605790569e-05
1.6195385621089371524e-05
1.2911190922812833189e-05
1.2888512123393047393e-05
1.2872045289113681166e-05
1.2848091159104615849e-05
1.2830517477193403874e-05
1.2805749030854368504e-05
1.2787941840285073323e-05
1.2763245724995399551e-05
1.274612522282019221e-05
1.2722538381119687396e-05
1.2706714646588234535e-05
1.2684296350906529746e-05
1.2669612951938636036e-05
1.2644113945342742424e-05
1.2642183568102142389e-05
1.3960020299354655458e-05
1.393348079225526214e-05
1.3916624493513604885e-05
1.3908101923679379048e-05
1.3929530513557065023e-05
1.4034762659514302352e-05
1.4201164925414857477e-05
1.4364103180682261674e-05
1.4518402003715396773e-05
1.465759697938321826e-05
1.4777209587677299292e-05
1.487298004323849258e-05
1.4941864251867084819e-05
1.4983282424670979645e-05
1.4998751012441281335e-05
1.4996014989879764977e-05
1.4984829201321398632e-05
1.4953307274865281813e-05
1.4851080617290060806e-05
1.4694570959972228749e-05
1.4583740118309044065e-05
1.4524609002719969606e-05
1.450314243319819404e-05
1.450449889551290271e-05
1.4586479031523678836e-05
1.4904067139520060093e-05
1.5301925388688821764e-05
1.2213630958053531749e-05
1.219876639041003112e-05
1.2178113769378323664e-05
1.2162539072476766345e-05
1.2141442564286720809e-05
1.2125918644611398224e-05
1.2105110122200931063e-05
1.2090318961862978931e-05
1.2070353229119829054e-05
1.2056532504864463887e-05
1.2037446784086661239e-05
1.2024473072088251059e-05
1.2003404114354806456e-05
1.1995719485218689972e-05
1.3382943870365163861e-05
1.338422933642208352e-05
1.3450799479840587394e-05
1.3605893954104485245e-05
1.3721482537085914034e-05
1.3796738643262858114e-05
1.3845741528054329679e-05
1.3884918550758153344e-05
1.3927210701572329996e-05
1.3978192556620270317e-05
1.403650383855861986e-05
1.4094924966712434828e-05
1.4144333925019285638e-05
1.4177436326073729819e-05
1.4190032637275846656e-05
1.4186431265201572289e-05
1.4173952082841293217e-05
1.4137278416640372786e-05
1.4049529591088875138e-05
1.398082267891335683e-05
1.3947156682116335999e-05
1.3934734540929672133e-05
1.396050499906180421e-05
1.4127346993603020475e-05
1.4443673993234614874e-05
1.4679741185065280865e-05
1.1745268321727551941e-05
1.1725620374072646225e-05
1.1710835189252963241e-05
1.1691093848566520507e-05
1.1676590717881641269e-05
1.1657258152218553978e-05
1.1643471940530981932e-05
1.1624722414403138607e-05
1.1611614384222866659e-05
1.1593467637730431519e-05
1.1580914235719590508e-05
1.1561386448764060072e-05
1.1552514095279952779e-05
1.2884749171096456964e-05
1.3006651942248086495e-05
1.3163387800711757382e-05
1.3281717634439527565e-05
1.3360346146922988202e-05
1.3402557476829203456e-05
1.3418461833561059671e-05
1.3421784630093350988e-05
1.3425146717171656694e-05
1.3437439449979135926e-05
1.3479842590693517338e-05
1.3551113348168600511e-05
1.3603631403351766179e-05
1.362753849588621834e-05
1.3628181228592092447e-05
1.3616854882402923028e-05
1.358056829733412202e-05
1.3485264447123330298e-05
1.3407877932717879885e-05
1.3371978921890568029e-05
1.3360050622837736786e-05
1.339063705966276604e-05
1.3582112509136193057e-05
1.3954639943709556035e-05
1.4215964439063265943e-05
1.1277142410529487381e-05
1.1262861735939302772e-05
1.1243933369384454131e-05
1.1230091114398274059e-05
1.1211637017274834522e-05
1.1198462801328761088e-05
1.1180394622093436951e-05
1.1167685775814498828e-05
1.1149918470555613851e-05
1.1137517326662765214e-05
1.1118283545841156919e-05
1.110947024573340989e-05
1.2502479735193298862e-05
1.2674789814201678408e-05
1.2805935398738314942e-05
1.2893900289158525611e-05
1.2942789696629995031e-05
1.2962461109435165972e-05
1.2965660087628322228e-05
1.2963965455397246209e-05
1.2963172532863463402e-05
1.29669576606602239e-05
1.2983992941499293973e-05
1.2995227333229399867e-05
1.2993992634480635063e-05
1.2985750232667309632e-05
1.2963238996617893844e-05
1.2890698997733360864e-05
1.2791827427136013732e-05
1.2729679205363604266e-05
1.2701056332094231384e-05
1.2690675769889022044e-05
1.2719462595460985705e-05
1.2895043611898591957e-05
1.3260535531506130732e-05
1.353260607898730082e-05
1.2187234611611547888e-05
1.2324312382683913164e-05
1.2416294015684951522e-05
1.2466964142744195495e-05
1.2486625109335209414e-05
1.248845997725679575e-05
1.2484566311680837621e-05
1.247632671712410104e-05
1.2463907718707339052e-05
1.2455444037534370825e-05
1.2446156357789451991e-05
1.2430829465385921027e-05
1.2398603028138812336e-05
1.2344800183195122806e-05
1.2289014248648038235e-05
1.2240901042673033058e-05
1.2207227068321636332e-05
1.2188802117043683222e-05
1.217972043766598215e-05
1.2203531618854940267e-05
1.2346075980918644449e-05
1.2612545725374255267e-05
1.2817753846018455142e-05
1.18970467263634924e-05
1.1959637177192080276e-05
1.198964276201496226e-05
1.1997319702992504075e-05
1.1995039061299902664e-05
1.19900068621899989e-05
1.1981268839859192212e-05
1.1976528173187174844e-05
1.1974182604786302015e-05
1.1974076293821469204e-05
1.1971546213787754505e-05
1.1964995703393948228e-05
1.1949322191625189743e-05
1.190606944305228018e-05
1.1856748521871492353e-05
1.1827424757508841024e-05
1.181291239400031581e-05
1.1814530135707782286e-05
1.1885783564682944743e-05
1.2116387797750651862e-05
1.2325680836124431618e-05
1.1493924607586630647e-05
1.1518384663435663422e-05
1.1542695456710939391e-05
1.1563551826178748594e-05
1.1575942039152624456e-05
1.1579125072841740812e-05
1.1575457651144533652e-05
1.1563530203455690059e-05
1.1520904975490720953e-05
1.1430442537964407472e-05
1.1362680571314072618e-05
1.1325504265049974879e-05
1.1309465776615090167e-05
1.1309063600219323886e-05
1.1374797939611200513e-05
1.1622169876856694917e-05
1.1886347471453564923e-05
1.107319941297108612e-05
1.107020403972115988e-05
1.106086322036172991e-05
1.1030527652404777174e-05
1.0970042094238197119e-05
1.0916996209009906e-05
1.087758629507334182e-05
1.0852505168471544904e-05
1.0837980427019035029e-05
1.0832009775271304864e-05
1.0865298709965288328e-05
1.1027289346724712459e-05
1.1266228234351057411e-05
1.0652835438127917123e-05
1.0649352132599310171e-05
1.0643543342816224375e-05
1.0632827877322494542e-05
1.0608528364632123883e-05
1.0567411869504041776e-05
1.0533617793127296236e-05
1.0511421300464373569e-05
1.0497880346310586194e-05
1.0496617278679592963e-05
1.0544290747907990937e-05
1.0700215759547454915e-05
5.5389310163696785176e-06
5.5510910428098748825e-06
5.5861816485146914243e-06
5.6942106442341382363e-06
5.9918115853807099195e-06
6.3172725767332968589e-06
6.5503900283143532324e-06
6.6832114996413836369e-06
6.7329069442819181228e-06
6.734336070994166621e-06
6.7178652012766316008e-06
6.6604139138045607784e-06
6.4759660021583244759e-06
6.2478429786078989999e-06
6.0838059194570294049e-06
5.9818301039793417035e-06
5.9275326694383516474e-06
5.9011860053456863061e-06
5.8850737653410851411e-06
5.8691440524857543164e-06
8.3292536034287430533e-06
8.3337537935954931041e-06
8.3577843097414371488e-06
8.4346393535959050662e-06
8.6716260570575907083e-06
9.0365250673258486902e-06
9.3318450984074280017e-06
9.5285665414262000756e-06
9.6234899587818821933e-06
9.6452602352478304757e-06
9.6328639749870446311e-06
9.5979002668723786633e-06
9.4839897523221912672e-06
9.1950759367451605214e-06
8.9195702368841661695e-06
8.72569883891884564e-06
8.6086675249052831751e-06
8.5484421880847375044e-06
8.5212549784062412362e-06
8.5079154560230872071e-06
8.4971095219401367448e-06
8.4869606705483886826e-06
1.5333476504997315358e-05
1.5356353454886974763e-05
1.538458896082838025e-05
1.5455912615558014536e-05
1.5647231997241490582e-05
1.5934649300705971872e-05
1.6201932315864216129e-05
1.6401979685767668226e-05
1.650527733024030399e-05
1.6532710754503832941e-05
1.651995984005709788e-05
1.6489306960413272119e-05
1.6412266450284285885e-05
1.620116369077826424e-05
1.59275456535992003e-05
1.5727348726648527499e-05
1.5613705728833849441e-05
1.5563875697350434903e-05
1.5553778915170110385e-05
1.55535654897312589e-05
1.5576448427718248441e-05
1.5611091245411298686e-05
1.5631846031960349645e-05
1.565798398409562936e-05
1.5721033043059835706e-05
1.587609612894955936e-05
3.508051170972293736e-05
3.5248952556409698217e-05
3.5459316258607695102e-05
3.5752817669723148191e-05
3.6127630591995899012e-05
3.652182593445398609e-05
3.6874321003750605401e-05
3.7103345239102741328e-05
3.7193323459359165482e-05
3.7188645834188852805e-05
3.7144580290848158179e-05
3.7032485124301529921e-05
3.6755199994662272856e-05
3.6480728452269868772e-05
3.629729251201332436e-05
3.6211034876955913232e-05
3.617746805384025637e-05
3.6186607218182997902e-05
3.6311544330386901825e-05
3.6523160354306475532e-05
3.6687437697517745808e-05
3.6808962556527448666e-05
3.6926763105691557212e-05
3.7080398563294276928e-05
3.7301482434841770998e-05
3.7580480340817369698e-05
3.7883229847433766045e-05
3.816194653129593127e-05
7.3071641714168652387e-05
7.3198310811150877416e-05
7.3322952904461067398e-05
7.3455301921625037543e-05
7.3584425197495680689e-05
7.3692961680934564238e-05
7.3742517063300432978e-05
7.3726503536859837274e-05
7.3667507947604467244e-05
7.3587382714004190417e-05
7.3452284359051158553e-05
7.3225738546945392908e-05
7.3027924092051066558e-05
7.286895824478821363e-05
7.2756054736337552472e-05
7.2679666077661572786e-05
7.2626731861242133526e-05
7.2653526920968890626e-05
7.2748863169780445545e-05
7.2833514534071327226e-05
7.2911083160514329922e-05
7.2975922088595933466e-05
7.3025514130297904981e-05
7.3053822142487138979e-05
7.3052297238284269899e-05
7.3015284381610224933e-05
7.2958555401110561562e-05
7.2895404493917865391e-05
7.2819056958465893086e-05
7.2707122622709140008e-05
0.00010646910121239266066
0.00010626269136338832566
0.00010604988891060838376
0.00010581659241998049462
0.00010555394539201793627
0.00010526308437075228557
0.0001049497747938296947
0.00010462073442556227407
0.00010428549131430253736
0.00010396060964231197536
0.00010366628982124129925
0.00010341518238152246686
0.0001032042310142787479
0.00010301600615575291374
0.00010282725113815989286
0.00010262364465594595812
0.00010240324835159929741
0.00010217445808718771767
0.00010194920056799845753
0.00010173755916170484513
0.00010154056453233810625
0.00010134769921583429756
0.00010114215531540326749
0.00010090779283726306038
0.00010063783553953165213
0.00010033681636878577352
0.00010001654397385018947
9.9692208999442312152e-05
9.9377805281848738839e-05
9.908399226621218941e-05
9.8815040108655771483e-05
9.8572566772204409167e-05
0.0001224214119954087352
0.00012205538286681095084
0.00012168902118791975221
0.00012131081371663027984
0.00012092050102496569792
0.00012053100493182736859
0.00012015552605202675879
0.00011979794815615466919
0.00011945380106275327694
0.00011912157726246895941
0.00011880529451185808248
0.00011850560153216678765
0.00011821316093119170042
0.00011791159592723464552
0.00011758873461381519939
0.00011724399757481343369
0.00011688844980227976959
0.00011653750788251036592
0.00011620458436561502077
0.00011589628475102761046
0.00011560991788008270135
0.00011533299891078283863
0.00011504944854862606018
0.00011474873749265964015
0.00011443070172429284999
0.00011410623683905919635
0.00011378984182603244402
0.00011349369883914828532
0.00011322230335243630458
0.0001129740256198523017
0.00011274073969062207556
0.00011251412464408803375
0.00011228685116315204723
0.00016276176183120053681
0.00016181858688061890586
0.00016083045189921091247
0.00015982879542788123767
0.00015887772195064513029
0.00015801266432086602184
0.00012848456529387076671
0.00012812428707795702311
0.00012776749095214781702
0.00012740043679014897851
0.00012702241481207066998
0.00012664708284949391663
0.00012628795335755971805
0.00012594736678316601928
0.00012561988546686244836
0.00012530379107842547952
0.00012500352033888043144
0.00012472043040915377788
0.00012444318201577502523
0.00012415337303991401093
0.00012383893329583791341
0.00012350129163564690167
0.00012315363334621293634
0.00012281417718714419561
0.00012249854474986876778
0.00012221426905783072214
0.00012195884587643313394
0.00012171800527695162124
0.00012147194687595399014
0.00012120681516790952383
0.00012092067378425537343
0.00012062366905772786729
0.00012033121026277749592
0.00012005657140671994489
0.00011980627655466111387
0.0001195797291563668787
0.00011936835845076983892
0.00011916271476234365401
0.00011895524111697666075
0.00011874504525952581156
0.00015698647151047383078
0.00015608144216509029357
0.00015512646787758138287
0.00015413990805359436284
0.00015318642242796419732
0.00015233208237274214959
0.00015158061370133907807
0.0001237982134311282087
0.00012348361801688514158
0.00012316220475031290681
0.00012282721245627844912
0.00012248719509782481237
0.0001221605923128832121
0.00012185940138151149677
0.00012158078315952052233
0.00012131522371278734914
0.00012105918912583757061
0.00012081358618602528084
0.00012057463635057550635
0.00012032758766679627668
0.00012005670050884338651
0.00011976088027967232122
0.00011945321842948007955
0.00011915590957797364308
0.00011888917387526258302
0.00011866248984835705042
0.00011847229086952982386
0.00011830388400767262805
0.000118136135946820975
0.00011794989357196252258
0.00011773979052586204823
0.00011751585048116929759
0.00011729700678274016673
0.00011710199753747185781
0.00011694028083008921977
0.00011681036939136817576
0.00011670243366539342618
0.00011660319606970739393
0.00011649952067629549244
0.00011638670809473424862
0.00011626551744816137149
0.00011614179863019059619
1.1817635605157593529e-07
1.180349354551378814e-07
1.1789270911738463044e-07
1.1776927750287205187e-07
1.1764903088317024458e-07
1.1755361330223367136e-07
1.1746373175302645389e-07
1.1738516668667590751e-07
1.1730277967619057802e-07
1.1721381563951519281e-07
1.1707686182462340234e-07
1.7204125020922612719e-06
1.7179775316276018881e-06
1.6976705577263787053e-06
1.625287581836176609e-06
1.5528783820614820185e-06
1.514519332975490891e-06
1.50166489256210533e-06
1.5009027950666978896e-06
1.5108493235651144275e-06
1.556537533463068609e-06
1.6115784728294430357e-06
1.638819859363792205e-06
1.644455691533065133e-06
1.6403100264903185116e-06
1.6173666669401601558e-06
1.5844776298756119312e-06
1.5738856159362542052e-06
1.5767684654255780928e-06
1.6127169400952569763e-06
1.7612780915851894566e-06
1.9686628353583451908e-06
2.0905813558953550802e-06
2.1432810697990185921e-06
2.153865573896852657e-06
2.149895895209533491e-06
2.1386930702136052066e-06
2.1369979821447661065e-06
2.1540063371274213399e-06
2.250018106377800291e-06
2.4433720110142271727e-06
2.556992910568125482e-06
2.5955442614986977531e-06
2.5945800842082111509e-06
2.5685633173113651633e-06
2.4979056535029714587e-06
2.4629866283738690714e-06
1.2688703083044657925e-07
1.2661162939679313997e-07
1.2635138250836175255e-07
1.2611320677912937832e-07
1.2590081054455145582e-07
1.257231154284249374e-07
1.255603988549998829e-07
1.2541158239170462006e-07
1.2526490592860579666e-07
1.251134258989054268e-07
1.2495894574560867932e-07
1.248045443138758127e-07
1.2466621309302077891e-07
1.2454557711046099407e-07
1.2441919409507670827e-07
1.243042378581449197e-07
1.2416917568109048883e-07
1.2406625659326761645e-07
1.2394564492653765264e-07
1.2384707477384163853e-07
1.236999600042869559e-07
1.7672985111550932164e-06
1.7635287930551177891e-06
1.7385443719471997574e-06
1.6588429125721916389e-06