/*--------------------------------*- C++ -*----------------------------------*\
  =========                 |
  \\      /  F ield         | OpenFOAM: The Open Source CFD Toolbox
   \\    /   O peration     | Website:  https://openfoam.org
    \\  /    A nd           | Version:  12
     \\/     M anipulation  |
\*---------------------------------------------------------------------------*/
FoamFile
{
    format      ascii;
    class       volScalarField;
    location    "0.0089";
    object      k;
}
// * * * * * * * * * * * * * * * * * * * * * * * * * * * * * * * * * * * * * //

dimensions      [0 2 -2 0 0 0 0];

internalField   nonuniform List<scalar> 
106891
(
0.022766356274118604297
0.022752618476164152006
0.02272634074859288672
0.022713165217534359019
0.022687320854186086849
0.022674182156984579173
0.022647885674342584789
0.022634194533071916311
0.022606712663138461838
0.022592890628829326305
0.022556625859984934246
0.021212808621610609872
0.021542746290175367879
0.021698507625808050037
0.021752685911986254647
0.021769364824795529867
0.021791484085339960647
0.021850509867480046727
0.021946480894566574443
0.022028609831712411826
0.022079887056782914606
0.02209718450972169429
0.022095446258491066582
0.022067764587122527808
0.021933319798185000465
0.021510741251666732482
0.02106630718822645465
0.020790206632476611326
0.020673293364335678518
0.020660863415862727732
0.020709574305853475917
0.020973648566418829492
0.021794943021716309955
0.022705088836767247512
0.023443996312993240633
0.024073619877978166826
0.024671406018473965305
0.025285312650068208357
0.025910699753787989202
0.026483735936298640617
0.026915165352046091507
0.027150716193255406555
0.0272130037079446295
0.027187033765029490484
0.026965082809113336687
0.026237946862260698444
0.025632512913158194551
0.025394866592324059906
0.025377324025692087062
0.024159293613548252222
0.024130304679714192906
0.024113151853876177433
0.024083460339149539292
0.024066678083674318545
0.024036620111020153001
0.024020049612529993655
0.023990634986051872363
0.023974613078961558299
0.023946082592913611048
0.02393140586340605086
0.023903322879943473406
0.023889133945743046272
0.023861559878506848065
0.023847468635543038473
0.023819307156629811184
0.023804654778822445516
0.023775275162789964029
0.023760563263031012071
0.023722148075580221094
0.021974269895914031597
0.022131201548413685642
0.022252908935136223728
0.022384232667483475177
0.022537720349378828621
0.02270672544656183664
0.022874065638901017877
0.023015824134049671368
0.023116558002566251623
0.023169908115582487501
0.023181554450007184343
0.023173017564708218302
0.023110651928378200121
0.022847824272180475291
0.022358823703735077049
0.022016027568078914284
0.021849227779199040939
0.021815441555625897374
0.021840298971357210989
0.022010165637906715236
0.022660901403544219529
0.023640847755616659076
0.024434141473175349096
0.025087289226630091893
0.025702669761262116749
0.026365446751063240094
0.027091967097977939782
0.027810725734259588576
0.028403240220333650368
0.028767521135333512516
0.028896023341681616875
0.028891128739886206417
0.028730035743948615506
0.028037997618275738165
0.02723590167998414871
0.026853457222582741148
0.025414624464136888887
0.025383770664497450065
0.025365579476051537677
0.025334030070803387896
0.025316279890895323351
0.025284446853145351591
0.025266993131470859985
0.025235829858841825335
0.025218825214973712712
0.025188284975951002326
0.025172483821229676981
0.025142401950409957317
0.025127190979979795865
0.025097503690490644002
0.025082331830470230155
0.025052100876223941384
0.025036469691916217462
0.025005033533652409883
0.024989334185773134922
0.024948896708404683792
0.022418509318402068259
0.022711156415901677386
0.022973949482406184897
0.023227162009726302211
0.023475473933269319637
0.023707780627529762008
0.02390792473863764464
0.024061045227833026405
0.024157351985714000525
0.02419862993887743341
0.024202819872363237619
0.024182961195299123441
0.024071962928269421966
0.023700376707992052566
0.023300666383438074086
0.02307487977813329344
0.02300528283717944919
0.023014606025930417488
0.023141291395194798358
0.023705420474872854197
0.024930453728147856235
0.025911025345770024447
0.026571044806461417004
0.026997271000150153963
0.027352066450657894214
0.02778666477655451772
0.028364599599256183626
0.029026902950209463455
0.029631724674129486519
0.030036076044629170245
0.030196124297321134261
0.030200258032354369842
0.030054471793408508301
0.029372066761777226862
0.028531494711608804127
0.028140338710069819766
0.026704117486696838518
0.02668491491613722566
0.026651503632119870335
0.02663286686892633176
0.026599199219707110597
0.02658078898939739837
0.026547662150082078358
0.026529379484176794646
0.026496492508765959878
0.026479303774185721648
0.026446943571544718338
0.026430489978983059268
0.026398353181657542577
0.0263819788903218444
0.026349375290145863465
0.026332624266861979351
0.026298977440241278619
0.026282228754152973937
0.026239848084216255142
0.024058640028026108404
0.024285994842062497839
0.024489089430815253606
0.024692179090635688055
0.02490180921549129886
0.025105912314743513564
0.025279725332792102321
0.025403424432593441074
0.025468298593385372414
0.025481481582825076665
0.02547022713929342902
0.025389533020996460366
0.025080189312061105383
0.024703570791359288211
0.024502485052406132449
0.024452503653425917973
0.024477953749190938665
0.024688632325211023327
0.025566508422282342716
0.026992324659540673643
0.027993755896674698408
0.028551061222736633799
0.028785300110584374766
0.028872520700035167462
0.028979354736922924296
0.029247024648815875963
0.029963994791204529716
0.03077090316734515385
0.031333197624109784818
0.031592256424524428615
0.031629877564193387141
0.03153893346392797753
0.031022722078744003477
0.030301555383767081464
0.028127058649312901978
0.028092390201910028696
0.028072072468484487312
0.0280368257620597916
0.028017396796991497071
0.02798170177282113813
0.02796200087006561405
0.027926509190207879363
0.027906659162752620734
0.027871260228336334347
0.027852347325545281226
0.02781720516910464111
0.027799233336448844062
0.027764494957586597496
0.027746727677173736032
0.027711678908226174828
0.027693691988753162125
0.027657920194827895904
0.027640161989571830625
0.027595819733992867084
0.026072887557140232706
0.026202446526916414044
0.026241550572765452026
0.026246860043576430987
0.026248389734471570811
0.026257088516073119611
0.026297301754458060619
0.026393109898011857251
0.026455056403380305952
0.026469716953472881282
0.026463212267325689209
0.026408589926617830751
0.026184877395480778833
0.025879595931472126891
0.025716554947778625523
0.025678334306422401917
0.025707641697599859648
0.025934304368906486993
0.026837166203927502461
0.028069780656769988125
0.02885700062349983927
0.029241107487236659562
0.029435233672737471516
0.029698971037055779676
0.030181603049163330948
0.030889395419415880545
0.031717957821410548702
0.032503188829281881578
0.033069130920062986267
0.033340918555468675166
0.033387248666356665605
0.033312206345692596532
0.032858955630937471126
0.029551217016047945374
0.029530002255567868591
0.029492782768706888447
0.029472092487063811239
0.029434008335135514178
0.02941283693898948462
0.029374619150913560545
0.029352667926639371826
0.029314209340443691393
0.029293224515062461083
0.029255015326276372772
0.029235000066380235212
0.02919729227126648119
0.029177933812651393741
0.02914051321513502768
0.029121535267162320521
0.029083731888011367384
0.029065042497232813218
0.029018654263058159953
0.027203674867172220053
0.027364448392579628078
0.027528327815402559714
0.027686740105151642216
0.027827828544505016362
0.02793939158902540229
0.028012819172457365663
0.028040902840806264384
0.028042244012743664655
0.028018088785913122796
0.027898062841455205374
0.027523455827446870192
0.027141426523907250662
0.026921332795943563737
0.026846030956016533192
0.026849777861051450645
0.026957321301334054298
0.027452432554601304687
0.028467113496930318561
0.029294858957628681223
0.029928385290036739474
0.030456310619846303084
0.030993348461427459167
0.031644868353159182062
0.032445473632839047506
0.03332957237371782927
0.034163696129964477022
0.034778735849652180068
0.035088225444608392434
0.035149893576299259812
0.035084340366779952214
0.034650710572693914358
0.031085421392912867405
0.031062999033274887178
0.031023566870053653072
0.031001472136350932685
0.030960879890549262983
0.030937849933297758426
0.030896510950788717148
0.030872445605726054479
0.030830559028191536347
0.030807060597552775316
0.030765306665457518159
0.030743024710154776002
0.030702177446007186679
0.030681110728119000142
0.030641310039008249483
0.030621365812675101908
0.030581876865113901548
0.030562421938580431463
0.030514205271863763247
0.028489823623423001647
0.028832583512000374559
0.029186496979471305419
0.029511701260162719052
0.029761634151332028858
0.029919511616851360986
0.029991571629143481958
0.030003329933243335498
0.029986114601710488203
0.029876525881968339637
0.029458926887391972266
0.028886996490158033807
0.028518234795164368323
0.028353608238482250203
0.028325342862950356887
0.028366497650377717893
0.028620693837107559487
0.029433210993212485795
0.030297378456801429825
0.03094141186979914096
0.031474174208985773726
0.032039237953608128151
0.032759383327013939791
0.033675247465770843935
0.034689447667210639159
0.035619380079707531339
0.03628150140089786424
0.036600036724039483604
0.036659984668263007057
0.036589271719158919516
0.032685976349555910525
0.03264414756470148532
0.032620648575958852144
0.03257766989198928459
0.032553173764534565349
0.032508966606584442649
0.032483118248590271693
0.03243774634191905204
0.032411859135312560964
0.032366440387281363023
0.03234181495731829753
0.032297706722354144193
0.032274948794621810544
0.032232830249868962835
0.032211981152412902385
0.032171027466652839244
0.032150977424334314936
0.032101776784407107246
0.029570945821089433814
0.029904577985985961175
0.030312275166478736682
0.030746226537669799073
0.031120987475813190193
0.031369251804343710466
0.031475286607698667318
0.031487832068704681154
0.031453230961419623157
0.031254129997321231094
0.030694702002211950165
0.030236308022038936583
0.030013411781711334808
0.029960246072678452939
0.029986416357969773727
0.030194126233696719913
0.030940114180197091087
0.031771177680308015923
0.032297965398576919394
0.032622827590346174798
0.032913298380464570125
0.033376136913206538859
0.03415622069560850238
0.035249333226033560673
0.036461871110082602621
0.037495148820295282066
0.038129038281902685736
0.038340588296748336072
0.034496834245632504445
0.034453699874324235364
0.034429590152456550356
0.034385689418276250973
0.034360944054588234142
0.03431556967397923763
0.034289218859144196538
0.034242082475378292361
0.034214915170523108046
0.03416722666567689054
0.034140987949774936894
0.034095036587184726629
0.034071285829210928853
0.034028129495783335234
0.034006861220713995031
0.033965770246533737164
0.033945657351237813748
0.033900211924954272436
0.030394141053844418027
0.030441765463401406627
0.030674090938906543868
0.031331712218584363561
0.031943663379089194676
0.032323129138880662969
0.032485823284497172825
0.032511202537799953338
0.032472458407015791781
0.032243661160034617352
0.03189311343353041367
0.031730292663096917871
0.031702998882338087605
0.031759029818359617303
0.032115565636323124832
0.033190038363891061213
0.034142882157869175463
0.034667776269416777923
0.034857670893798931022
0.034881323153643756241
0.034862265035287630377
0.034859340632576285568
0.034941243789864698255
0.035429458944616833149
0.036971824670937965263
0.038360274968336709189
0.039040153220867082617
0.035968467216456287416
0.035922253464146687574
0.035884877382232074905
0.035838000435971621715
0.035798481561969797138
0.035749943037702264226
0.035707732077446867336
0.035657050502937104319
0.035614633786310072316
0.035563450453644465665
0.035522501542154576171
0.035474071207841885445
0.035435152695227380149
0.035389353547289198465
0.03535190735622044389
0.035307289724706307499
0.035269787988899785336
0.029548436652597584451
0.029318014216894953267
0.02925880967046147127
0.029278146139826169425
0.029456564570415819798
0.030228282576857935099
0.031525405015742462289
0.03243592200096042516
0.032939183546096734156
0.033143974531152559093
0.033189689035461072963
0.033190965713060731346
0.033197878979374824404
0.033275370756377986581
0.033657380129233582799
0.034465577256217072577
0.035020707397432279673
0.035259659813317432986
0.035286387860352666501
0.035170156780936337459
0.034570635414265950269
0.033822847573350654782
0.033509951390168615792
0.03348534963925347413
0.033665940310835432148
0.034668578785484530091
0.037049548912042769289
0.036034570979960434123
0.03599829785261896703
0.035928025145925419903
0.035889959463819669228
0.035817174412829673458
0.035776698356692199221
0.035701232857086387384
0.035660181704075429032
0.035584253133585208584
0.03554436567159167254
0.035470407177045637503
0.035432729211725785823
0.035360106261440052422
0.035323842858409712497
0.035232275825718584183
0.035244875473661299581
0.024749973097209134604
0.024584041200863507304
0.024519477272421496411
0.024508947576419935765
0.024528876540084121327
0.024649170389375193307
0.025104865777049921449
0.026323160754252530186
0.02761727628620921568
0.028695686144370187443
0.029545147892412894353
0.03018711010463656641
0.030662873182868033428
0.031005675454377545908
0.031214619804105833006
0.031292189658228823645
0.031289222946937138292
0.031196478432612632925
0.030756262763285888845
0.029647471151325429511
0.02869319881871515085
0.028085314575467753423
0.02780787381115324905
0.027757234918629532239
0.027817370724582284047
0.028206314298453567108
0.029737773840669161352
0.032319381764356586162
0.029152558453605266486
0.029087999875431480579
0.029053379583778054379
0.02898684433065343985
0.028950556401556332142
0.028882705577129422214
0.028846334612868656383
0.028778198912360983264
0.02874279519660342605
0.028676239373010271178
0.02864241545493000779
0.028576804074363325314
0.028544146044038973264
0.028462055883748817176
0.028485781095657115858
0.023968310177639586683
0.023927679068173376975
0.023923222149207095527
0.023947369031365791509
0.024071599945222666578
0.024481929301138256189
0.025106396978215091836
0.025719171343742228131
0.026301602773464733548
0.026831327385219559678
0.027293476609493556861
0.027673123408699273201
0.027957946036177155902
0.028143187923796400551
0.028231754827137661712
0.028251515352158113048
0.028240414155925121914
0.028156893340209990934
0.027815467360518729423
0.027279408557644158062
0.026921805802650203288
0.026759782869960516138
0.026737906305239433208
0.026798913343942441095
0.027155763422478964436
0.028401530048819113167
0.029993010216380146943
0.027153895004163840221
0.027125951480027422902
0.027073630621152845743
0.027044733823900227176
0.026991627690428530995
0.026962993345181162502
0.026910033357020402695
0.026882549264217906609
0.026830505572971598272
0.026804119804707295105
0.026752904817475515326
0.026727481462201770762
0.026665581997672549441
0.026662856992571305065
0.022938957311059757216
0.022994217401176061943
0.023273884211871622568
0.023864703716140547168
0.024320360588174036454
0.024630468836457402454
0.024840575908852212395
0.025008137080384573725
0.025181088148491535816
0.025383012076056019057
0.025612920032023964168
0.025847077260104933671
0.026052092712438277428
0.026199792239252867043
0.026273392602460022421
0.026288834072664923197
0.026275160846954366545
0.026178701007609543605
0.025901117693470043085
0.025700099654033557034
0.025632345277456881211
0.025643779038910130552
0.02579385224640455207
0.026465646788234264974
0.027718855670147628939
0.028685209780005452296
0.026144025908646013889
0.026095368144143222394
0.026068722386603706415
0.026019863691986503534
0.025993624115689156068
0.025944900290466057363
0.025919723326150376219
0.025871298163710153978
0.025846852609492352443
0.025799123282550587288
0.025775380807269702987
0.025720278503926063268
0.025712268617265894577
0.022143783195231487443
0.022610996344941403091
0.02320792228871443319
0.023674727435798768177
0.024000163950346237174
0.02418985774492421123
0.024276568380269463593
0.024309320346699463122
0.024336429621624345448
0.024394165275962973599
0.024562766798792268208
0.02484164914808326477
0.025056645282802367247
0.025169420751086871157
0.025198703372511156717
0.02518755247768615646
0.025090816756956541012
0.024784436531108084562
0.024550824388096297024
0.024474376540619981885
0.024487306216596272518
0.024654119150241168845
0.025414296564458215694
0.026880986126260081326
0.027948302271302214589
0.025096443952893576074
0.025070667704471447795
0.025023703346490441812
0.02499845265408102632
0.024951650815433226716
0.024927365495978032889
0.024880492812263649283
0.024856806917137905938
0.024810232254207857661
0.024787025770744413461
0.024733209285825185492
0.024725404487760904021
0.021706801885126681545
0.022354706156841000486
0.022866458809230175153
0.0232269348827692651
0.023443213022568083759
0.023545428489063248423
0.023578129418926476596
0.023585621716435974105
0.023593370654730154434
0.023618828272056052731
0.023696193437936302617
0.02375671265244800115
0.023774545448458344471
0.023769103686606871811
0.023715107416576845095
0.023484288684858738161
0.023164190840320356135
0.022984728316813474169
0.022931794247757875116
0.022947625944101553153
0.023104934917495552338
0.023797308376090234999
0.025218917731681649713
0.026315979681180691474
0.021472121452607143
0.022003566245225387316
0.022378390723874732465
0.022601623541041872267
0.022704285311542865555
0.022732435887614858838
0.02273200618918113855
0.022712082580507348545
0.022676992378132292821
0.022658839278793065086
0.022640694631952316268
0.022603186227535432273
0.02250705553845300938
0.022336383619533554251
0.022164334339130016549
0.022027016180021521952
0.021948646584903978157
0.02193077048414979538
0.021949835338290438203
0.022088166635454521691
0.022657788090369130468
0.023699289676188617371
0.024526505713275418424
0.021346202294300425928
0.021613228374330380882
0.021755727140988365825
0.021808033531971200703
0.021815955019490525235
0.021808851661947053352
0.021786413704396302704
0.021778813934019269211
0.021781484354593035752
0.021794347773174498756
0.021801465935693459253
0.02179838907979083848
0.021768453383336574397
0.021645618412642675388
0.021507606770760398507
0.02144841766359020796
0.02144709882688805927
0.021505496754892664685
0.021816133459922022048
0.022719655219445258898
0.023558929049742532297
0.020820491316974387708
0.02092088564004854559
0.021017940275482788204
0.021101800465931085798
0.021155604400094989853
0.02117781074064947755
0.021178224006401590029
0.021153337625245034054
0.021022873422952795264
0.020725196821552854809
0.020517708082168413519
0.020427952297783189689
0.020419957406614216988
0.020470847890606096164
0.020760542902566618551
0.021721490394793676465
0.022767592286360240766
0.020111258538186644468
0.020109046058990848876
0.02008719884800930916
0.019994178511039135959
0.019797590227764141207
0.019634683693969770535
0.019528027562636614267
0.019479696128592766113
0.019475046198005697973
0.019504490597436807686
0.019675600467573450131
0.020314807859784008576
0.021252049704323136559
0.01934758601959308752
0.019345171301884001719
0.019339742446476813897
0.019323064664067187562
0.019264309788400754697
0.019151437532769453875
0.019071469809057425837
0.019038261023903987196
0.019038726921810734255
0.019082696591844416911
0.019300917055490394297
0.019915858548647327048
0.0096700553659562569347
0.0097198138373667444107
0.0098475953083111307518
0.010235638542495732392
0.011339635384016432187
0.012621654731856182807
0.013594886917948651589
0.014183150869898112148
0.014430736351811246365
0.014474658952395799
0.014441497776204962472
0.014230719771183468828
0.013482934822793160232
0.01256863326825415593
0.011930698347776038867
0.011545983390611011532
0.011351418377991400604
0.011268922146973244999
0.011229157734676035313
0.011191098581288397643
0.022698784710988333807
0.022753229418231130099
0.022905151889595940645
0.023340464252460575018
0.024677281447729217112
0.026814056742179057102
0.028623384530146983584
0.029885832595846126974
0.030542807586174263584
0.030753486866872483535
0.030756124983326561806
0.030618630297253458805
0.029977711716940410452
0.02824485789192468857
0.026621090734682929108
0.025506649318330618104
0.024851906254676953134
0.024533297303889270435
0.024413680376388035426
0.024382238730546405142
0.024370020888879257576
0.024359817090981766147
0.079666084574496878745
0.080040780352255452845
0.080471708226412433373
0.081335960085139838438
0.083446852105525562426
0.086604583693220840712
0.089584748436911595948
0.091862788073589787818
0.09309356047819097868
0.093508141173913941757
0.093515091008507952863
0.0933719360345326016
0.092748291184837919343
0.090642397680485001232
0.087845959006609186659
0.085851903730409767634
0.084768028822367044728
0.084338713021498187827
0.084319636844416859245
0.084412182012174666323
0.084779443649098548685
0.085307722790681869696
0.085705752433508267107
0.086164224702338768069
0.087011494656158289152
0.0888556988008486065
0.43299139566555805425
0.43779287137640460204
0.44374629765476969467
0.45183098053897835511
0.46197642938604116525
0.47261855940225211414
0.4822088462636260342
0.48861583764240096306
0.49141860707483842052
0.49181163496311708361
0.49131355325694281433
0.48922259468860990195
0.48299813463184415596
0.47700881254486166005
0.47346467512623624518
0.47239058672868122768
0.47252257261713004333
0.4735458992844666648
0.47741297237851587631
0.48352641894373687981
0.48847590890676029218
0.49245097505125617898
0.4964925550363835649
0.50159677907495869853
0.50853479731363482319
0.5169845172869904637
0.52598058176159423471
0.53420827594933828486
1.9536610952309789724
1.9626944120009723882
1.9718642575773619452
1.9817519958082228104
1.9916304650320024727
2.0004130743373389478
2.006035520163269581
2.0082257750825101006
2.0082068290886669892
2.0070355097085479379
2.0027589439774455826
1.9934001200885504979
1.9857306964261096649
1.9805142222825418141
1.9781980431978229973
1.9781170078011502955
1.9792653808984603803
1.9843827625071932541
1.9926781363451724349
1.999790466968227598
2.0061686308358073205
2.0118917992523890348
2.0171692175706912309
2.0217843786686313656
2.0251434083561603572
2.0266882693745369437
2.0270514306913973712
2.0268131624382590417
2.0255589233332429444
2.0221354489267984178
4.3163689750622147301
4.3051359939731694837
4.2935705054585930895
4.2810141025622749922
4.2666677156951120509
4.2499967544198691272
4.2309666721183765148
4.2101354089970639549
4.1886078375242323801
4.1678667300799352446
4.1493740649826706957
4.1340953262023925063
4.1221494033142258573
4.1127595544902844082
4.1045730569614633509
4.096349860716953728
4.0873333156216640205
4.0773257217997036506
4.0665592801531182943
4.0554281682402839593
4.0442133968119371445
4.032834581043048594
4.0208905257631606389
4.0077745847904644449
3.9930165836574413873
3.9764751959713056095
3.9583890066864202417
3.9393952209622358218
3.9203246655540291421
3.902098213426389961
3.8854059424251841115
3.8707558197950904244
5.9322676777556644367
5.9036186666203791518
5.8751395904788505931
5.8465680277189360226
5.8179150286361700495
5.789533944593831194
5.7619051623826793573
5.7352905180247866213
5.7096498848989440944
5.6849534133647772194
5.6612705547858581667
5.6385891020636185189
5.6166117830604918026
5.5948086955883979954
5.5727177709592359278
5.5502050891187337811
5.5274965730488254678
5.5049391672711713852
5.4828477755493212342
5.4613720143352457725
5.4404565635534938295
5.4198615061596449038
5.3992951568019824649
5.3786057110385288027
5.357845704790077157
5.3373269707027670705
5.3174198340062766022
5.298426945507629604
5.2803727131988731358
5.2632237170109474889
5.2467392512915456138
5.230759405290346109
5.2150299615338830961
10.067412039265171586
9.9640634750043997059
9.8616236463605151386
9.7606530939791706913
9.6628738175507891128
9.56930825998385437
6.7701104799585900551
6.7394432883945381008
6.7094814008944467787
6.6798133435074502628
6.6503761037496644803
6.6214993093982217331
6.593553174066002498
6.5666174150784017982
6.5405737317239696083
6.5153475531805034038
6.491053676671770134
6.4677552838047525086
6.445149048158308247
6.422689604515785966
6.39996028340265255
6.3769242985543792557
6.3538621863773032672
6.3312243086267558922
6.3094470845797410163
6.2887826825840544842
6.269236953296822179
6.2504713824712299086
6.2319613297930711582
6.2132867435117589139
6.1943452770904503524
6.1753576423097360504
6.1566688987860826998
6.1386389981370701463
6.1214554971009729201
6.1051725577600555184
6.089537602384301529
6.074337522436143999
6.0593385740365039993
6.0444777321902130041
9.682186334324876853
9.5784550261106922164
9.4733276967421069514
9.3706069729743557417
9.2749259391923466467
9.1882153402205908321
9.1077714265807490079
6.4893440995653906
6.4634602159589622516
6.437170437910671339
6.4107770752342165821
6.3851597199074241473
6.3612133294020472007
6.3391418868411486542
6.3185292850380232466
6.298832118706034322
6.2797696414680181931
6.2610970175344977662
6.2423100348342570598
6.2227587370459138683
6.2021975956802366525
6.1812720607055879896
6.1611702891007862348
6.1430927755234847609
6.127717655856213419
6.1148978693944933127
6.103780966866229285
6.0931229806657043468
6.0818287210218562322
6.0694007487807732915
6.0562845209717668382
6.0435737680006544892
6.032434738906070848
6.0235933477259289148
6.017029689435321238
6.0121151980169047491
6.0079494375589890254
6.003782746162433348
5.9990000767512157154
5.9936482799010510902
5.9878510392212298541
5.981792095155484823
3.1264583669274011346e-06
3.1238938646921953679e-06
3.1211891530237357788e-06
3.1193184126535191837e-06
3.1173988403062896844e-06
3.1165642771830436673e-06
3.1157799243711799032e-06
3.115374707799225248e-06
3.1145803714464366062e-06
3.1132766752570322517e-06
3.1093314143200186338e-06
0.00041877183486941201235
0.00041817082434711497262
0.00040892444326135867893
0.0003753285754675857698
0.0003429475692686651065
0.00032650465737470906
0.00032129549904900365229
0.00032131837232143411597
0.00032594308948186872556
0.00034632269843588902106
0.00037181557538272508442
0.00038513167866256894185
0.00038846797401219081364
0.00038723840095381142044
0.00037726811278760775167
0.00036276589162970607639
0.00035857986990966837131
0.00036050640313767538976
0.00037763297985270042126
0.00045080193842974924196
0.00056427302248923368391
0.00063750092173983944829
0.00067116848057137325906
0.00067880409153069792578
0.00067716003723210748105
0.00067085433982526235588
0.00067042577420895095586
0.00068167658532443387021
0.00074414325492389856668
0.00087861051094469935687
0.00096382961059638522488
0.00099496591426782876079
0.00099626067144910649895
0.00097867610768518102302
0.00092770318622027302547
0.00090373742371379120995
3.3757788142837271882e-06
3.3652830664931938013e-06
3.3555481696468147164e-06
3.346991683461539676e-06
3.339876222425066041e-06
3.3347514135661636678e-06
3.3306297870079050225e-06
3.3274837197110894854e-06
3.3246762387204439805e-06
3.3217823298015882148e-06
3.3188108976268081152e-06
3.3158174605545887863e-06
3.3135543631034456651e-06
3.3120403688059257121e-06
3.3099710384428773626e-06
3.3082559457773453363e-06
3.3052109119768496506e-06
3.3036598033899436914e-06
3.3010029531701280996e-06
3.2993916510076821781e-06
3.295141667870788479e-06
0.00041968935525432557671
0.00041854195848673413083
0.00040741438420687506794
0.00037147365216425455147
0.00033982953207328711045
0.00032342786616662821389
0.00031779775763638243042
0.00031743193219653623475
0.0003200941260028901305
0.0003327237844791465656
0.00034960092459368285285
0.00035857035507971265305
0.00036108842163800843918
0.00036048252489609817996
0.00035501305800672458383
0.00034941000376242898435
0.00034916997955524554193
0.0003554681159707518876
0.0003900713484292010454
0.00050063444581508148405
0.00061125028305513123134
0.00067551370632632293245
0.00070050224379388068181
0.00070370233075464866477
0.00069900945722694239875
0.00069139888092736336012
0.00069252474232841696941
0.00071416609223895781075
0.00081632611563266937755
0.00096835534560164599621
0.0010536155403903771279
0.0010802152410795914407
0.0010787776116632534149
0.0010500962747141235568
0.00098934363709314706789
0.00096608446610215142469
3.5822372491954643943e-06
3.5730987222177805975e-06
3.5653769162513133028e-06
3.5592053328478681417e-06
3.5536510720687120856e-06
3.5493856424315858009e-06
3.5454496842532647494e-06
3.5423408745061748075e-06
3.5394764459921671216e-06
3.5364430960628165809e-06
3.5333247216453538828e-06
3.5298951224278877562e-06
3.5267773539574269226e-06
3.5249845669539596827e-06
3.5226788837178023087e-06
3.5211076956271560174e-06
3.5178128080438778891e-06
3.5156680022511586488e-06
3.5118642275496491387e-06
3.5098898017159243282e-06
3.5049689729557500507e-06
0.00040638058565431158181
0.00039589893066449978031
0.00036718241178889613613
0.00034740096129387174843
0.00033953942833767671852
0.00033851997079304389652
0.00034111336735826103738
0.00035614115459891242501
0.00038322417985851229541
0.0003990057823779525367
0.00040419982159460376243
0.00040396640072060146414
0.00039748665908604318385
0.00037633992063178782093
0.00036236271715604263799
0.00035960259896840253598
0.00036346863014650749452
0.00038987849362334843755
0.00048612729945273424562
0.00059711698187632901522
0.00066327612560124877238
0.00069080364526371402199
0.00069551264834018721936
0.00069291265161298119281
0.00068911882236007799499
0.00069263957930777665575
0.00072554805635253040268
0.0008706181359045052923
0.0010849031272851686423
0.0012075238846147983568
0.001248034762424804359
0.0012478310121386948072
0.0012153501606301077634
0.0011263516787255710167
3.7929125121916380288e-06
3.7873968669643705222e-06
3.7840610914548337215e-06
3.7806230876317746207e-06
3.7776995046487134767e-06
3.7736852581666067901e-06
3.7705180907297048254e-06
3.7675727416257153584e-06
3.7647545725972610368e-06
3.7615253218229761075e-06