/*--------------------------------*- C++ -*----------------------------------*\
  =========                 |
  \\      /  F ield         | OpenFOAM: The Open Source CFD Toolbox
   \\    /   O peration     | Website:  https://openfoam.org
    \\  /    A nd           | Version:  12
     \\/     M anipulation  |
\*---------------------------------------------------------------------------*/
FoamFile
{
    format      ascii;
    class       volScalarField;
    location    "0.0089";
    object      nut;
}
// * * * * * * * * * * * * * * * * * * * * * * * * * * * * * * * * * * * * * //

dimensions      [0 2 -1 0 0 0 0];

internalField   nonuniform List<scalar> 
106891
(
8.6732472334252452151e-06
8.6646100335494680389e-06
8.6535927487291505142e-06
8.6450775318848999281e-06
8.6341588760840457488e-06
8.6256654856390240014e-06
8.6146769241114360945e-06
8.6060933303405366934e-06
8.5948955523548428872e-06
8.5863020663979097556e-06
8.5734515460873904488e-06
1.0587048929738399658e-05
1.0661657659768657583e-05
1.0692702884046661357e-05
1.0698610535936026609e-05
1.0695280499641677006e-05
1.0693283259576214609e-05
1.070032137267630656e-05
1.0716348932649310305e-05
1.0728927550589102184e-05
1.0733949747359564623e-05
1.0730697981707161342e-05
1.0722825935816823322e-05
1.070866679140257272e-05
1.0668584131150335586e-05
1.0557975643539916819e-05
1.04410828227533507e-05
1.0365233834670884827e-05
1.0328872146121479645e-05
1.0318597400062603858e-05
1.0323581418945777371e-05
1.0381979366967755243e-05
1.0575950362302095339e-05
1.0787020505227781948e-05
1.0953529708570914619e-05
1.1091935472535010976e-05
1.1221010068101798437e-05
1.1351873228303759967e-05
1.1483421506254867038e-05
1.1601649118070532962e-05
1.1687644541031871542e-05
1.1730525839574685587e-05
1.1735820075295891075e-05
1.1722074634732985109e-05
1.1666022637711364997e-05
1.1499665993408079274e-05
1.1358324226016388133e-05
1.129769910138976843e-05
1.1285955020475151516e-05
9.2244618001864665417e-06
9.2125252302524985454e-06
9.2028563872537845085e-06
9.1908031511614896367e-06
9.181221439427228833e-06
9.1691157295861110154e-06
9.1595907791886664758e-06
9.1476251418141747642e-06
9.1382210260409699865e-06
9.1264411871877338349e-06
9.1173094257211152839e-06
9.1056319852045237192e-06
9.0966089281622225407e-06
9.085045440240090565e-06
9.0760566556526585922e-06
9.0643983743223115098e-06
9.0553185446625803764e-06
9.043445616722923963e-06
9.0343703102039641956e-06
9.0207966938309967726e-06
1.1047924211843096338e-05
1.1079606146808551218e-05
1.1102316094156823627e-05
1.1127296616505857996e-05
1.1157629059997700808e-05
1.119160947419240267e-05
1.122497393166335775e-05
1.1251885174190228786e-05
1.1268652272564907318e-05
1.1273815302695305824e-05
1.1268819011635320489e-05
1.1258921436451238318e-05
1.1235954150368141261e-05
1.116412400306766132e-05
1.103633994490736854e-05
1.0943807377646916454e-05
1.0894702438558536713e-05
1.0878717462231315115e-05
1.0877356185536854582e-05
1.0911993097734211267e-05
1.1064438636103512793e-05
1.1293295284781967459e-05
1.147323976447989196e-05
1.1617502176061617836e-05
1.1750960840276294581e-05
1.1893240331438934788e-05
1.2047620092052224771e-05
1.2197912737699587876e-05
1.2318609016223791805e-05
1.2388745031553542858e-05
1.2407763330447888777e-05
1.2398098511075174316e-05
1.2354901232680067815e-05
1.2196720138353742599e-05
1.2012649541776318415e-05
1.191972945453003415e-05
9.7071117260273678075e-06
9.6944821266491718292e-06
9.6842793267211252486e-06
9.6715352921754342623e-06
9.6614339916093187644e-06
9.6486542032781855691e-06
9.6386267195910100072e-06
9.625993018986780375e-06
9.6160683060738055236e-06
9.6035716212951055553e-06
9.5938932637023025191e-06
9.5815020433711956471e-06
9.5719528578505180512e-06
9.5596548151571680466e-06
9.5501296776511720624e-06
9.537746093974525368e-06
9.5281501611025473599e-06
9.5155552460319726038e-06
9.5059630889502321133e-06
9.4916741486635096371e-06
1.14492248369933582e-05
1.1515709725989355808e-05
1.1574101393050300352e-05
1.1629629874173667329e-05
1.1683510940884124849e-05
1.1733025159229699705e-05
1.1774266425103507153e-05
1.1803709977537234289e-05
1.1819097512838979704e-05
1.1820977969367194718e-05
1.1813793353956438477e-05
1.1800746793017022145e-05
1.1765458926958763925e-05
1.1666191749063721265e-05
1.1559366228744264682e-05
1.1495237348663835841e-05
1.146991962425201359e-05
1.146427843284762691e-05
1.1487806587679532828e-05
1.1618913480860106508e-05
1.1907076512528398871e-05
1.2130556342246770956e-05
1.2275554035679471263e-05
1.2365027490466540421e-05
1.2437371060683049246e-05
1.2527087114247617737e-05
1.264790462775543863e-05
1.2785831320437631166e-05
1.2909381989074357008e-05
1.2988139700396329908e-05
1.3013656002504534197e-05
1.3005510795860156578e-05
1.2965074112982329386e-05
1.2808140233774818273e-05
1.2614773276323946007e-05
1.2519304836362693477e-05
1.0201990639473590875e-05
1.0191241277789781628e-05
1.0177787926297359198e-05
1.0167164843989474546e-05
1.0153681906556765013e-05
1.014312022854046592e-05
1.0129759795748580548e-05
1.0119240526866047435e-05
1.0105945072752700695e-05
1.0095652357878778509e-05
1.0082476475264714661e-05
1.0072341615790952567e-05
1.0059227355119002616e-05
1.0049125211420946715e-05
1.003594104830609627e-05
1.00257847894502052e-05
1.0012421053766710593e-05
1.0002282944984619792e-05
9.9872763062352272901e-06
1.2160624578127292205e-05
1.2209465725532943627e-05
1.2251898666560949677e-05
1.2294055048614376869e-05
1.2337559546390484565e-05
1.2379416693445119096e-05
1.2413570641569293966e-05
1.2435264964117348515e-05
1.2442488398221185223e-05
1.2437067249222618888e-05
1.2425687309020165222e-05
1.2397374905637462605e-05
1.2313064376916604267e-05
1.2211780183871399037e-05
1.2153533009438991311e-05
1.2132701460306964428e-05
1.2130585600841829432e-05
1.217421857117331223e-05
1.2380171358493523043e-05
1.2711870401694706664e-05
1.2936543836258149304e-05
1.3055610149454367384e-05
1.3099954679344566615e-05
1.3110677352884405423e-05
1.3125791501254761414e-05
1.3177115665969767153e-05
1.3328391339716617162e-05
1.3497283431413606257e-05
1.3610590627555156149e-05
1.3657251352426555006e-05
1.3655892886913762851e-05
1.3626779058605962893e-05
1.3505418012779432112e-05
1.3338251658528531223e-05
1.07500097324265113e-05
1.0735923565018053475e-05
1.0724589297870964401e-05
1.0710413044278895201e-05
1.0699267738576384598e-05
1.0685026252670893419e-05
1.0673848170827167714e-05
1.0659665859294308071e-05
1.0648478443204734251e-05
1.0634334133041388595e-05
1.0623344532363438724e-05
1.0609269436377756252e-05
1.0598478138711802803e-05
1.0584500179872364273e-05
1.0573766563277422169e-05
1.0559749556666396045e-05
1.0548992770188973006e-05
1.0534858147486823331e-05
1.0524163616186106812e-05
1.0508417420938593958e-05
1.2988654630894212472e-05
1.301184531106971528e-05
1.3012510210428496934e-05
1.3004791122623301231e-05
1.2996140656528596901e-05
1.298926930275674613e-05
1.299018686620506853e-05
1.3004793286992496438e-05
1.3011006175360110637e-05
1.3005574837989815313e-05
1.2994948142852563459e-05
1.2972516858359705935e-05
1.290848505925895265e-05
1.2824106510806772483e-05
1.2774771243861277544e-05
1.2756411740433876726e-05
1.2754827519619570537e-05
1.2802038810874468726e-05
1.3013931976896790185e-05
1.3300197214261038191e-05
1.3476047477203288309e-05
1.3556020386520674901e-05
1.3591500809777211267e-05
1.3642775718625021656e-05
1.3743633215417260188e-05
1.389419775078908275e-05
1.4069535091290733109e-05
1.4232739171591738081e-05
1.4346146537951568988e-05
1.4394978445165792174e-05
1.4394975206497642321e-05
1.436880566421226876e-05
1.4260810757478967339e-05
1.1297491142929173217e-05
1.1285594214615598529e-05
1.1270649221668762016e-05
1.1258872727274814505e-05
1.12437840299356235e-05
1.1231935872118940033e-05
1.1216843140312915267e-05
1.1204866376389200703e-05
1.1189749138965278684e-05
1.1177977076557730349e-05
1.1162928839756816731e-05
1.115136182805407934e-05
1.1136430559136691854e-05
1.1125008689848744662e-05
1.1110153424206851774e-05
1.1098823842228583937e-05
1.1083916819116756722e-05
1.1072661912789773304e-05
1.1056140761102899956e-05
1.3602884696802178521e-05
1.3633549673896359995e-05
1.3664818831437879011e-05
1.3694564985912346459e-05
1.371988134443115905e-05
1.3737810931274790138e-05
1.3746300652963007252e-05
1.3743640688220762417e-05
1.3734426986632807739e-05
1.3718978745478143896e-05
1.3680057427334968014e-05
1.3578467104888786366e-05
1.3474540524276018764e-05
1.3410478523754514811e-05
1.338241232172785212e-05
1.337405418998331053e-05
1.3391507359481292312e-05
1.3504542631349235283e-05
1.3742303848045560314e-05
1.3930987506664021633e-05
1.407104030051040396e-05
1.4184746444535447884e-05
1.4299325320941563505e-05
1.4438806977239290134e-05
1.4610163964184842534e-05
1.4797599479325273264e-05
1.4971219899623586705e-05
1.5094892586361151229e-05
1.5151380331832089819e-05
1.5154160117143581146e-05
1.5129510913785452632e-05
1.5025283337153624635e-05
1.1888360402552333777e-05
1.1875820953601335753e-05
1.1860040735486283324e-05
1.1847585235025053315e-05
1.183160595343332028e-05
1.1818993150312431253e-05
1.1802893889362227144e-05
1.1790104847278976547e-05
1.1773923689005930823e-05
1.1761264448163672331e-05
1.1745131257628620196e-05
1.173272561309324051e-05
1.171678801481956465e-05
1.1704635390746824264e-05
1.1688919882209196735e-05
1.1677002224210248599e-05
1.1661368477513672713e-05
1.1649564791507255099e-05
1.1632289869360929195e-05
1.4272818238022513546e-05
1.4348450404012082936e-05
1.4426220799237812761e-05
1.4496296994110338238e-05
1.4547444490166600443e-05
1.457585162117734267e-05
1.4583261636799305132e-05
1.4575992994928369784e-05
1.4561693546180375609e-05
1.4524968630282755457e-05
1.4413086183799098163e-05
1.426257966770752458e-05
1.4161412584050859636e-05
1.4110675014655123713e-05
1.4093847790361759714e-05
1.4094290377041111616e-05
1.4147470650155437018e-05
1.4336921629917908757e-05
1.45357679783543032e-05
1.4679250654629730181e-05
1.4794808964279372758e-05
1.4916661871595492236e-05
1.507289875632674748e-05
1.5271534856729428821e-05
1.5489034569461219385e-05
1.5684374433341555054e-05
1.5818489676435535518e-05
1.5876746748480114081e-05
1.587871168014732542e-05
1.5852376297647508338e-05
1.2498904215737513735e-05
1.2482231754408061822e-05
1.2469075026620562183e-05
1.2452206615880687194e-05
1.2438881886356528206e-05
1.2421802637164370504e-05
1.2408242308483032187e-05
1.2390964498504471858e-05
1.2377419604132817128e-05
1.2360156764170775518e-05
1.2346875535548695432e-05
1.2329886711393545131e-05
1.2316984379276300625e-05
1.2300398933126320826e-05
1.2287882823846713368e-05
1.2271543059982121759e-05
1.2259201032345874697e-05
1.2241312325116747965e-05
1.4908882379683820947e-05
1.4982341310559032252e-05
1.5073651891392981215e-05
1.5170625665222697132e-05
1.5252204936646189117e-05
1.5302288815018128822e-05
1.5317487261310732918e-05
1.5309902613418254494e-05
1.5290864738352444682e-05
1.5231809113193237786e-05
1.5084393696345813006e-05
1.4960940483920138436e-05
1.4895344942105251577e-05
1.4871813698015229644e-05
1.4867977611127975652e-05
1.4909024037945281733e-05
1.5081596057165063153e-05
1.5272191880894069803e-05
1.5387592068070457351e-05
1.5454047727668830545e-05
1.5511918666178865653e-05
1.5609759658463493056e-05
1.5780161893119693233e-05
1.6019552085437289702e-05
1.6281437940621466029e-05
1.6499059547941436502e-05
1.6626389163534374807e-05
1.6660873571448935894e-05
1.3174377054066390024e-05
1.3156996761692131784e-05
1.3143260867590686515e-05
1.3125759309836153085e-05
1.3111925669378046504e-05
1.3094167983386961429e-05
1.3080051807586173603e-05
1.3061983161912831157e-05
1.3047735241469731298e-05
1.3029586487151554892e-05
1.3015539587855035579e-05
1.2997747097099914459e-05
1.2984198034826790964e-05
1.2966963069382645731e-05
1.2953910042553138326e-05
1.2937093078929470287e-05
1.2924282648839568706e-05
1.2906661172920349363e-05
1.5497264443365823075e-05
1.5498632878139610703e-05
1.5546860095281017525e-05
1.5701721541566842125e-05
1.5843310504881986169e-05
1.5926070683605418843e-05
1.5955016061471812862e-05
1.5950165384112513912e-05
1.5929590993272098071e-05
1.586235194339041422e-05
1.5764936750215252398e-05
1.5713726125648890561e-05
1.5696061080783477323e-05
1.5699018008640223135e-05
1.5775932107269716165e-05
1.6026529408568218236e-05
1.6243666482352136344e-05
1.6356686642786507426e-05
1.639003535652654842e-05
1.6384211664174283529e-05
1.636836275931455412e-05
1.635631222147807955e-05
1.6364146351965876597e-05
1.6466632821634149397e-05
1.6809560193071659709e-05
1.7110398752616738486e-05
1.7249376375831400879e-05
1.379269266650712833e-05
1.3774259066482451273e-05
1.3757532915046530975e-05
1.3738998597060986346e-05
1.3721887792280247249e-05
1.3703061426304490321e-05
1.3685460892192419309e-05
1.3666250248248387191e-05
1.3648636552735066729e-05
1.3629356133174446767e-05
1.3612049885596609223e-05
1.3593323251256335572e-05
1.3576432005449054618e-05
1.355823559323572069e-05
1.3541652137804791202e-05
1.352370801424354766e-05
1.3507139527471238044e-05
1.5688385520973962948e-05
1.5616245980073255659e-05
1.5589639024750072974e-05
1.5583962203237296707e-05
1.5620520939075306763e-05
1.5812828810107638976e-05
1.6137324668945900934e-05
1.6357340332881982638e-05
1.647230397096527158e-05
1.6511958667198039412e-05
1.6511869895953232241e-05
1.6500723135290781336e-05
1.6490983929183493378e-05
1.6498756692837072193e-05
1.6581670737068231929e-05
1.6767923284823758363e-05
1.6890687379015278756e-05
1.693644641438462345e-05
1.6931101057669202092e-05
1.6891457276580409421e-05
1.6735242686313541452e-05
1.6541762632899715575e-05
1.6453639060129253972e-05
1.6436178641381259048e-05
1.6468997937177144052e-05
1.6700835047044731827e-05
1.7252816230669232279e-05
1.4154528183861858588e-05
1.413757980074581289e-05
1.4113967923401036741e-05
1.4096695012796190826e-05
1.4072616330517907603e-05
1.4054897507612034091e-05
1.403031839943722876e-05
1.401251410123494354e-05
1.3987869793063789577e-05
1.3970321617320476457e-05
1.3946090333136903984e-05
1.3929003782765074379e-05
1.390506108878415383e-05
1.3888279857995916526e-05
1.3860637407391063856e-05
1.3853490489630071515e-05
1.2499357758870083677e-05
1.2448738304891258187e-05
1.2423749044456207477e-05
1.2412457221520978512e-05
1.2408881256050638682e-05
1.2430635165026929315e-05
1.2536303144381013327e-05
1.2827969487692817682e-05
1.313039192308803989e-05
1.3375004615401827522e-05
1.3562104442923066805e-05
1.3699134719355715828e-05
1.3797079201963791193e-05
1.38643559271270707e-05
1.3901334453859406126e-05
1.3908932870064107638e-05
1.3898617077550281957e-05
1.3868367886923039584e-05
1.3760610929052603454e-05
1.3500912689294295203e-05
1.3272635008648931134e-05
1.3122170637276571944e-05
1.3048130551126618749e-05
1.3027193636663350222e-05
1.3032243142806559529e-05
1.3113924287846361711e-05
1.3455879689948542759e-05
1.4018054925667990888e-05
1.1075459617706043077e-05
1.1055508354638054555e-05
1.1041256093271520998e-05
1.102094892838381545e-05
1.100640133838136448e-05
1.0985863303459543011e-05
1.0971321443674072481e-05
1.0950748194061920806e-05
1.0936411795507585052e-05
1.0916158167351491738e-05
1.0902143843425828124e-05
1.088208924515239755e-05
1.0868318291474923063e-05
1.0845143969122497354e-05
1.0842130271012714109e-05
1.205744983374000842e-05
1.2038861266904465108e-05
1.2029382253820286475e-05
1.2027095490272432857e-05
1.2049879418417471319e-05
1.2143710600887348963e-05
1.2289073782602625588e-05
1.2429504289426459868e-05
1.2560727579883416465e-05
1.2677777788376633499e-05
1.2777616591268014783e-05
1.2857243812855490163e-05
1.2914267784571049484e-05
1.2947984428113633074e-05
1.2959338287987565275e-05
1.2954872118439753374e-05
1.2943333876990566791e-05
1.2915206602505232756e-05
1.2827751480666310413e-05
1.2694722112863871474e-05
1.2602484845189067936e-05
1.2555781507540594285e-05
1.2541934324977070859e-05
1.2547516708583143834e-05
1.2622011323793508211e-05
1.2899319281381150699e-05
1.3246596829208553677e-05
1.047794007065774307e-05
1.0465276326305184574e-05
1.0447919700393819761e-05
1.0435092397617920379e-05
1.0417604061413049071e-05
1.0404847729929748805e-05
1.0387407309031845053e-05
1.0374893213002513382e-05
1.035764936767373401e-05
1.0345367404941976876e-05
1.0328303291195491015e-05
1.0316227135458439087e-05
1.0297120079357073246e-05
1.028944505014821621e-05
1.1562720146730009712e-05
1.1568601497237795506e-05
1.1630659623205275098e-05
1.176918261529016728e-05
1.1872758929302764779e-05
1.1939918185167326304e-05
1.1982410906537445161e-05
1.2014409093768318559e-05
1.2047511748228228906e-05
1.2087321028997789486e-05
1.2133508314664888088e-05
1.2180382665152098738e-05
1.2220103557717731029e-05
1.224618650310289292e-05
1.2254861009919535249e-05
1.2249950721042823332e-05
1.2238261744208113802e-05
1.2207295538026902306e-05
1.213397321281127547e-05
1.2078403937648810761e-05
1.2054097083720679382e-05
1.204841428854450229e-05
1.2075228287599004586e-05
1.2222973464610620119e-05
1.2500334316473336364e-05
1.2707536374517470966e-05
1.0078188986055058822e-05
1.0061815421136948172e-05
1.0049694790416179103e-05
1.0033301758268439944e-05
1.0021278911443299279e-05
1.0004931097119377606e-05
9.9931325163041643275e-06
9.976861495123620131e-06
9.9652232454485169076e-06
9.9491055865555959081e-06
9.9376221039265496171e-06
9.9201018919015321925e-06
9.9116706918268278152e-06
1.113616124642136122e-05
1.1245216391317975518e-05
1.1384775330919221238e-05
1.1490718737915876866e-05
1.1561393195888837359e-05
1.159893437354689793e-05
1.1611636964322210241e-05
1.1611399721880433635e-05
1.1609806087872810652e-05
1.1615499272332542499e-05
1.1647478305853766273e-05
1.1705281063742684414e-05
1.1747662567663583861e-05
1.1765895269561733581e-05
1.1764563867937897866e-05
1.1753794288960098767e-05
1.1723056753580855143e-05
1.164317324901826925e-05
1.1580124844602369396e-05
1.1554053842886417551e-05
1.154908136898534523e-05
1.1580306311537768966e-05
1.1749319541863132446e-05
1.2075208369566501772e-05
1.2304050866065260425e-05
9.6791848055446653201e-06
9.6674960840655357468e-06
9.6517310746827705159e-06
9.6401624368790085948e-06
9.6244472547428218661e-06
9.6130834467789999005e-06
9.5973730757257061272e-06
9.5861434660262930896e-06
9.570509012916971793e-06
9.559390383741129117e-06
9.5423774546652267043e-06
9.5342475614728783436e-06
1.0807965358200409287e-05
1.0960462292667596997e-05
1.1077511583743926605e-05
1.1156733882962642919e-05
1.1200774571615661405e-05
1.1217372853383353611e-05
1.1217366168166300144e-05
1.121135886829504382e-05
1.1205415164720359866e-05
1.1203674883046890506e-05
1.1214217715707475081e-05
1.1220733022812026479e-05
1.1217150188274642897e-05
1.1208079245335240699e-05
1.118756844006026228e-05
1.1125261528511179527e-05
1.1041509683782988521e-05
1.09910186459007095e-05
1.0970732916976254836e-05
1.0966899706306880433e-05
1.0996784951757641795e-05
1.1152587607237767441e-05
1.1472902779913690953e-05
1.1711653877937198238e-05
1.053707139477489081e-05
1.0659267212223387809e-05
1.0742209174430692397e-05
1.07881596261857867e-05
1.0805125859081439672e-05
1.0804315715156006088e-05
1.0796712287963716501e-05
1.0784487008943906546e-05
1.0768670933859342276e-05
1.0756886228235767276e-05
1.0745112976645060799e-05
1.0728754578686838548e-05
1.0698482665029463454e-05
1.065044227082069101e-05
1.0601978662440591158e-05
1.0561747525472609183e-05
1.0535622127771433442e-05
1.0524019027367251508e-05
1.0521282452669714056e-05
1.0547055909265826292e-05
1.0674770217060674363e-05
1.0909775437678383473e-05
1.1090837770728722959e-05
1.0291473135952492059e-05
1.0348452778635295585e-05
1.037530253986627542e-05
1.0380555330281629705e-05
1.0375231982944913077e-05
1.0366340437935429522e-05
1.0353812783657842392e-05
1.0344819414399273493e-05
1.0338270814717083677e-05
1.0334143153065078414e-05
1.0328654494603524728e-05
1.0320754995478791986e-05
1.0306505093905075107e-05
1.0270249658268288239e-05
1.0230348125006447714e-05
1.020916832596882167e-05
1.0201766488761723894e-05
1.0208553478983579726e-05
1.0274879242785688662e-05
1.0478209334625592365e-05
1.0662580946450390615e-05
9.9424689592552523663e-06
9.9594912966439134706e-06
9.9756353888203800847e-06
9.9885768013728185684e-06
9.994358935404259374e-06
9.9926602587044015941e-06
9.985819834143535575e-06
9.9730219451667286333e-06
9.9353170032651606309e-06
9.8578768722977668637e-06
9.8015971217592019103e-06
9.7733445252085460046e-06
9.7646475828642333156e-06
9.7700197167158389796e-06
9.8320763980324807455e-06
1.005006957420749987e-05
1.0282084710782704188e-05
9.5587236081707437811e-06
9.551561596615721993e-06
9.5397436025800641442e-06
9.511021477790655235e-06
9.4575775695017866963e-06
9.4120465826067691327e-06
9.3799315621161490812e-06
9.3618124334354685151e-06
9.3541959190384479548e-06
9.3547650908883613649e-06
9.389186043611278388e-06
9.5338578701161207622e-06
9.7445343735324606944e-06
9.190308607375045338e-06
9.1833546930074173658e-06
9.1756909718069416587e-06
9.1653658630693100547e-06
9.1450670855901632626e-06
9.1119058733404559747e-06
9.086549248623669597e-06
9.0723314329098108299e-06
9.066143487249255745e-06
9.0703046710383823523e-06
9.1156856755625336879e-06
9.2533343041637644149e-06
4.7740811942332600902e-06
4.78302510983169076e-06
4.8110198683465023794e-06
4.9014874082445143306e-06
5.1554708159773224226e-06
5.4353223060760361317e-06
5.6370686101359166525e-06
5.7537402115165629714e-06
5.7997129688661210042e-06
5.8044996738555685524e-06
5.7938214437814457858e-06
5.7473915886044958621e-06
5.5904650792290615791e-06
5.3938406926083574253e-06
5.2515243985257773016e-06
5.1625739524828078076e-06
5.1153370388999638905e-06
5.0931767089589679272e-06
5.0806527508598327064e-06
5.0685139870915243106e-06
7.1798655612073057823e-06
7.1834802018469418793e-06
7.202418141105164556e-06
7.2654890871562742449e-06
7.4654696396793826938e-06
7.776570351694280642e-06
8.0290784708375639232e-06
8.1985350259759901572e-06
8.2824042056424096957e-06
8.3051502169139853438e-06
8.299739955717228232e-06
8.2754176845007690403e-06
8.1826627084184040548e-06
7.9371296449975474804e-06
7.7002542779206094498e-06
7.5321197526621238856e-06
7.429656422593144022e-06
7.3767523715823312943e-06
7.3536378502348196279e-06
7.3437987538349025075e-06
7.3368610632997292845e-06
7.3302320397771565395e-06
1.3212745451597859947e-05
1.3234585851508612702e-05
1.3260951156536198136e-05
1.3322714788378416424e-05
1.348511883118360549e-05
1.3728358274504217298e-05
1.3952870755048419542e-05
1.4119350198133609123e-05
1.4203752168946055744e-05
1.4225460834603862088e-05
1.4216112431409469306e-05
1.4195364474106496766e-05
1.4138055786697699049e-05
1.3966924702622958093e-05
1.3740241317557517109e-05
1.3573967272305627958e-05
1.3478645206071475905e-05
1.3435135505512365e-05
1.3424289110493287469e-05
1.3422328484612142027e-05
1.3442156507827212071e-05
1.3474610112302374632e-05
1.3496631361018069994e-05
1.3523286813043844222e-05
1.3580177545147776948e-05
1.3713810484772461239e-05
3.0236787917650452718e-05
3.0382865439267174286e-05
3.0567514397669906935e-05
3.0823299325135383102e-05
3.1145793263378928489e-05
3.1480617342499796229e-05
3.1776335176854318145e-05
3.1964532552321849479e-05
3.2033821618072469699e-05
3.202437928089210418e-05
3.1985935736705913728e-05
3.1895639062204297204e-05
3.1670079113215022875e-05
3.1451255704832254908e-05
3.1312442525779469614e-05
3.1255189701984967179e-05
3.1237852388704527313e-05
3.1249947731502432879e-05
3.1355499945007715636e-05
3.1533711699559120018e-05
3.1672688552626371533e-05
3.1779219229586478778e-05
3.1887205393990432031e-05
3.2028442879871331839e-05
3.2226798242428075737e-05
3.2470872442048359684e-05
3.2729427700253324357e-05
3.2961519832262554171e-05
6.3046404445322900742e-05
6.3148119091585672592e-05
6.3251517674813180752e-05
6.3365878742408442929e-05
6.3479508715846716675e-05
6.3575148820146757962e-05
6.3620227732107454311e-05
6.3610754254720674604e-05
6.3566289768034309107e-05
6.3503628134623719731e-05
6.3391892433872003786e-05
6.3199695199116998892e-05
6.3034205778263156122e-05
6.2907649723973135618e-05
6.2827203300475914093e-05
6.2782296725593541545e-05
6.2756915758919846701e-05
6.2794364135380711391e-05
6.2881788968592114701e-05
6.2950172496338934456e-05
6.3006704085471809717e-05
6.3052704779788747678e-05
6.3091513221790460671e-05
6.3119792556531366325e-05
6.3128344833403594589e-05
6.3108572250106709147e-05
6.3070406295351926699e-05
6.3022912502871042059e-05
6.2959666503805412061e-05
6.2862763103324069999e-05
9.1988742003106554915e-05
9.1805183434178551675e-05
9.1618131739455691454e-05
9.1420549633297685382e-05
9.1203871987529465371e-05
9.0962320606637376446e-05
9.0695429362343122346e-05
9.0409069146105638004e-05
9.0115019902094770175e-05
8.9829216354331514575e-05
8.9567480941103543284e-05
8.9340355436160344047e-05
8.9149243776355597733e-05
8.8985823957601084826e-05
8.8835495260405466502e-05
8.8684846870529357487e-05
8.8525684589105805471e-05
8.8355855559162432898e-05
8.8177859787107903304e-05
8.7995957895619758126e-05
8.7813192211114423562e-05
8.7628686970581638944e-05
8.743807569913009559e-05
8.7234741193451122935e-05
8.701352389883618046e-05
8.6772818844921530894e-05
8.6515150903505790448e-05
8.624741301696890836e-05
8.5978662470122930138e-05
8.571900712316327586e-05
8.5476080756035531993e-05
8.5255548953650598927e-05
0.0001057849350651862393
0.0001054559211540980531
0.00010512821307906570405
0.00010479946318632997286
0.00010446976269154593811
0.00010414228208397470217
0.00010382135855127446681
0.00010350938595748153837
0.00010320604300559086991
0.00010291109753212139468
0.00010262521426221474219
0.00010234831854623179469
0.00010207774287397607094
0.00010180868838509003153
0.00010153694981154703816
0.00010126129355226084648
0.00010098376603733254415
0.00010070753149257003075
0.00010043547773708509045
0.00010016899177256752089
9.990758532566820099e-05
9.9649070089377546778e-05
9.9390770424894909758e-05
9.9131286760675355594e-05
9.8871098014101916718e-05
9.8613080850797342719e-05
9.8360666972144506414e-05
9.8116677069961667876e-05
9.788136382516661536e-05
9.7654442454453470671e-05
9.7433700469568200009e-05
9.721766713474181928e-05
9.7003989016042287174e-05
0.00014034554390163848903
0.00013952637643210277947
0.00013871091983854198304
0.00013790316860869613496
0.00013711542911929689055
0.00013635523374569836607
0.00011085349441209061782
0.00011052534728621621297
0.00011020282308028461955
0.00010988256119351983927
0.0001095640507315774506
0.0001092500168505467547
0.00010894353591071024873
0.00010864529766070401499
0.00010835435386360207585
0.00010807011268744566525
0.00010779355064162465284
0.00010752521849388422463
0.00010726261814023085926
0.00010700122370452982263
0.00010673756318570964757
0.00010647132081518040163
0.00010620483122748083677
0.00010594186027892235245
0.0001056860733283518448
0.00010543960531498007018
0.00010520253068698178574
0.00010497203025732833759
0.00010474371013868307009
0.00010451404180468737957
0.00010428215957717727996
0.00010404991640408472987
0.00010382021983956883648
0.00010359611256590822985
0.00010337919042069418742
0.00010316992551752664589
0.00010296619645265517198
0.00010276620967501373216
0.00010256799251763757124
0.00010237101356933486426
0.00013510334855225378833
0.00013428437863983997184
0.00013345271348658456077
0.00013263506563193584644
0.0001318645591438756602
0.00013115559173366384558
0.00013048952697564922439
0.00010646085929809679673
0.0001061745605853516071
0.00010588484449200610089
0.0001055941852053255553
0.00010530983084064228831
0.00010503919370939950864
0.00010478400704120646302
0.00010454087579143482827
0.00010430533353460400025
0.00010407507264271144876
0.00010384807477613508498
0.00010362016204094443809
0.00010338593220980464322
0.00010314332613875430689
0.00010289769098906442974
0.00010265891570129330706
0.00010243702816246177836
0.00010223772412464883757
0.00010205981359462311625
0.00010189620367904491792
0.00010173651863124636406
0.00010157161542677073634
0.00010139733501446155761
0.00010121739026107477548
0.0001010409174653572619
0.00010087767173738963354
0.00010073373181170818251
0.00010060893335776841613
0.00010049801434347856589
0.00010039343995552692419
0.00010028894250045878103
0.00010017938660418722579
0.00010006516784892819543
9.9947321939405605381e-05
9.9827384328484555982e-05
1.0163921150253997455e-07
1.0152697910615200503e-07
1.0141255867449987414e-07
1.0131177326609189113e-07
1.0121027712567699483e-07
1.0112646825301422591e-07
1.0104353931069107295e-07
1.0096681911452533821e-07
1.0088385455668987059e-07
1.0079270993666257026e-07
1.0065889000852762291e-07
1.486493219282960616e-06
1.4843948238243869837e-06
1.4668728455231626495e-06
1.4043492139593985937e-06
1.3414717506491503835e-06
1.3080089752895731008e-06
1.2966319576831373555e-06
1.2957778336896109218e-06
1.3041634444766537081e-06
1.3433834048567732596e-06
1.3909824695967892805e-06
1.4146886052418866092e-06
1.4198164748802300597e-06
1.4165834926854145721e-06
1.3972572900597412561e-06
1.3691874963218091143e-06
1.3603198034169941819e-06
1.3630221894352263185e-06
1.3940545207253046818e-06
1.5220750095957490647e-06
1.7017124590067939807e-06
1.8075083409480594443e-06
1.8533355007953160066e-06
1.8625539479331934395e-06
1.8590054452066246502e-06
1.8490450197894918162e-06
1.8471709347627793106e-06
1.861312484774164655e-06
1.9433755903660462071e-06
2.1102068705104485991e-06
2.2086420401345981392e-06
2.2424753113756591496e-06
2.2423759602638795112e-06
2.2209551855428718404e-06
2.160842898859001201e-06
2.1312685152814509021e-06
1.0911577602270588667e-07
1.0887037551116596588e-07
1.0863731573281711861e-07
1.0842338723093484282e-07
1.0823287802391017302e-07
1.0807472033211662579e-07
1.079329221843292447e-07
1.0780703226028114529e-07
1.0768672460918556106e-07
1.0756511352981293805e-07
1.0744234416104353602e-07
1.0731931579713644738e-07
1.0720820014219065366e-07
1.0710928800079911827e-07
1.0700148013523243693e-07
1.0689948327524093587e-07
1.0677608932439313908e-07
1.0667691508900011318e-07
1.0655997544148663288e-07
1.0645999895962167278e-07
1.0631754367280553206e-07
1.526818579867655119e-06
1.5236714395106924328e-06
1.5022367139327754173e-06
1.4334500600756612384e-06