/*--------------------------------*- C++ -*----------------------------------*\
  =========                 |
  \\      /  F ield         | OpenFOAM: The Open Source CFD Toolbox
   \\    /   O peration     | Website:  https://openfoam.org
    \\  /    A nd           | Version:  12
     \\/     M anipulation  |
\*---------------------------------------------------------------------------*/
FoamFile
{
    format      ascii;
    class       volScalarField;
    location    "0.0089";
    object      p_0;
}
// * * * * * * * * * * * * * * * * * * * * * * * * * * * * * * * * * * * * * //

dimensions      [1 -1 -2 0 0 0 0];

internalField   nonuniform List<scalar> 
106891
(
100508.31932837578643
100520.01660847196763
100535.1443714901834
100552.51593448364292
100570.47857222857419
100587.18938625376904
100600.85113825829467
100609.95073173718993
100613.39662602351746
100610.88681516924407
100602.35168147501827
100717.05580425600056
100731.80178423030884
100746.66720398922917
100759.21097896929132
100767.0113161784102
100768.78835626829823
100764.57812430051854
100755.73291928516119
100744.80107770163158
100735.02281178098929
100727.95968555162835
100723.74519358831458
100721.85861260257661
100721.5222293225961
100721.09171792154666
100719.09250310057541
100714.31509453355102
100707.30655230062257
100700.7933059696079
100697.90893175208475
100699.79008990307921
100703.40069566767488
100702.19925252808025
100691.16966200644674
100669.15306904337194
100640.63425680006912
100612.52667351675336
100591.1700642882206
100579.20492205940536
100575.63899121760915
100577.25397126605094
100581.29233617249702
100586.06566748561454
100590.90188893972663
100595.00267274546786
100597.30013342906022
100597.80906144132314
100598.3717986929405
100531.60442600847455
100535.68601858810871
100538.25064211073914
100539.17394568247255
100538.81959249656938
100538.00417523301439
100537.87462649261579
100539.63049378548749
100544.22732867700688
100552.16427319817012
100563.37240273314819
100577.22661441573291
100592.67539735573519
100608.3809156762145
100622.88239886202791
100634.77326395142882
100642.88266182804364
100646.28475632933259
100644.66491314700397
100637.66867113931221
100716.04412116578897
100729.12048282606702
100739.96574210526887
100746.87276479536376
100748.54801698494703
100745.7304221514205
100740.63647427082469
100735.72200870746747
100732.4617374916852
100729.93600846896879
100725.82783044296957
100719.31563395584817
100711.48802445834735
100703.47187455826497
100695.25818857614649
100685.80926492951403
100675.04887326831522
100664.9888521637622
100659.70142041887448
100661.70199617506296
100668.36762455967255
100672.61038368780282
100666.89387822698336
100648.80207062524278
100621.97692513628863
100594.03444152793963
100572.3028369598178
100560.44725053526054
100557.87483353725111
100561.71517351690272
100568.44446540037461
100575.75137181591708
100581.8734578199219
100585.27849037641136
100584.76157158876595
100580.61843971157214
100570.31338927079923
100575.18876870922395
100578.8774160969333
100581.16109768455499
100582.26967112530838
100582.90730642616109
100584.05292656259553
100586.69908455676341
100591.60383167260443
100599.10057623767352
100609.03155630170659
100620.82096633967012
100633.60728271494736
100646.35643900292052
100657.99272799758182
100667.5485824150237
100674.28222802374512
100677.54195766849443
100677.12274422709015
100672.56723508222785
100694.5050737746933
100704.28384968019964
100713.66410283460573
100720.65968021919252
100724.0134985288023
100724.48561456217431
100725.04757517362304
100727.51447796380671
100731.41780475933047
100733.46143131640565
100729.69692937050422
100718.91294058442872
100703.46489286144788
100686.52784018365492
100670.0985958759411
100654.33842717355583
100639.16421516220726
100626.37104051587812
100619.86085702515265
100622.18002990128298
100630.82932988130779
100638.29446045914665
100636.2653809114272
100621.65964510067715
100597.79986179992557
100572.25890595585224
100552.45805244047369
100542.54509884843719
100542.17017106366984
100548.82687280591927
100559.00121993845096
100569.31492959152092
100576.76312735679676
100578.92812961862364
100574.58773592892976
100564.70463220347301
100614.9188408087648
100620.24005100443901
100624.53582755407842
100627.70182210385974
100630.09057080133061
100632.38377648017195
100635.32101606130891
100639.51523595636536
100645.32781144426554
100652.7589062127081
100661.4704656896356
100670.88023880378751
100680.28246906521963
100688.96436040011758
100696.30351191772206
100701.8686312900536
100705.24641566399077
100706.41531812712492
100704.95246177863737
100670.57897539963597
100678.37680000686669
100686.99258895020466
100695.26049067389977
100703.24881675039069
100712.43957277206937
100723.38433331716806
100733.67754721728852
100738.35803698613017
100733.49908229833818
100718.19918288904591
100695.39788033960212
100669.46868633311533
100644.33402299568115
100621.80649169713433
100602.59743106839596
100588.7647160118504
100582.94622416827769
100586.03087401480298
100594.84157404523285
100602.05093653434596
100600.63711100743967
100588.14993203699123
100568.04697282634152
100547.17208777218184
100532.05533977909363
100526.2211227347434
100529.54072265131981
100539.80057652643882
100553.46637927579286
100566.32538300474698
100574.17226671539538
100573.92193895175296
100564.73287406894087
100647.88782987980812
100655.07818082573067
100662.32586758762773
100668.94328301017231
100674.37883206509287
100678.3981919446378
100681.21011518212617
100683.39251436441555
100685.600860034785
100688.35427181789419
100691.98095840518363
100696.59916656755377
100702.07782566192327
100708.08948115661042
100714.22593764177873
100720.05445246209274
100725.22807174871559
100729.3733333156124
100732.54951803490985
100734.39492757938569
100629.43527180336241
100635.46444919370697
100648.15460385676124
100665.30633277958259
100684.91074643685715
100705.31812589647598
100724.53686950272822
100738.59374311573629
100742.52966184454272
100733.64598298860074
100712.62197566397663
100683.32151582559163
100650.51463705823699
100618.96600868551468
100591.37174483356648
100570.09754227267695
100556.9106463091739
100552.65225965922582
100555.98114202392753
100562.58960609966016
100566.44654508570966
100562.78509532337193
100551.30168979683367
100535.60220269300044
100521.56315481047204
100513.61832775812945
100513.90757331866189
100521.72566733203712
100535.17299056398042
100550.97174272264238
100564.21436248447571
100570.40614613624348
100566.24342152618919
100696.05233123844664
100705.27843545124051
100714.12343366997084
100721.53418204613263
100726.69923948202631
100729.29964077219483
100729.62307991838316
100728.45088882978598
100726.7614896423911
100725.47615195991239
100725.30163975745381
100726.66470494259556
100729.6925615145301
100734.22930687488406
100739.86274035176029
100746.10372021308285
100752.32920433989784
100758.33567336424312
100763.66961999706109
100593.77028167824028
100611.24893842215533
100638.32268348732032
100670.20956718924572
100701.56864269863581
100726.9724164721265
100741.04478571741492
100740.57948444946669
100725.29896441636083
100698.44986839535704
100664.89497026782192
100629.85359822052123
100596.83411781270115
100568.34528085764032
100547.19118559551134
100534.87209222829551
100531.14125386986416
100532.80599052424077
100535.15329137568187
100534.07765043344989
100527.7823005226528
100517.73763209440222
100507.65482757730933
100501.63476939873362
100501.89258049271302
100508.51592270888796
100520.2943292807031
100534.95573787101603
100549.22091996496601
100558.9235067594127
100560.33786083527957
100551.78222225353238
100735.65365588234272
100746.62552217188932
100757.38654222196783
100766.44705976251862
100772.51607910101302
100774.79803863703273
100773.23121278981853
100768.56031357907341
100762.15655265255191
100755.66059358112398
100750.56243816728238
100747.95265524338174
100748.44514497760974
100752.13510624160699
100758.57182464204379
100767.01895438937936
100776.4854729041981
100786.28995670660515
100795.61401356042188
100586.88624620869814
100619.5106364130188
100658.82810430167592
100695.96115646016551
100722.93494513106998
100733.65340755828947
100726.82778151510865
100705.12347272608895
100674.55241353949532
100641.15478055129643
100609.67705980672326
100581.72701757815958
100557.99023552778817
100538.81156339272275
100525.39413651586801
100518.17567451979266
100514.99229090297013
100512.37605396498111
100507.86205840966431
100501.53327025254839
100495.49402147851652
100492.39631697784353
100494.07878996065119
100501.1810271666327
100512.27448094816646
100525.23085218366759
100537.0283538094518
100545.03244666743558
100546.91757681200397
100541.16671380812477
100782.97589306641021
100795.32869989343453
100806.06051614973694
100813.427921320108
100816.21738247094618
100814.01653969699692
100807.35643197828904
100797.66041764883266
100786.96442808791471
100777.46011855457618
100771.04734931903658
100768.99487700706231
100771.78048641813803
100779.09147091674095
100790.0545631335699
100803.26231635117438
100817.37335927177628
100830.98056129387987
100615.74371233765851
100652.06547678151401
100685.50515788357006
100707.29580745816929
100711.74800315106404
100698.39275333582191
100672.52317225119623
100642.36335272599536
100615.17154862653115
100594.27077286568237
100578.0805585605267
100562.87663440222968
100546.28656965127448
100529.15632188541349
100513.99118745433225
100503.05281095732062
100496.15126065182267
100492.02049737947527
100489.72914620545635
100490.16689772592508
100493.62793648321531
100501.19783937043394
100512.20244537710096
100524.26930514429114
100534.49214841655339
100539.3899997198605
100537.31030818582803
100528.46829455763509
100810.32597623068432
100823.83927564290934
100836.40096487988194
100845.89640684564074
100850.65092766621092
100849.81030502116482
100843.53504171510576
100833.03778929525288
100820.36047570948722
100808.02530002167623
100798.55775730767346
100793.94108060203143
100795.28997805135441
100802.70153724114061
100815.36976306776342
100831.62356316647492
100849.51195592503063
100866.95685721180052
100654.1010810591979
100672.90089532011189
100681.58830706684967
100676.16398017747269
100657.28915734714246
100631.64183711969235
100608.25067482428858
100593.61503568272747
100587.85389463434694
100586.24403871055983
100580.74875940359198
100566.64477820802131
100544.93727866545669
100521.77728858687624
100503.9252069057693
100494.9628291202971
100493.89775159528654
100497.8392301670101
100503.57574894670688
100511.02970152063062
100520.18105149816256
100530.76951680198545
100540.50322716150549
100545.42743879338377
100542.04307366255671
100529.62802912738698
100510.39771639836545
100840.47870265600795
100854.62561766378349
100866.4098417586647
100873.8299953587557
100875.59193259707536
100871.46521707897773
100862.32243291956547
100850.02326176314091
100837.10011453279003
100826.25984699450783
100819.90956521920452
100819.73141414763813
100826.32397759024752
100839.18744561278436
100856.72652573975211
100876.65760747921013
100896.4691101743374
100667.11230716783029
100668.80541009212902
100665.15767771191895
100654.43486515173572
100636.27647788808099
100613.67394626679015
100593.20899852090224
100581.45645706393407
100581.52321188100905
100591.19528869978967
100601.65876401732385
100603.97837003480527
100593.21912244422128
100571.51735657906102
100546.64854698680574
100527.46958874285338
100518.97579691499413
100519.76616393438599
100525.49752317481034
100531.80994884743995
100538.12187462385918
100544.89804746353184
100552.27370599444839
100558.56227814899466
100559.0064346697327
100550.17076440558594
100530.7330954203353
100860.77118288147904
100873.11431334108056
100881.43123042852676
100884.53970306355041
100882.10303996151197
100874.79035335338267
100864.20275128231151
100852.57822417734133
100842.42828474131238
100836.13093798267073
100835.50867043578182
100841.40152286936063
100853.54210455370776
100870.55649446303141
100890.17079949687468
100909.89756052521989
100701.29934411574504
100688.75368426060595
100668.19828513971879
100642.33967247224064
100615.17940254358109
100591.27804595795169
100575.27625972336682
100570.83875249844277
100579.12946786425891
100596.11887025131728
100613.02159161919553
100621.64094055851456
100617.22936763957841
100601.87340776168276
100582.0945634910895
100566.10268186456233
100558.36621053128329
100558.51093712591683
100562.15775500955351
100565.94995227112668
100568.45836023807351
100571.11477085786464
100574.69897935487097
100577.74636529348209
100576.53726636392821
100566.90655649133259
100546.68999149782758
100519.61979251571756
100865.82878317548602
100871.99983206173056
100873.36068925407017
100870.04069025845092
100862.96860011653916
100853.67552787420573
100844.04408487735782
100836.0622751681949
100831.55180037634273
100831.88121437701921
100837.66231291589793
100848.68266632074665
100863.86314688101993
100881.27785553086142
100898.92402825324098
100699.389425425019
100672.30027943800087
100641.78025130901369
100612.94319232962152
100590.173900723923
100575.90207981325511
100572.96413286040479
100581.69787619974522
100598.92937878750672
100618.42127173028712
100632.66252471548796
100636.37999902962474
100629.27190783846891
100615.91195213817991
100602.8880614098598
100595.0304851703404
100593.30713382939575
100595.11806720682944
100597.03861745011818
100597.33868353237631
100597.09381566007505
100597.80385553449742
100599.11314762312395
100598.02009739058849
100589.44071436517697
100571.14717970072525
100544.16556207182293
100853.96624429922667
100852.57169462298043
100847.52368813108478
100840.05886681846459
100831.65008121042047
100823.8606911762763
100818.17195583983266
100815.75726829300402
100817.34165196694084
100823.12556949722057
100832.82067411889147
100845.62666956483736
100860.14138223843474
100875.05173039682268
100674.76778942959209
100648.6708039726509
100625.15878634151886
100606.04148216944304
100592.13628557516495
100585.1997639650217
100587.73288961572689
100600.13811782830453
100619.4165840837959
100638.9600105478894
100651.56652072170982
100653.45314738768502
100646.70572648759116
100636.35928614213481
100627.65886057986063
100623.72850032473798
100624.09863783112087
100625.52421501959907
100625.74864079467079
100625.16948414110811
100625.28815921128262
100626.50637196672324
100626.30243085445545
100619.63416716257052
100603.16807197738672
100577.5642522857961
100824.73074693619856
100817.82539693526633
100809.73091061267769
100802.00210406423139
100795.97328610147815
100792.53426137260976
100792.07963875462883
100794.67407312199066
100800.13685600062308
100808.09122126008151
100818.03283590968931
100829.16349466893007
100840.92266096929961
100658.62311876819876
100645.57063531604945
100632.49825031815271
100618.2349929780903
100604.54415225968114
100597.28433013742324
100601.3392581652879
100617.63838504470186
100640.37663313516532
100660.45108476860332
100670.9741466739506
100670.51564206795592
100662.77327617815172
100653.99397004419006
100649.15232676622691
100649.12067308473343
100651.51759487911477
100653.5966632389318
100654.84537145422655
100656.60083823662717
100659.23504451503686
100660.44577023493184
100655.33604933698371
100640.24992393059074
100615.54290975254844
100785.27746564142581
100776.93385540034797
100769.9612917756458
100765.4009330298577
100763.63207309137215
100764.48751658057154
100767.51192097880994
100772.16471397862188
100778.00964260456385
100784.85225276413257
100792.47930027030816
100800.99384058220312
100667.64282091557106
100661.78315399734129
100647.41164494382974
100627.40296801540535
100610.35464861853688
100605.52651069841522
100616.67049681376375
100639.18654354961473
100663.26123942444974
100679.9164614406327
100685.12402902456233
100681.32314245971793
100674.85199541662587
100671.18736497362261
100671.88570510513091
100675.61372829947504
100680.06950383422372
100684.45953226053098
100689.64581913773145
100694.96110434924776
100697.79986873769667
100693.70072266682109
100679.37366035689774
100654.82495645944437
100687.13724339545297
100673.74384603687213
100649.94457016354136
100626.18844794908364
100614.29284391182591
100619.20398108316294
100637.83692807995249
100661.6876182944543
100681.18111268652137
100691.47212152398424
100693.65373041258135
100692.2273080918676
100691.7583221889945
100694.05604738477268
100698.93832279916387
100705.58201365396963
100713.42482736996317
100722.11879409619723
100730.35276765732851
100734.62082792383444
100731.00266898395785
100716.63003642141121
100692.40692449911148
100669.89229118438379
100644.12239692737057
100627.77606828373973
100626.60414727560419
100639.3255318836018
100659.22368349884346
100678.83973691225401
100693.6154759364581
100702.5747082834132
100707.90619166071701
100711.92053556682367
100716.54141955668456
100722.56298106210306
100730.89498470723629
100741.21029698238999
100752.49948087352095
100762.48603246807761
100767.31283474180964
100763.96717224696476
100750.17871450986422
100727.14632875776442
100644.95440405131376
100659.61611720250221
100677.90676139724383
100695.6313940884429
100710.78402522337274
100722.61086553552013
100731.59787418427004
100738.85898496786831
100746.40564345232269
100755.65759165446798
100767.0472569357662
100779.16809478845971
100789.17237219439994
100793.89312905719271
100790.60587556166865
100778.39154414527002
100758.06845971307484
100720.65966601850232
100737.3678992397472
100750.1041008009779
100759.76120889381855
100768.56943867597147
100778.47884937173512
100789.8849234184745
100801.14903752012469
100809.77852474268002
100813.51053420575045
100810.65562771786063
100800.94010628480464
100784.8422906951746
100753.23992004763568
100767.91956583088904
100778.81334921225789
100788.22616948260111
100798.25498400152719
100808.72430656994402
100818.14394253732462
100824.61174511663557
100826.91434206109261
100824.92528432930703
100818.70399463368813
100807.98048552546243
100676.63669434261101
100682.96045253709599
100695.85825475788442
100709.5813912924641
100719.94880575683783
100725.9281376664585
100729.74879718713055
100731.86422336712712
100729.58343701946433
100718.73692549584666
100698.14492602959217
100673.17596262706502
100654.67088904457341
100651.22871449416562
100662.91001958743436
100680.10569969179051
100689.78720907989191
100684.54584294825327
100666.43685909171472
100644.01579530329036
100680.97504147070867
100677.50255192615441
100683.47038168775907
100695.85423521031043
100709.84669052877871
100722.45685456212959
100732.62224565193173
100740.54201682329585
100744.45885190913395
100740.10210826540424
100724.49487480559037
100699.26013832596072
100671.3207007720921
100651.53868820630305
100648.19853610197606
100660.65030183784256
100678.81051954418945
100689.40480391967867
100684.59825952770188
100665.64161055654404
100641.06526095409936
100621.72826232886291
100702.60920421266928
100693.28770295622235
100682.30719515909732
100678.26396478500101
100683.74720283735951
100695.49003953502688
100709.69272962400282
100724.07483704673359
100738.48256827722071
100750.34573584407917
100756.0349852173531
100749.72890258840926
100729.63426912316936
100699.71535088295059
100669.01590039166331
100648.05625449138461
100645.01919050686411
100658.42962373548653
100677.82966527658573
100689.59250569043797
100685.24270040282863
100665.43084983562585
100638.76061329916411
100616.30660090468882
100606.31984186264162
100610.93946665586554
100703.41576009495475
100704.8588468702219
100695.05303393810755
100683.35317435835896
100678.79165963330888
100683.78745111271564
100694.87727793054364
100709.01043258632126
100725.37443964599515
100743.30219842509541
100759.28884068105253
100766.54489173088223
100758.34905964750214
100734.08429478218022
100699.88544480150449
100666.17697319273429
100644.32970707210188
100641.72014270145155
100656.28073695387866
100677.15007623261772
100690.29071402126283
100686.36175154127704
100665.61652681868873
100636.92295459831075
100611.61452655238099
100598.68909529926896
100601.34604820274399
100616.74570444399433
100690.27894700766774
100705.1641824379185
100706.89426906438894
100696.61245714550023
100684.12890612034244
100679.22166295746865
100683.7054027976119
100694.13841942504223
100708.04400035539584
100726.11031772507704
100747.44114784213889
100767.2065760386904
100775.65147652842279
100765.89822644673404
100737.86378269930719
100699.62700001675694
100663.31015777238645
100640.64139628852718
100638.39322477103269
100654.32077915011905
100676.79104266274953
100691.39800174835545
100687.86560868144443
100666.24212377627555
100635.49080145433254
100607.59975905517058
100592.07815553453111
100593.01623091900547
100608.38010907985154
100631.05100268365641
100671.38464934314834
100691.12109895994945
100706.69430273061153
100708.73317245855287
100697.77797032984381
100684.63710037557757
100679.21605214485317
100683.42385010917496
100693.30110734816117
100706.8929371748527
100726.23222895797517
100750.90781508185319
100773.76200013721245
100783.86000751354732
100772.48145955757354
100741.00790832214989
100699.01664907223312
100660.39286947486107
100636.78504544605676
100635.13358105323277
100652.51951917241968
100676.767886831949
100692.73331020082696
100689.6179839456745
100667.01505298553093
100634.23952654525056
100603.89695400898927
100586.17964283337642
100585.97851961244305
100601.45638809572847
100625.39422522322275
100649.72328825329896
100671.72231980018842
100691.74193498729437
100707.95923587439756
100710.2565971770382
100698.74002116397605
100684.94451088366623
100679.13014849253523
100683.16654278502392
100692.56039456337749
100705.78568432829343
100726.09196965397859
100753.33201179526804
100779.1187354613794
100790.10542800360417
100777.66484636071254
100743.37274917037576
100698.43295263784239
100657.64460285200039
100633.57788248927682
100632.31769188193721
100650.98683650420571
100676.97815438696125
100694.11809961844119
100691.37901695119217
100667.99350071165827
100633.47054883088276
100600.94655988595332
100581.54994009796064
100580.46365110392799
100595.99172541969165
100621.04122726026981
100647.24740117014153
100668.84979820848093
100548.62052080266585
100562.37166544489446
100532.48103384241404
100482.70844609358755
100457.42500769466278
100480.5753270273417
100671.80077050569525
100692.15054156584665
100708.91482054743392
100711.32035244256258
100699.42541106800491
100684.96973904214974
100678.93255826845416
100682.87845378374914
100691.93131096886646
100704.99668166303309
100725.80890719588206
100755.03121866706351
100782.98866565733624
100794.77167614210339
100781.40961272854474
100745.08066481706919
100697.83001484468696
100655.48542076960439
100631.00978077424224
100630.15638572195894
100649.83353043020179
100677.22356887294154
100695.30329042956873
100692.84541479426844
100668.86814884121122
100632.82692284535733
100598.8143249808345
100578.23108198473346
100576.50695556990104
100592.25768397180946
100618.21922319356236
100645.69547956173483
100668.52928274722944
100686.52810526342364
100503.77673939039232
100549.67090848869702
100562.94931964480202
100531.68531518492091
100480.29981024152949
100455.01152191878646
100479.70951639022678
100671.80117272589996
100692.40328231619787
100709.50505165700451
100711.88294443416817
100699.81490181911795
100684.9010143270134
100678.79966332805634
100682.70597312755126
100691.57077011138608
100704.54724321649701
100725.58170683665958
100755.84199313272256
100785.00918376803747
100797.12489808429382
100783.42703917545441
100745.9234825642634
100697.36377273887047
100654.19191310057067
100629.51797698317387
100628.97098913832451
100649.25538577680709
100677.47088521659316
100696.1863540748891
100693.68361531155824
100669.34580720543454
100632.54013291216688
100597.62072945282853
100576.37835597767844
100574.44692072513863
100590.41478077288775
100616.85895738977706
100644.95264215827046
100668.39580568566453
100686.75909770498401
100705.178702368823
100496.6295524960442
100483.65799713105662
100472.53083470766433
100464.88907920128258
100461.95830179624318
100464.43125822680304
100472.43509324092884
100485.60889671948098
100503.08719175717852
100523.8908468906593
100546.38723049280816
100721.45705569317215
100723.1491554344102
100727.23220746590232
100734.33267159141542
100743.66306159966916
100753.7149902935198
100762.87357830253313
100770.31996563613939
100775.25395270517038
100776.90536121568584
100773.92238054423069
100764.43085323636478
100746.91177433761186
100721.72475389140891
100691.8884922099096
100663.08155662247736
100641.73181257171382
100631.41516622876225
100631.30333234327554
100636.88844684851938
100643.02360235556262
100646.78199461470649
100647.60709734000557
100646.54919110152696
100644.47444105095929
100640.98624496872071
100635.44744465471013
100627.12431073120388
100615.46569947563694
100600.23712063483254
100581.60928619964398
100560.39164459619496
100539.11825663612399
100522.08911800355418
100514.72377934372344
100520.56131016457221
100518.63934111745039
100529.63564036694879
100541.34798680299718
100552.70405496313469
100562.32059228229627
100568.7573611940752
100570.86125330654613
100568.08360689747497
100560.6648913451063
100549.63534816048923
100536.68174296616053
100523.88719346994185
100513.35968410629721
100506.86584011749073
100505.57493925167364
100509.93940700827807
100519.72153885228909
100534.1794996009703
100552.12746741960291
100572.42744799128559
100593.46071364371164
100725.8529931804369
100717.92347763026191
100712.19275263122108
100712.49828835343942
100718.52451989066321
100727.95461735474237
100737.63988706206146
100745.33579600787198
100749.60362314751546
100749.72916712058941
100745.12761501838395
100734.98221389784885
100719.04561034461949
100697.95283132744953
100673.79080710779817
100650.6215115996456
100633.32143386702228
100625.18861607561121
100625.86206851266616
100631.65131381292304
100637.5160499526246
100639.77105761409621
100636.95532932394417
100630.21988131316903
100621.50977930687077
100612.80641210731119
100605.03795099284616
100597.69641222360951
100589.14667975134216
100577.86881061112217
100562.09023012618127
100542.25901126912504
100521.06435412788414
100504.24884576846671
100497.80281608339283
100505.68423761110171
100540.6436754657625
100553.00589150424639
100567.20083743907162
100581.83796458711731
100595.13408265530597
100605.23100926745974
100610.62637732004805
100610.56376920304319
100605.24353777512442
100595.80545057628478
100584.11995478573954
100572.44901170027151
100563.03501009830507
100557.71804937366687
100557.6294432588038
100563.08059500303352
100573.61957825951686
100588.27696847177867
100605.69179395292304
100624.68993138438964
100643.77399183345551
100714.66500579228159
100699.19649389928964
100691.50649615217117
100692.75769486573699
100700.51103060413152
100710.54030887557019
100718.85564206825802
100722.69190855923807
100720.73332963345456
100713.20774166568299
100701.20048268329992
100686.20273031549004
100669.26264855638146
100651.78034558793297
100635.42202559493307
100622.74398981919512
100616.51321967873082
100617.38181704904127
100623.62444428011077
100630.89276490695192
100633.83135975610639
100629.76938872835308
100618.5844872478192
100603.02349328984565
100587.27746842354827
100574.62361064802099
100565.84868601959897
100558.94236667083169
100550.25391648383811
100536.6236408452678
100517.98945616131823
100497.86392147871084
100482.78893644486379
100479.27382296641008
100574.67259030208515
100590.83724109832838
100608.56183493428398
100625.77651999267982
100640.29650496652175
100650.25754654797493
100654.55763519548054
100653.14172731687722
100647.00577733539103
100637.9515933431685
100628.22235477891809
100620.07722799215117
100615.41475217421248
100615.44629579670436
100620.55169133152231
100630.32296897468041
100643.83139914923231
100659.74216911519761
100676.90459140266466
100693.92137549186009
100714.06118890139624
100690.69184546091128
100675.02989009588782
100669.61427941243164
100672.98018639179645
100681.03567659473629
100688.96958976720634
100692.12798062757065
100688.39144333741569
100677.98171042259492
100664.39113104503485
100650.44734381095623
100637.84777294994274
100626.89261601144972
100617.21636993912398
100609.15503353370877
100604.38454345258651
100605.08929703861941
100611.69306428205164
100620.91398940414365
100626.69991147614201
100623.99675596626184
100610.27153143598116
100588.57740286720218
100564.99384975827707
100545.27114174290909
100532.25300871078798
100524.43254762880679
100516.8723719909467
100505.38359885617683
100489.46548079367494
100473.20694917201763
100462.92827089798811
100464.63416768994648
100595.80793345045822
100612.41429632967629
100632.01321019025636
100652.47997341617884
100671.45469843651517
100686.76167057997372
100696.84797499321576
100701.136450613747
100700.13651394916815
100695.24949121600366
100688.43370844745368
100681.81655569748546
100677.32514441400417
100676.37846384107252
100679.68518304204918
100687.17762855668843
100698.21213617378089
100711.65826794689929
100726.46203437205986
100741.29933035954309
100687.80144095962169
100665.5304811965616
100651.69721688605205
100646.70550892477331
100648.69689417569316
100653.66087322877138
100656.17029236222152
100652.18046003197378
100641.62046755020856
100628.32149408633995
100616.35746924691193
100607.81157893696218
100602.05826900443935
100597.31515466001292
100592.24928386279498
100588.27752250645426
100588.54591067502042
100594.97979906294495
100605.98886716327979
100615.37602436258749
100615.18768396408996
100601.33638383426296
100575.61705860243819
100545.01256355845544
100517.97331398224924
100499.3761624708859
100488.71812629418855
100481.48855598238879
100473.44111786509166
100463.42279236445029
100454.24336279550334
100451.30975280499842
100634.39967938998598
100653.74116690085793
100675.6362477245857
100697.80258107604459
100717.85957958154904
100733.80308076807705
100744.39874815403891
100749.42038137963391
100749.63353123914567
100746.51862227614038
100741.95111041558266
100737.8775911538105