/*--------------------------------*- C++ -*----------------------------------*\
  =========                 |
  \\      /  F ield         | OpenFOAM: The Open Source CFD Toolbox
   \\    /   O peration     | Website:  https://openfoam.org
    \\  /    A nd           | Version:  12
     \\/     M anipulation  |
\*---------------------------------------------------------------------------*/
FoamFile
{
    format      ascii;
    class       volScalarField;
    location    "0.0089";
    object      pPrime2Mean;
}
// * * * * * * * * * * * * * * * * * * * * * * * * * * * * * * * * * * * * * //

dimensions      [2 -2 -4 0 0 0 0];

internalField   nonuniform List<scalar> 
106891
(
484410.97449493408203
484030.87267684936523
483634.75899124145508
483221.00728416442871
482793.95046615600586
482358.05852890014648
481922.42830657958984
481489.36837196350098
481065.08935737609863
480650.78459358215332
480239.63644599914551
710513.70230674743652
709520.14988136291504
708534.65052604675293
707552.09152793884277
706567.88264083862305
705579.75550079345703
704589.44655418395996
703601.09663772583008
702619.39112854003906
701648.12393760681152
700688.09629440307617
699735.98462677001953
698787.04081726074219
697838.53512001037598
696889.81415176391602
695939.63727951049805
694987.02229499816895
694032.33584785461426
693075.31125640869141
692113.83135795593262
691143.97747802734375
690161.93787002563477
689168.04658126831055
688170.88093757629395
687185.4761791229248
686226.54914093017578
685300.80424499511719
684405.02748870849609
683530.1446418762207
682665.46780014038086
681799.69861602783203
680923.18979263305664
680031.11323547363281
679125.0714282989502
678209.10056304931641
677284.7124080657959
676350.10519599914551
675402.46464538574219
487291.4712085723877
486879.85199356079102
486471.73318099975586
486067.41155624389648
485669.12233543395996
485280.16085433959961
484902.90445327758789
484536.72671508789062
484176.65224838256836
483814.37393379211426
483440.44475936889648
483048.57571220397949
482636.47311401367188
482208.48508071899414
481769.95622825622559
481331.02669334411621
480895.53516387939453
480470.39973831176758
480057.69114685058594
479649.74105453491211
709314.83619117736816
708345.14702415466309
707382.82143402099609
706420.27669525146484
705454.06912422180176
704486.03866767883301
703519.64554786682129
702557.9014949798584
701603.8473072052002
700658.60027694702148
699720.91031837463379
698788.69107627868652
697862.70684623718262
696944.05388259887695
696030.24207878112793
695117.2375373840332
694203.36656761169434
693288.28411674499512
692370.35738754272461
691444.30628395080566
690503.27466583251953
689545.58450508117676
688579.88896179199219
687622.23388290405273
686687.74143028259277
685782.48305511474609
684902.62396621704102
684038.00774002075195
683176.8665885925293
682307.06064224243164
681417.2497615814209
680500.76226997375488
679559.45663261413574
678602.01198959350586
677636.98559188842773
676668.61630821228027
486817.92860221862793
486400.90329360961914
485986.19916725158691
485573.34487724304199
485164.9169807434082
484765.32390594482422
484378.28366661071777
484004.35604667663574
483639.46413230895996
483275.91744613647461
482904.58627700805664
482518.83640480041504
482115.5063304901123
481697.52337265014648
481269.03529357910156
480839.18944358825684
480411.77434730529785
479993.43269729614258
479587.05074501037598
479184.46515846252441
709292.30709266662598
708325.0206298828125
707366.59001159667969
706406.87520980834961
705443.01512718200684
704478.79092979431152
703518.3502368927002
702563.42733192443848
701615.85459899902344
700676.60047912597656
699745.18849563598633
698822.38574028015137
697913.2473201751709
697021.98628997802734
696146.02491188049316
695277.7036190032959
694411.52919578552246
693546.06183433532715
692679.03404426574707
691803.81030464172363
690911.99127578735352
690000.4779109954834
689076.5366153717041
688154.65363693237305
687247.83167266845703
686361.09415817260742
685491.17105865478516
684628.40442085266113
683760.98025131225586
682877.58038330078125
681967.03720664978027
681021.30651473999023
680041.64542198181152
679039.4725456237793
678029.66534805297852
677022.14839363098145
486020.24728202819824
485603.1177806854248
485188.66216850280762
484777.21759223937988
484371.49849319458008
483974.6550350189209
483588.21623802185059
483210.44246482849121
482836.51067161560059
482459.92251968383789
482075.65454864501953
481680.97687721252441
481277.74551010131836
480868.1461124420166
480458.72958755493164
480051.55366325378418
479651.78908348083496
479262.55445098876953
478874.97258567810059
708501.31659317016602
707533.54901504516602
706561.46637725830078
705583.72738456726074
704605.97470855712891
703633.51836967468262
702667.97586631774902
701710.93061065673828
700764.39358901977539
699829.4404296875
698910.17433547973633
698014.06994819641113
697147.16233253479004
696307.43255043029785
695485.25103569030762
694671.61011505126953
693861.31527519226074
693049.94910430908203
692229.88582229614258
691392.45585632324219
690534.24917221069336
689660.08066368103027
688780.5682373046875
687905.73588752746582
687040.33322334289551
686181.3356876373291
685318.83031845092773
684440.89211463928223
683537.01079750061035
682597.65565872192383
681616.48899459838867
680595.7658748626709
679549.53884315490723
678496.97865104675293
486249.24823188781738
485812.36711502075195
485386.83568572998047
484968.87544441223145
484556.24590110778809
484148.58774375915527
483746.91048812866211
483352.4466667175293
482965.08115386962891
482582.84719467163086
482202.28079986572266
481820.53463745117188
481435.73208236694336
481048.93521499633789
480660.54629516601562
480274.56803894042969
479891.30356979370117
479514.33190727233887
479146.93995475769043
478779.76786994934082
708896.06570243835449
707912.30462455749512
706921.32766723632812
705920.90153694152832
704917.38935852050781
703917.72722244262695
702925.88729286193848
701945.06499481201172
700980.33000946044922
700037.28886985778809
699122.80635261535645
698243.39101409912109
697402.56603050231934
696597.21224594116211
695817.61324882507324
695052.92997932434082
694295.50262451171875
693538.90047645568848
692774.53925895690918
691992.82110214233398
691188.51443862915039
690362.73676109313965
689522.48904800415039
688677.15804481506348
687833.54195213317871
686989.20225524902344
686132.48850631713867
685248.99419593811035
684327.48504829406738
683361.2668571472168
682347.88577270507812
681292.64485168457031
680212.0576171875
485868.72046279907227
485428.30915069580078
484999.37907218933105
484579.49296188354492
484166.99019813537598
483761.57351303100586
483364.0972785949707
482975.29818153381348
482594.80529403686523
482220.88590621948242
481851.78487396240234
481485.74178123474121
481122.54291534423828
480760.49404144287109
480400.84151268005371
480042.08027267456055
479686.4078197479248
479337.54019546508789
478986.50946617126465
708478.80634307861328
707470.71378326416016
706448.93551635742188
705418.53377342224121
704387.44998359680176
703362.73290634155273
702350.71662712097168
701361.24539184570312
700405.61580276489258
699493.5784969329834
698629.5815601348877
697811.01219749450684
697031.03953552246094
696280.90097045898438
695551.72144889831543
694835.95366096496582
694126.26930618286133
693411.98186111450195
692680.36757469177246
691923.7470588684082
691141.71447563171387
690340.08441162109375
689528.14069557189941
688712.41696166992188
687889.21833801269531
687043.98350715637207
686159.5688591003418
685225.07707023620605
684237.93000221252441
683201.47029876708984
682126.11610221862793
681030.15648078918457
486227.37520599365234
485777.79780387878418
485339.49596405029297
484910.95560455322266
484491.12948226928711
484080.41431999206543
483680.8278636932373
483294.60079002380371
482922.62094497680664
482563.67116355895996
482215.63395881652832
481875.85956001281738
481542.43713569641113
481211.67386817932129
480882.11371612548828
480550.27432441711426
480216.51453399658203
479884.23068428039551
479544.90053749084473
708106.41157913208008
707058.93060684204102
705999.97219467163086
704938.10880470275879
703883.04850387573242
702844.2233829498291
701833.39840698242188
700865.58388328552246
699951.67934226989746
699094.2939567565918
698286.25452423095703
697516.81729888916016
696777.64439964294434
696063.75341415405273
695371.23808288574219
694692.26340484619141
694012.80206871032715
693316.85574531555176
692595.03434181213379
691848.24971199035645
691083.95362281799316
690308.62607765197754
689524.07439613342285
688723.13097763061523
687890.01485633850098
687008.20993423461914
686069.86947631835938
685077.43547058105469
684040.47711181640625
682972.98223686218262
486416.99007415771484
485976.86677169799805
485545.31659507751465
485122.35249519348145
484709.35205268859863
484309.07680320739746
483924.60043144226074
483557.99563407897949
483209.4139461517334
482877.57674598693848
482559.62998008728027
482252.35086250305176
481950.29105949401855
481649.59555816650391
481344.99788856506348
481034.61006546020508
480720.42061614990234
480393.7032470703125
707704.90407752990723
706608.18894958496094
705513.95011520385742
704433.61970901489258
703377.70978355407715
702357.10937690734863
701384.32644081115723
700469.15437316894531
699611.8852710723877
698802.62380981445312
698029.31303596496582
697285.04402923583984
696567.66581344604492
695876.14459609985352
695204.70842933654785
694539.31166458129883
693862.43365859985352
693163.27127838134766
692443.50520896911621
691709.67262268066406
690963.51614570617676
690200.42042350769043
689410.5500373840332
688581.35086059570312
687701.49878120422363
686767.18579483032227
685785.04451179504395
684768.40020561218262
487361.1527271270752
486922.29879570007324
486490.40663719177246
486066.21828842163086
485651.35072708129883
485248.50017356872559
484860.98091697692871
484491.94319343566895
484143.27321243286133
483815.27400588989258
483505.87479209899902
483211.42239570617676
482925.56308174133301
482642.71026229858398
482356.30117797851562
482062.31903648376465
481761.22729301452637
481444.54324913024902
707369.68377494812012
706238.92497444152832
705136.81284523010254
704073.27802658081055
703055.80017852783203
702091.55693244934082
701184.92922592163086
700331.25654029846191
699518.61959075927734
698735.27682304382324
697976.8895206451416
697244.6590576171875
696542.05461120605469
695868.01461791992188
695210.36779975891113
694549.50955963134766
693870.7798957824707
693171.63369178771973
692454.34259605407715
691719.3449592590332
690960.48443222045898
690169.64029693603516
689339.08743286132812
688464.2232723236084
687546.09628677368164
686591.23946762084961
685609.35478782653809
488211.20045471191406
487777.25359344482422
487348.01407051086426
486925.60964965820312
486512.88425445556641
486113.42255592346191
485731.20971298217773
485369.58234405517578
485030.34673500061035
484712.33734130859375
484412.14281463623047
484123.55514907836914
483840.57609367370605
483556.52881240844727
483265.97713661193848
482967.74784660339355
482652.78010177612305
709444.22221946716309
708248.54727745056152
707089.0482349395752
705976.84359550476074
704920.96196746826172
703925.19668197631836
702989.79726409912109
702110.83097648620605
701277.00336456298828
700472.50782585144043
699685.16720771789551
698912.08523559570312
698159.8812427520752
697439.12872314453125
696755.68720436096191
696101.17298126220703
695455.01656341552734
694795.79699516296387
694112.98633003234863
693405.90008544921875
692675.15081405639648
691917.96673583984375
691129.42854499816895
690305.67142486572266
689445.57594108581543
688551.39283561706543
687627.10570907592773
489386.49735260009766
488953.22101020812988
488523.07384300231934
488099.17231559753418
487685.71239852905273
487287.35681915283203
486907.81386184692383
486548.7270450592041
486208.55587387084961
485883.76442337036133
485568.99849319458008
485259.72349548339844
484951.6004638671875
484640.16793441772461
484324.30684280395508
483994.7067985534668
710079.99732780456543
708865.1898136138916
707702.66839218139648
706599.66533279418945
705561.13501930236816
704588.64394569396973
703679.46744537353516
702826.00239181518555
702013.36640548706055
701221.4431037902832
700434.61911201477051
699649.52690505981445
698876.70937728881836
698132.78087425231934
697427.60530090332031
696755.6607666015625
696098.65180778503418
695436.035888671875
694754.10661506652832
694047.87528610229492
693317.26558303833008
692562.10795593261719
691779.27293586730957
690964.77145957946777
690116.20269584655762
689233.75760841369629
688321.2096061706543
687384.72379493713379
490386.95438194274902
489947.46096038818359
489514.15677833557129
489090.74227523803711
488680.6690502166748
488286.07149696350098
487907.11594390869141
487541.53976249694824
487186.1870002746582
486837.22826766967773
486492.05513000488281
486148.57760047912598
485803.64497756958008
485456.87283134460449
485099.69134330749512
709637.16019821166992
708482.48797607421875
707391.11617279052734
706363.86093139648438
705401.27864265441895
704501.26669692993164
703655.74579048156738
702848.33036422729492
702056.60601234436035
701261.96167373657227
700459.20949935913086
699659.51119232177734
698881.52959251403809
698138.19963264465332
697428.89171981811523
696739.97907829284668
696053.31702041625977
695354.44171905517578
694636.43563079833984
693896.92465209960938
693135.22348785400391
692348.81532287597656
691532.64992332458496
690682.0472412109375
689795.51103591918945
688878.04041481018066
687939.07143974304199
491501.42485618591309
491057.71137619018555
490624.64433288574219
490203.94093132019043
489795.93681526184082
489399.56894111633301
489012.27721977233887
488631.36343193054199
488253.95679473876953
487878.53680038452148
487504.3569450378418
487129.21711730957031
486753.53825950622559
486369.20149612426758
709478.69697380065918
708395.03124809265137
707367.34335899353027
706397.85577201843262
705488.12923049926758
704631.24907684326172
703810.81357955932617
703004.84054565429688
702193.26668739318848
701367.70855712890625
700536.5046215057373
699718.12030220031738
698927.72313690185547
698169.13196182250977
697434.30268669128418
696708.9741382598877
695979.89833068847656
695238.67156791687012
694480.96657752990723
693704.08788108825684
692904.41869926452637
692076.09907150268555
691213.84939765930176
690316.0830020904541
689387.69484710693359
688439.70304298400879
492758.6992359161377
492311.47488975524902
491875.43066215515137
491449.58979034423828
491032.25269317626953
490621.12209320068359
490214.06480598449707
489808.73615646362305
489404.05852127075195
488999.93582534790039
488595.16232109069824
488191.32244110107422
487781.13839530944824
709562.94267845153809
708525.27649879455566
707536.69068717956543
706603.29644012451172
705721.95860481262207
704878.39833450317383
704051.77546691894531
703220.94736862182617
702373.95267677307129
701515.11938285827637
700660.16366004943848
699824.5744686126709
699016.05045890808105
698232.50368309020996
697464.62818336486816
696700.98852729797363
695931.97820091247559
695151.18741416931152
694354.17809867858887
693535.88920593261719
692690.86887550354004
691814.99918174743652
690906.82584571838379
689969.48427200317383
689012.79737281799316
494150.9202995300293
493697.20340347290039
493251.52077293395996
492812.07622146606445
492377.01231956481934
491944.43385124206543
491511.89784049987793
491078.17623901367188
490643.62643051147461
490208.45391082763672
489775.80211067199707
489339.47312164306641
709799.09888648986816
708783.98319625854492
707818.16956329345703
706903.67045211791992
706029.56831169128418
705175.95201110839844
704321.92329597473145
703454.12757682800293
702572.80039596557617
701689.57274436950684
700818.89128112792969
699970.31906318664551
699145.53561782836914
698339.99290466308594
697544.57413864135742
696749.01869201660156
695945.41201400756836
695127.44914627075195
694289.63644409179688
693427.87310600280762
692539.81196594238281
691624.38911437988281
690682.57077026367188
689721.13336563110352
710119.83785820007324
709118.94363784790039
708168.69943046569824
707261.24900054931641
706377.61214828491211
705497.71541786193848
704608.74536895751953
703708.53007507324219
702804.15375709533691
701906.31402206420898
701024.36521530151367
700162.76630592346191
699321.33652877807617
698494.91812896728516
697673.96939659118652
696848.69382095336914
696011.10234069824219
695156.15566062927246
694281.38847541809082
693384.77326774597168
692464.09376907348633
691518.78799057006836
690554.19911956787109
709555.20199012756348
708608.72728157043457
707687.31560134887695
706772.53676986694336
705853.45536422729492
704927.89157295227051
703999.60441589355469
703075.81240844726562
702163.67657661437988
701268.16401290893555
700391.72894477844238
699532.84618759155273
698683.98724555969238
697834.53684616088867
696975.99008369445801
696104.13081359863281
695216.91960716247559
694311.18792533874512
693382.76605415344238
692430.18768692016602
691459.27847671508789
707151.95035743713379
706191.35796546936035
705232.62056922912598
704280.20851898193359
703337.91678619384766
702408.98522186279297
701497.13451385498047
700604.30460929870605
699726.08370018005371
698852.7979850769043
697976.02565956115723
697090.56629943847656
696192.36135673522949
695276.08710289001465
694336.14172744750977
693371.58028793334961
692389.98491096496582
704465.80113220214844
703506.56855010986328
702561.71678733825684
701635.06462860107422
700726.0342903137207
699827.44135475158691
698931.24955368041992
698031.05279731750488
697121.36503601074219
696195.13155746459961
695245.61408042907715
694272.28290176391602
693283.44775390625
704577.41263771057129
703600.03446769714355
702641.27389144897461
701703.89779472351074
700782.96943855285645
699869.36862564086914
698955.44160270690918
698034.39199447631836
697098.90345573425293
696142.18006324768066
695163.68245697021484
694171.13214683532715
827473.71787643432617
826414.38230895996094
825373.85102272033691
824322.67897033691406
823249.12631034851074
822152.87815284729004
821034.4659481048584
819891.92660140991211
818722.46921539306641
817526.11398887634277
816306.93977165222168
815070.38178253173828
813819.09415245056152
812550.2940559387207
811258.17257499694824
809941.9116268157959
808612.52462005615234
807291.09444427490234
805997.97414398193359
804743.52822875976562
830058.45488929748535
828950.89249610900879
827903.18088912963867
826872.7075138092041
825828.65979385375977
824757.79595756530762
823657.63015174865723
822528.57571601867676
821368.31224250793457
820175.80449676513672
818953.7895565032959
817707.85820198059082
816444.21047592163086
815167.01063537597656
813875.04683303833008
812563.65978240966797
811231.15848159790039
809886.58811569213867
808550.41718101501465
807244.49703788757324
805981.2883186340332
804761.96936416625977
833900.00762176513672
832603.81778526306152
831410.35961532592773
830311.06594467163086
829271.22292327880859
828247.6917781829834
827208.75752258300781
826139.88533782958984
825036.81904602050781
823897.5953311920166
822720.20861434936523
821504.9295825958252
820256.89519691467285
818983.69914054870605
817692.27842140197754
816388.38004493713379
815073.75302124023438
813744.30175399780273
812396.88735198974609
811038.62489700317383
809689.2668514251709
808371.90596580505371
807101.19268989562988
805880.07987785339355
804704.13526916503906
803566.19014739990234
836480.60148620605469
835103.25261878967285
833813.21799850463867
832625.37894630432129
831531.82368469238281
830497.55027961730957
829478.34552383422852
828441.78246116638184
827371.90520858764648
826262.73528861999512
825111.23954963684082
823915.9094181060791
822678.86727523803711
821408.01636695861816
820111.85527610778809
818797.94108963012695
817472.71279907226562
816138.91303825378418
814793.56426048278809
813432.84181213378906
812061.85482215881348
810699.57706451416016
809370.8371639251709
808092.83260154724121
806870.31415557861328
805698.9994945526123
804569.85253143310547
803473.00181198120117
838957.36578559875488
837518.97984886169434
836147.26921081542969
834861.05984306335449
833676.98100662231445
832587.19291687011719
831556.15550422668457
830539.31513595581055
829504.17790794372559
828433.84675216674805
827320.1534366607666
826158.77679061889648
824947.67892456054688
823691.04647636413574
822398.16326141357422
821079.59333992004395
819743.63866233825684
818397.9791202545166
817047.22369384765625
815688.58354759216309
814317.07126045227051
812935.8275260925293
811563.2081356048584
810225.34811973571777
808941.52016639709473
807718.0035514831543
806550.70736122131348
805429.23637962341309
804341.21877479553223
803278.69477462768555
841310.78705596923828
839815.89624404907227
838384.25960540771484
837016.60465049743652
835732.95088768005371
834551.00494384765625
833463.45992851257324
832434.44281578063965
831418.64524459838867
830383.42366218566895
829310.87962532043457
828191.00833320617676
827018.45329284667969
825792.33376312255859
824518.48262596130371
823208.44472503662109
821873.69419860839844
820522.62388610839844
819162.86539268493652
817799.35536956787109
816429.99434471130371
815048.8053035736084
813657.89079093933105
812275.18737411499023
810928.4981575012207
809639.35059547424316
808415.45671272277832
807252.50919342041016
806137.6658821105957
805056.25718879699707
803999.15974617004395
802967.39071655273438
841968.97260665893555
840481.28535842895508
839054.18623733520508
837688.8576545715332
836406.49547958374023
835225.90637588500977
834139.77026557922363
833111.58434104919434
832096.13078117370605
831060.87886428833008
829987.42302131652832
828863.77274131774902
827683.00226783752441
826444.88807678222656
825156.68369674682617
823831.53960418701172
822482.19211387634277
821117.48814964294434
819745.67378044128418
818372.09543228149414
816994.64864730834961
815606.62738990783691
814209.05612945556641
812819.6450309753418
811467.19858360290527
810174.79781532287598
808950.92140007019043
807791.09688377380371
806681.3221549987793
805605.45011901855469
804553.09420394897461
803525.11275863647461
802535.1246166229248
917483.19465827941895
915020.88350868225098
912606.04876136779785
910303.12539100646973
908117.75328636169434
906022.40561676025391
842421.7095775604248
840938.98262023925781
839514.82654571533203
838150.77698707580566
836868.90366172790527
835688.58436393737793
834602.74632835388184
833574.34305000305176
832558.10855484008789
831521.52778053283691
830445.97902870178223
829318.32648468017578
828130.61911010742188
826883.10855484008789
825584.85323905944824
824250.06205940246582
822892.25393486022949
821520.41059494018555
820142.12993621826172
818762.66455841064453
817380.18138313293457
815987.39529418945312
814584.66290664672852
813189.91708374023438
811832.85713958740234
810537.83420562744141
809313.90922164916992
808156.39817428588867
807050.23494720458984
805977.98501968383789
804928.5474910736084
803902.98185157775879
802915.09807586669922
801986.66813278198242
920324.40999794006348
917891.70434761047363
915412.98723030090332
912983.58502578735352
910668.84163093566895
908473.98773002624512
906369.50625419616699
842659.44877433776855
841178.87119102478027
839755.76885795593262
838391.88299560546875
837110.0300464630127
835929.90720176696777
834844.24583625793457
833815.78278732299805
832799.2064037322998
831762.07102584838867
830685.68393516540527
829556.24378776550293
828364.85738563537598
827112.36976051330566
825808.37893295288086
824467.90160942077637
823104.87680625915527
821728.57148551940918
820346.58176612854004
818963.99939918518066
817578.80341529846191
816183.5680980682373
814778.39297294616699
813381.13547515869141
812022.12009429931641
810726.02798080444336
809502.43162727355957
808346.29711532592773
807242.14360809326172
806171.94202613830566
805124.10631942749023
804099.85933494567871
803113.06665992736816
802185.58173942565918
801329.55111885070801
483965.98137664794922
483550.59267425537109
483147.30525970458984
482755.69295310974121
482375.16702079772949
482000.91110229492188
481631.3894157409668
481259.53130722045898
480884.03317070007324
480502.44548988342285
480105.01078033447266
708982.19383239746094
707919.59575653076172
706870.34363746643066
705825.18761253356934
704775.67816543579102
703719.72445106506348
702660.00710678100586
701601.40573310852051
700548.96235847473145
699504.70551490783691
698468.24253463745117
697440.28847694396973
696424.09668731689453
695423.82765769958496
694442.96184730529785
693483.30837821960449
692541.89449501037598
691609.70104217529297
690675.96502876281738
689734.25452423095703
688783.91607284545898
687828.19990158081055
686869.07007026672363
685906.76037788391113
684942.0377025604248
683978.71291542053223
683022.36997032165527
682075.31160736083984
681135.60023498535156
680201.69408226013184
679276.13009071350098
678363.95611381530762
677468.4329719543457
676588.34304237365723
675717.87447738647461
674845.97944831848145
487839.11836624145508
487385.13367652893066
486938.13690757751465
486496.66975212097168
486058.79069328308105
485622.47641181945801
485186.17422676086426
484749.4994010925293
484313.83754539489746
483881.96626091003418
483457.37417411804199
483042.62306594848633
482639.37150955200195
482246.6167106628418
481863.33220291137695
481484.90491104125977
481110.15237998962402
480732.98993492126465
480352.82197380065918
479967.90868949890137
479568.98327827453613
708996.10663795471191
707922.49541854858398
706875.8330192565918
705841.12276077270508
704804.45991706848145
703761.86215782165527
702718.25462913513184
701680.41458320617676
700653.73214721679688
699639.17807388305664
698635.46993064880371
697642.99789619445801
696665.06478118896484
695704.43290519714355
694761.69998359680176
693836.29519462585449
692924.30968284606934
692016.59210968017578
691101.72758865356445
690172.47875213623047
689229.21393013000488
688277.24919891357422
687321.29109573364258
686363.72725105285645
685406.19922637939453
684451.83148765563965
683503.62257957458496
682560.07596015930176
681616.50079727172852
680670.89765739440918
679726.90599060058594
678791.04277229309082
677868.17939758300781
676957.89922714233398
676053.11142730712891
675140.97620964050293
487419.05734634399414
486966.16735458374023
486520.01966285705566
486078.94097328186035
485641.34152793884277
485205.78051948547363
484771.21594619750977
484337.37335395812988
483905.22557258605957
483476.76350784301758
483054.65335845947266
482640.99137115478516
482237.25602912902832
481842.53915786743164
481455.86545181274414
481073.12657928466797
480693.62937927246094
480312.24340057373047
479928.88513374328613
479542.23830413818359
479143.08722496032715
708109.79032516479492
707060.83575248718262
706031.48395538330078
705005.20282745361328
703978.50984573364258
702957.92189407348633
701950.8898754119873
700959.88204574584961
699981.59885597229004
699012.87787818908691
698056.93843650817871
697120.56138038635254
696206.63974380493164
695310.52313613891602
694425.61140632629395
693545.75093269348145
692663.17155647277832
691767.93017387390137
690853.53318023681641
689920.99861335754395
688976.89204978942871
688027.14680671691895
687073.78985404968262
686118.4049243927002
685164.54142379760742
684214.73137092590332
683266.51213073730469
682313.87517929077148
681353.73430824279785
680389.28122329711914
679427.55498313903809
678474.08336448669434
677528.60115051269531
676583.17389678955078
486640.25570869445801
486196.65110206604004
485757.53343963623047
485322.1989860534668
484889.97505187988281
484460.08984184265137
484031.86969184875488
483605.29291915893555
483181.13688087463379
482761.09548759460449
482347.01376724243164
481940.78460121154785
481542.62587738037109
481152.65752410888672
480767.91836166381836
480388.25388717651367
480009.02618598937988
479629.8676815032959
479249.20693016052246
478856.91190528869629
708308.40356063842773
707251.37512969970703
706223.11757850646973
705207.76601600646973
704203.77523231506348
703218.01737594604492
702254.93264579772949
701310.86343383789062
700377.64199066162109
699452.31392669677734
698542.27536010742188
697658.53359222412109
696802.91143226623535
695964.58560943603516
695129.9282169342041
694289.48124694824219
693436.84641075134277
692566.40582466125488
691675.16593742370605
690765.49746704101562
689841.93218040466309
688907.23015403747559
687961.72369956970215
687008.00098037719727
686052.27076148986816
685099.37392425537109
684147.72009468078613
683190.54410934448242
682222.3620662689209
681243.78374671936035
680260.48848342895508
679277.99030876159668
678296.87645721435547
677310.01116371154785
486432.5822582244873
485993.85175323486328
485560.01880073547363
485131.19969749450684
484707.05297660827637
484286.29889488220215
483867.09892845153809
483448.07110404968262
483028.95956230163574
482611.03789520263672
482196.45692443847656
481787.93441390991211
481386.84575843811035
480994.37188339233398
480608.79085540771484
480230.88175582885742
479857.24703216552734
479487.8220100402832
479121.02604866027832
478745.39287185668945
707448.85857772827148
706408.42305946350098
705395.8041877746582
704411.62743949890137
703459.93307876586914
702538.33812713623047
701637.12270164489746
700746.02619552612305
699864.11858367919922
699001.73657417297363
698171.58127212524414
697374.08018493652344
696594.12759590148926
695812.54361343383789
695016.16947746276855
694199.76664161682129
693362.19816017150879
692505.06362342834473
691631.6227970123291
690742.05807495117188
689832.42565155029297
688900.45401191711426
687951.07727813720703
686995.33194160461426
686042.35918235778809
685092.7885627746582
684139.10570907592773
683171.39700508117676
682185.24361801147461
681184.56466484069824
680176.84428787231445
679165.07367324829102
485960.42667579650879
485534.09602928161621
485114.98252296447754
484702.54207992553711
484294.42530250549316
483887.18340110778809
483477.8520565032959
483065.41064834594727
482651.45613861083984
482239.34164428710938
481833.12199592590332
481435.24521636962891