/*--------------------------------*- C++ -*----------------------------------*\
  =========                 |
  \\      /  F ield         | OpenFOAM: The Open Source CFD Toolbox
   \\    /   O peration     | Website:  https://openfoam.org
    \\  /    A nd           | Version:  12
     \\/     M anipulation  |
\*---------------------------------------------------------------------------*/
FoamFile
{
    format      ascii;
    class       volScalarField;
    location    "0.0089";
    object      rho_0;
}
// * * * * * * * * * * * * * * * * * * * * * * * * * * * * * * * * * * * * * //

dimensions      [1 -3 0 0 0 0 0];

internalField   nonuniform List<scalar> 
106891
(
1.1628123241032222168
1.1629089405853527683
1.1630340654141844148
1.1631773194613534983
1.1633267232039929961
1.1634649092148510174
1.1635788540759257614
1.1636548714342662691
1.1636846501040938318
1.1636637889186280947
1.1635966332361817877
1.157353217315854943
1.1574748300836539272
1.1576310093563859649
1.1577988701993282561
1.1579514326626552112
1.1580670689840852905
1.1581333426681208465
1.1581502928511804296
1.1581320461608255457
1.1581031625284645692
1.1580774944316198916
1.1580573105483511487
1.158037488379035862
1.1580086289846360792
1.1579538831565758805
1.1578599016488226869
1.1577193054613288403
1.1575428791144632967
1.1573616829091470937
1.1572108916680694524
1.1571090712667004841
1.1570406121783629594
1.1569621715149362995
1.156844907168412151
1.1566935106211497786
1.1565584539646156514
1.1565043398617529391
1.1565785439863889295
1.1567801547714651189
1.1570592897355465034
1.1573334373140449216
1.1575207156483009463
1.1575600399898535731
1.157425369322401254
1.1571250295640220784
1.1566994651053201792
1.1562213631254403268
1.1557841532232646653
1.1630063446184091269
1.1630396150512467557
1.1630604546295255641
1.1630679368129936968
1.1630647933414253181
1.1630580508738594947
1.163056819409037157
1.1630711512292570831
1.1631091075928565726
1.1631742987978395121
1.1632668213742525243
1.1633813592849293617
1.1635085077029609923
1.1636389724389335498
1.1637586656704357324
1.1638574740447733546
1.1639251564106265491
1.1639543294626413239
1.1639404867302141078
1.1638865867743597438
1.1574248986984030374
1.1575549561777800367
1.1576901743839853598
1.1578136048366742816
1.1579072769330895909
1.1579666527293936973
1.1579988621317305331
1.1580155872917521354
1.1580248290731709471
1.1580191565483188842
1.1579822102316343901
1.1579102231037285975
1.1578139832271878706
1.1577034604654645733
1.157579115426160099
1.1574339094501358005
1.1572700416654522204
1.1571076152976342843
1.1569835257549510033
1.1569214791579682799
1.1569033411234270758
1.1568765450053128951
1.1567890443518000776
1.156635613935334872
1.1564634285437798145
1.1563495428757699646
1.1563580313498995622
1.1565046186715419729
1.1567485931841798852
1.1570135418239975156
1.1572131569582260191
1.1572831553571678587
1.1571905639025121815
1.1569376483986362203
1.1565585332144932007
1.1561159814497354859
1.1633258458079922537
1.1633659287148454542
1.1633962267186901407
1.1634150250438668461
1.1634239971694524396
1.1634292444399052524
1.1634385021550985861
1.1634601531432500199
1.163500539255926336
1.163562014307357062
1.1636437824639047633
1.1637410717693512652
1.1638459485008016969
1.1639516458841747681
1.1640474263249223075
1.1641264788593688184
1.1641826129025487635
1.1642104209760750777
1.1642061286322278324
1.1641729775828526527
1.1573344668481710951
1.157432533592514412
1.157547188703984542
1.1576593820474907481
1.1577510040250604817
1.1578172118953828917
1.1578714669775838075
1.1579213973373578828
1.1579614317221784692
1.1579677241788948194
1.1579136757736130381
1.1577949205440247749
1.1576343246115483598
1.1574590617876521215
1.1572852474010724144
1.1571137871454779678
1.1569442442330408749
1.1567924581959516672
1.1566921709612063562
1.1566662467680492998
1.1566961404004028058
1.1567227819295320401
1.1566824334205028091
1.1565575771586751319
1.1563871650478079189
1.1562467546358337067
1.1562066168694900004
1.1562984388718193784
1.1564991277017657723
1.1567496678994186876
1.1569728139913824094
1.157096924725621756
1.1570726149569108276
1.1568828961693931046
1.1565468743784366179
1.1561187902126937033
1.1636945220628212017
1.1637384961871874989
1.163773983920314059
1.1637999481728693585
1.1638195745267090331
1.1638381722764139514
1.1638620880057095608
1.1638963742656813771
1.1639437803579923969
1.1640046278477949038
1.1640762626130718438
1.1641529944235700089
1.1642307125648092558
1.1643019087971941961
1.1643622991263971045
1.1644086101584483206
1.1644373041774889188
1.1644457530986744853
1.1644386821153687173
1.1572344536255614322
1.1573128752564525445
1.1574124627749271532
1.1575195762212466821
1.1576258390664733167
1.1577330111835750781
1.1578376761297537456
1.1579173332121117657
1.1579340374454485385
1.1578621290480499706
1.1577016398230315364
1.1574822950916632269
1.1572425611950183377
1.1570143717715599685
1.1568108568378314693
1.1566360837847668996
1.1565059948367943932
1.1564422124086999322
1.1564524706928853703
1.1565109233022936586
1.1565574455160154699
1.1565352893527214295
1.1564277806288012496
1.156270550392034524
1.1561303349666716134
1.1560711240839156577
1.1561261247821554843
1.1562864589329973075
1.1565113960846207242
1.1567377794958153547
1.1568942572306033512
1.1569187083772487501
1.1567770018437393276
1.1564757458558090342
1.1639670337097951514
1.1640267519018947517
1.1640867398117578091
1.1641413857741214066
1.1641860264565733196
1.1642189892128940176
1.1642417154424469228
1.1642592587704105878
1.1642769175991014574
1.1642989430206747148
1.1643281455420246839
1.1643658048733236399
1.1644099323413494851
1.1644593931662923225
1.164509484052544952
1.1645571594998478382
1.1646000348053269224
1.1646350469102595415
1.1646596620489548801
1.1646802527584565468
1.1569885336399325926
1.1570470107808628057
1.1571674908471416554
1.1573259900857741922
1.1574974465258649481
1.1576609499077916698
1.1577971904374033674
1.1578761233853209767
1.1578638959774609773
1.1577467619151464717
1.1575374982321291473
1.1572717990204433036
1.1569893941666822279
1.1567273974083762678
1.1565050489963424329
1.1563394140274061428
1.15624372509405271
1.1562241917406208547
1.1562682632124750004
1.1563373569604922242
1.1563776569106425374
1.1563465008328535077
1.1562416465509959274
1.1560991383605279115
1.1559793615679019307
1.1559325508462987564
1.1559854866658472172
1.1561306369262511762
1.1563367017693368943
1.1565497718158443963
1.1566989893256169886
1.1567233753153240983
1.1565866432738207692
1.1643652232249952494
1.1644415590916337155
1.1645145428951484412
1.1645754297793842191
1.1646177546940346126
1.1646386498926732944
1.1646408053956367468
1.1646304351902587726
1.1646157835614212583
1.1646042999391466033
1.1646022884966764632
1.1646123881099175179
1.1646369782894301359
1.1646738041523987395
1.164719692957167041
1.1647711277842582867
1.1648233719722620449
1.1648709554832514801
1.1649204106753208166
1.1567819165316473029
1.1569407540959244507
1.1571750948272678805
1.1574323004006934479
1.1576586715153325269
1.1578077201704013444
1.1578422772684051623
1.1577495789247400637
1.1575428053521032989
1.157261331804296578
1.1569523311377418739
1.1566599737118006264
1.1564101080899806817
1.1562183862089001618
1.1561026480569616126
1.1560702258306569945
1.1561135460302336408
1.1561990548535310275
1.1562784133398789077
1.1563071461641938331
1.1562617425216539235
1.1561515860190372251
1.1560135103547759527
1.1558966251051994156
1.1558400063584608475
1.1558637845126888966
1.1559683842533541309
1.1561315050749942923
1.1563086125539663307
1.1564394376476638815
1.1564677224651302989
1.1563627426203462178
1.1646918682263300848
1.1647824889919053959
1.1648711445845554291
1.1649455490148636905
1.1649952341267628686
1.1650134477086950824
1.1650000155113775513
1.1649607233285932395
1.1649072578097487973
1.1648527244833699612
1.1648100528747296067
1.1647874127713937487
1.1647909045603854761
1.1648207607770704186
1.1648732461691824192
1.1649426674818503802
1.1650219084091510968
1.165100579478316245
1.1651828111619233486
1.156769779284071431
1.1570313851944089567
1.1573297237568567208
1.1575820873412356882
1.1577215801685576402
1.1577065828947377124
1.157542409363715441
1.1572695676562940736
1.1569532795975043804
1.1566526890063024702
1.1564086756467240047
1.1562297904119420711
1.1561130886304480381
1.1560515668670068301
1.1560458241297213444
1.1560911567951428491
1.1561615528434348033
1.1562189765816250908
1.1562320650577708747
1.1561908375799929694
1.1561062974793503422
1.1560028027545310447
1.155909374626231223
1.1558543226708724028
1.1558514144659852718
1.1559024660329673129
1.1559889037216282137
1.1560802736035749039
1.1561375127637771865
1.1561245160124959952
1.1650806886408353602
1.1651822187530116448
1.1652702777729146977
1.1653306207648430615
1.1653530911401228654
1.165334605383532729
1.1652790611418766265
1.1651987573634228212
1.1651097623302175688
1.1650309369368561097
1.1649771829975164028
1.1649596815219169788
1.1649822268233418487
1.1650420784664707874
1.165132070628982941
1.1652425758334787886
1.1653565854934218038
1.1654737136487198779
1.157044608374709016
1.1572811037238102116
1.1574646127744963042
1.1575245215321450232
1.1574259054864457497
1.1571843555440715079
1.1568646438671958965
1.1565513516135772498
1.1563127231978838072
1.1561754468613465452
1.1561188165304865372
1.1561012158301859909
1.1560923451802169737
1.15609048949945592
1.1561090044030468693
1.1561581120722823623
1.1562241048000740928
1.1562797275239393713
1.1562985982687665754
1.1562736619425797446
1.1562043891423752218
1.1561127125925050319
1.1560210882549115663
1.1559460933743579414
1.1558972769023483362
1.1558664345855136357
1.1558415583777263969
1.1558086524514943338
1.1653029848874658647
1.16541389705160503
1.1655170693011411842
1.1655951285846484211
1.1656341440998991832
1.1656273398797485363
1.1655754373360383003
1.1654891361054375842
1.1653842665471958462
1.1652825436060412212
1.1652040525777103142
1.1651655559974078979
1.1651764219840716752
1.1652372854449830619
1.1653410196530109566
1.1654769444352843788
1.1656218042775854382
1.1657697301729286199
1.1573702229771469785
1.1574164782187184031
1.1573457845668051469
1.1571378033830985732
1.1568196382682804924
1.1564709509331729809
1.1561871661296114766
1.1560342420007898578
1.1560152271779746691
1.1560845062000419947
1.1561643040814550965
1.1562031127507632622
1.1561979689869987808
1.1561894568883694934
1.1562219633400416807
1.1563094652343686164
1.1564231510970808259
1.1565162061324745224
1.1565432563302111557
1.156496655450653499
1.1563867600033816974
1.1562398508080722337
1.1560770183999693472
1.1559066237450947856
1.1557311188196994767
1.155559233263479646
1.1554061794567618282
1.165547109520280511
1.1656634765203242043
1.1657606782335057094
1.1658221190574209469
1.1658373386949218986
1.1658037533571232736
1.1657293561221706568
1.1656282306653704683
1.1655222788017647328
1.1654330585914840501
1.1653805834162234145
1.1653790772756706939
1.1654334235509076212
1.1655383671361092546
1.165684981417948185
1.1658463017795313021
1.1660125223907356062
1.1576529344548442957
1.1575497839939701272
1.1573625842926635876
1.1570829624091976129
1.1567261116480316296
1.1563430478723792927
1.156015587227542385
1.1558196092437997837
1.1557918130188760131
1.1559137996879724763
1.1561045365652737882
1.156278075447144893
1.1563815111338973107
1.1564217426536955724
1.156452026603504768
1.1565305572586699334
1.1566764240607263492
1.156848473984824599
1.1569784413979100623
1.157004132249155548
1.1569111661614706055
1.1567176868261186407
1.1564631184072007297
1.1561876860652418042
1.1559081212619244372
1.1556394434195136345
1.155391903555087918
1.165711703478879091
1.1658135661091810764
1.1658826402797368704
1.1659093351653038173
1.1658901756081914147
1.1658315223275834693
1.1657451626392096866
1.1656506455578972137
1.1655678323757741044
1.1655163510857526887
1.1655115476521271667
1.1655605269755986431
1.1656592249003507877
1.1658014286551332539
1.1659598873280692111
1.1661238632729464815
1.1579675600675287672
1.1577387312389766372
1.1574026341619709779
1.1569852706785597185
1.1565373076185563317
1.1561238823745474402
1.1558129339794021018
1.1556589262853158573
1.1556852792409422204
1.1558613004521254286
1.1561084143136104441
1.1563481856058013264
1.1565296406315730415
1.1566580504355605807
1.1567732479132932788
1.1569234888925608029
1.1571180357482986345
1.1573184760310633035
1.1574508755165680007
1.1574568627375241281
1.1573124195268909009
1.1570436203690577237
1.1566987812858648965
1.1563278652605697427
1.1559676791854152089
1.1556397414718082572
1.1553574618221051917
1.1551535848928304873
1.1657536156776742153
1.1658047406829861181
1.165816862037209134
1.1657903989991158511
1.1657338711027567246
1.1656584399590463885
1.1655807749424529352
1.1655163187358483778
1.16548010550331127
1.1654835517578352455
1.1655321465430259487
1.1656216810682116236
1.1657487914464523815
1.1658893212131737904
1.1660350102219221302
1.1578031743258176967
1.157379450073031224
1.1568881085883575555
1.1563959507685519501
1.1559732556432822381
1.1556740834543850482
1.1555469138476082147
1.1556061492627898168
1.1558239859712480246
1.156138039618235247
1.1564709147134282219
1.1567628817522863649
1.1569954968878795043
1.1571892293357792791
1.1573767859419703541
1.1575695365249754065
1.1577406552415350216
1.1578325529637916169
1.1577886191214805667
1.1575843075775507085
1.1572441046680974619
1.1568229000189591549
1.1563802700020771042
1.1559610537678672859
1.1555848301780982101
1.1552738690517707631
1.1550494979690382191
1.1656573138702936987
1.1656463078129191135
1.165605228206721744
1.1655451393980904573
1.1654767745987297811
1.1654142183191620319
1.1653686621951881985
1.1653499097580903854
1.165363834845621227
1.1654128152403795404
1.1654916146439531222
1.1655992152445917576
1.1657164129811805608
1.1658389566460303222
1.1574248544895713309
1.1569361876982846571
1.1564477360121308003
1.1560141634375702413
1.1556832463918238485
1.1555008594479743156
1.1555027257769530102
1.1556903925257682175
1.1560250015534268009
1.1564321736803484519
1.1568322473208298984
1.1571752818591800605
1.1574594362064067887
1.15770297024922586
1.1579182250913000463
1.1580926218712204179
1.1581823119717884474
1.1581292809362615515
1.1579039388753737949
1.1575270713317959981
1.1570576080379075812
1.1565662613436005213
1.1561063236094271112
1.155701634103243336
1.1553697636250028769
1.155135265088580665
1.1654187514539062764
1.1653619675272512968
1.1652962043797574498
1.1652329729671120351
1.1651845032169965144
1.1651570707284273354
1.1651542673290697927
1.1651762703426882251
1.1652226351296406381
1.1652871503193074076
1.1653710455541308466
1.1654610452055702563
1.1655572726898586478
1.1569987010458726573
1.1565788589035745915
1.1561802086245365206
1.155833595977879602
1.1555849425774200601
1.1554986529278237217
1.1556152686614773462
1.1559304737091138371
1.156378117475706846
1.1568632031300802865
1.1573087015795411325
1.157680528061745262
1.157981652856559629
1.1582285516743637821
1.1584206166885282485
1.158522253156723858
1.1584793160021060743
1.1582547358062653675
1.1578593114630075789
1.1573518424434254825
1.1568101370492984703
1.1563023513926082853
1.1558681906118219995
1.1555328527799988425
1.1553205352082147606
1.1650959673164771324
1.1650276723083297092
1.1649701369787850425
1.1649331900100881043
1.1649188791921045727
1.1649264302933934889
1.1649514707771193578
1.1649909320183047257
1.1650380046076269647
1.1650960854100356201
1.1651578997532738846
1.165227173021674778
1.1567206083308843034
1.1563568806069230988
1.1559925011765956882
1.1556846857770384229
1.155521288790492429
1.1555782129244513978
1.1558722664019545068
1.15634315073826488
1.1568843001877631149
1.1573960643546470362
1.1578205364978411129
1.1581524901884161505
1.1584153269493113747
1.158620057441946738
1.1587417613364869862
1.1587347762827691078
1.15855892530330018
1.1582109370582804875
1.157732635311595315
1.1571835715196814309
1.156627307020569484
1.1561153815191826943
1.1556935070382914343
1.1554035961310376024
1.1565478883590465387
1.1561647465040501004
1.155817358969573716
1.1556079831569032734
1.1556271512522027223
1.1558927347288339149
1.1563497277908512118
1.1569001253409099128
1.157443021362928981
1.1579210829387407422
1.1583249139917257686
1.1586651637863119024
1.1589410565260152008
1.1591200614056960116
1.1591546096135367794
1.1590085163737140483
1.1586784029128662787
1.1581993692912775362
1.1576309937308930653
1.1570340027618746248
1.156467534567384714
1.1559844267055552347
1.1556403637372520965
1.1559791429643591076
1.1556789494114512173
1.1555957437437360813
1.155761533052771739
1.1561398931928763556
1.1566486898367036584
1.1572038639195953991
1.157748535057697481
1.1582528571918033755
1.15870360790039717
1.1590752270055657558
1.1593285823802557122
1.1594161748667497491
1.1593089304072019541
1.1590011590423097143
1.1585239003547138648
1.1579368119230681877
1.1573101492829300785
1.1567219947430733562
1.1562354891817892
1.1559076693251979506
1.1560473403320878916
1.1565290769251634906
1.1570957481794466037
1.1576868944706502074
1.1582599086421476731
1.1587777825225635819
1.1592048424448713195
1.1595015362686460492
1.1596328332097138869
1.1595689400024982163
1.1592978190782399217
1.158831451951252145
1.1582136752695584292
1.1575210432034934716
1.1568487661390407517
1.1562952071135157439
1.1559369308010323252
1.1584567464991819552
1.159011733355411744
1.1594716890308895962
1.1597976873756259408
1.15995771518683366
1.1599260213696980237
1.1596875149241536729
1.159244799115547675
1.1586308610876274727
1.1579124707118093607
1.1571797842486364338
1.1565353066515544622
1.1560686062712288713
1.1591553309844364605
1.1596524261529146393
1.1599873832442719745
1.1601266283762057263
1.1600528250392831975
1.1597607799040148269
1.1592711012885614785
1.1586340686077376549
1.1579274279594526931
1.1572448799163252975
1.1566743109669381795
1.1562821214943075354
1.1602251976864248473
1.1605907280937319825
1.1611020333265107407
1.1616122160473503211
1.1619719232400942399
1.1620782167150172093
1.1619077611737573807
1.1614912750298045374
1.1608937465498760933
1.1601982651454130213
1.1595045567940707176
1.1589274257275279378
1.1585742344292579986
1.1584857748543488931
1.1586008139074179812
1.1587685693538269938
1.1588224925084886774
1.1586735509504741959
1.1583527493854894885
1.1579853658121057602
1.1600984018919422436
1.1601375267721565354
1.1604108168820927993
1.1608715926870611934
1.1614037623144790601
1.161870642673273446
1.1621502195904387378
1.1621675181317812076
1.161894850529425316
1.161351921458885883
1.1606173941202009292
1.1598213829085899373
1.1591163867940355026
1.158643338596312411
1.1584719617504950495
1.1585565909505786131
1.1587486545675658167
1.158868647555416409
1.1587982338035553997
1.1585278270082270957
1.1581505637717142143
1.1578172857786102057
1.1605124567802043156
1.1603273912538945023
1.1601445330341408901
1.1601051773482693452
1.1602826444420419882
1.1606580959077250625
1.1611527646691937043
1.1616530991352820301
1.1620432611241673371
1.1622057230302904607
1.1620662509559347431
1.161599875451355679
1.160872622040729274
1.1600272775854085783
1.1592433928199481485
1.1586802623354659492
1.1584319821521826821
1.1584679475530033077
1.1586497213325541722
1.158796969273266253
1.1587770059681705703
1.1585569765516181562
1.1582070605494987348
1.1578573282550697066
1.1576435255077006659
1.1576587313218358322
1.1601968877616635201
1.1601580048510435894
1.1600217860502681777
1.1599079563721479413
1.1599285401802834627
1.1601176554261591889
1.1604267887778147994
1.1607775424422952515
1.1610905299169680394
1.1612908166548008282
1.1613068010344713699
1.1610818714214878877
1.1606026743144441937
1.1599349941210117532
1.1592067084428230306
1.1585657483506861531
1.1581381653139950494
1.1579837417365523855
1.1580573246597307691
1.1582267285602001472
1.1583338482254104118
1.1582728256997203431
1.1580390364799282299
1.1577230184044777772
1.1574542609999629583
1.1573491681231320438
1.157465799328543099
1.1577857907405457727
1.1590176544378043566
1.1591550612750343152
1.1592269171267457484
1.1592208652213713549
1.1591806781403839466
1.1591477740128874885
1.1591104144480963711
1.1590354625673999767
1.1589206564154610479
1.1588055757876951635
1.1587210303179222848
1.1586582416346351554
1.1585529768869347045
1.1583475428523368755
1.1580265717079842869
1.157636733841551635
1.1572629188332104189
1.1569992504139858802
1.1569130776372982261
1.1570059447524596585
1.1572000848777159732
1.1573817748662256211
1.157452009222424083
1.1573795796109831446
1.1571998198323478757
1.1569802523114820492
1.1567867429267768564
1.1566628992749647953
1.1566186363409585169
1.156626915702090308
1.1574177764494832932
1.1574839454516856474
1.1575226196793138023
1.1574699951664086939
1.1573393991669629344
1.1572171158459179097
1.1571709932838052381
1.1571992105459787403
1.157256233631900777
1.1573222117902419726
1.1574180409418257653
1.1575477107845741909
1.1576582750479333939
1.1576627520415945227
1.157491273295460088
1.1571586933416058152
1.1567502710908921237
1.1563880071056444887
1.1561733457325398255
1.1561637915559492829
1.156330268827174379
1.1565641734283644837
1.1567320685359840926
1.1567380843656913658
1.1565742035066670645
1.1563140745709432622
1.1560593113644852536
1.1558923805537388851
1.1558535549159285605
1.1559304721063468069
1.1560700530315901613
1.1562151336418760028
1.1572698489754655871
1.1574099270847790777
1.1575310767756230579
1.1575504217957954811
1.1574658355512719154
1.1573662055036066931
1.1573289664409729394
1.1573639788921963323
1.1574320061026779349
1.1575221250954701446
1.1576661116718509614
1.1578698288190809595
1.1580711853292227076
1.1581647288074514712
1.1580796204405139349
1.1578248623310565257
1.1574862926431941368
1.1571795143855845289
1.1570040990008281234
1.1570093764584028495
1.1571736595082893206
1.1573966750315094476
1.1575487005768076987
1.1575409363195130474
1.1573672160747519033
1.1571045393159957726
1.1568593116063841109
1.1567218158854402077
1.1567342539283818059
1.1568831824666843122
1.1571114161668138998
1.1573514086062022255
1.1575566653613931223
1.1597272338064983366
1.1597696589979757942
1.1594588745928418039
1.158988447147684786
1.1587181505120731639
1.1588418849540298439
1.1590517434578615497
1.159233537887619514
1.1593866626136348774
1.1594223919743822382
1.1593409789319981673
1.1592385251998742479
1.1592050626928560586
1.1592536804050213028
1.1593449295471462968
1.1594704598752796354
1.1596612749532515529
1.1599228082153951735
1.1601754133861277296
1.1602963703632340753
1.160211598713823955
1.1599384620721373551
1.1595755075840188386
1.1592526239928135912
1.1590764825419526129
1.159094627503420627
1.1592818680113745611
1.1595330283993690035
1.1597084210049910524
1.1597159342577025853
1.159547467964316958
1.1592804540921171075
1.1590302475590068543
1.158890193235797339
1.1589047664610057087
1.1590627067967234076
1.1593046010742142915
1.1595592501408109598
1.159776199991438439
1.1599537190624065186
1.1619808697276503562
1.1623290559262680066
1.1624091479131033466
1.1621236543651025652
1.1616739797112851651
1.1614404633450687854
1.1616193067616509271
1.1628546541861710661
1.1630310226540243601
1.1631784968301064342
1.1632049003875206683
1.163112748770000815
1.1629975851919989172
1.1629553373013510331
1.1629958050955895299
1.1630774170042890159
1.1631930839814561551
1.1633750415764783082
1.1636327015461838119
1.1638811692466708436
1.1639894109005017864
1.1638855646312538106
1.1635862063375073117
1.163196140971432202
1.1628505525027186263
1.1626573057917810594
1.1626627107263640681
1.1628395758118932335
1.1630815847690127995
1.1632452022093864308
1.1632340041689086529
1.1630430061140824005
1.1627494411700347587
1.1624715557753071415
1.1623064036031944823
1.1623002061983402911
1.1624411379462049609
1.1626679665664070296
1.1629080509752518502
1.163109675160038714
1.1632693884239253546
1.1634294333342232175
1.1627212712266798977
1.1626139979578624661
1.1625216842840659925
1.1624576541855138334
1.1624332941075805614
1.1624524622883478653
1.1625183770273572748
1.1626263858953058694
1.1627707534406455103
1.1629409911431742852
1.1631307292911161611
1.157357206099828506
1.1573806923292444537
1.1574595652458006256
1.1575949280497161986
1.1577714954121296476
1.1579644828247552812
1.1581471737058794957
1.1583013323795847693
1.1584128425115876038
1.1584721330187226496
1.15846799420819635
1.1583861362995682143
1.1582148600356656498
1.1579570960371274868
1.157637268347610604
1.1573025001985017823
1.1570080440492378493
1.1567885573510403585
1.1566456162345453151
1.1565534643864818776
1.1564835902243988386
1.1564276910456086078
1.1563980308282453269
1.1564198947726480604
1.156513929209622038
1.1566825766007136078
1.1569127176909770327
1.157172226549977978
1.1574114501440668779
1.157569772253442375
1.1575880420639057533
1.1574258726039416967
1.157084738542906388
1.1566160087988868188
1.1561133312280482688
1.1556764499138982849
1.1628985396459960988
1.1629891886113112864
1.1630860294838165636
1.1631801078224464074
1.1632600445195973027
1.1633136563524077989
1.1633316469797141401
1.163309108000952552
1.1632481789794435478
1.1631573627061637666
1.1630502445375272558
1.1629444997545539398
1.1628572780927439734
1.1628028716183682612
1.162792143320170446
1.16282707904632443
1.1629077323534455779
1.1630263797610986831
1.1631745542000573312
1.1633406350327515355
1.163518425469673101
1.157499151180130248
1.1574457054887090646
1.1574399751641626377
1.1575094538508978737
1.157642949277964739
1.1578098006287906863
1.1579723939563395518
1.1581032106412996185
1.1581855159474068184
1.158212410267419834
1.1581806528155775826
1.1580857251877509917
1.1579269662793416629
1.1577097939315368347
1.1574507843447277011
1.1571832024751080858
1.1569487226075980679
1.1567785024725163456
1.1566760057757068392
1.1566191938806584805
1.1565762779241448577
1.1565277599186130075
1.1564739098923366711
1.1564379282259349413
1.1564489020035024769
1.156531112632574132
1.1566889712463650497
1.1568985325693017518
1.1571085347280629652
1.1572553645027603419
1.1572709523346014215
1.1571172261475062282
1.1567989743112163659
1.1563766909930963678
1.1559410290510379049
1.1555839958370450749
1.1630800996329806463
1.163181972186930313
1.1632991224339841452
1.1634199964776759106
1.1635299278265862633
1.1636133552009868541
1.1636581338429106136
1.1636576919720877932
1.1636139213051241992
1.1635361536920860726
1.1634396332128262852
1.1633433297655284555
1.1632655985443929314
1.1632212538509423272
1.163220715317771603
1.1632649519729116872
1.1633520429831383236
1.1634724093314696702
1.1636161982592139186
1.1637714248016208796
1.1639330888514620721
1.1574526635237269989
1.1573515261385067809
1.1573410009020099753
1.1574220625472551038
1.1575618180266680213
1.1577123488943921181
1.1578311420027944667
1.1578912400715173359
1.1578829247885764619
1.1578123687465462499
1.157693302020565751
1.1575413065683861635
1.1573662099397572511
1.1571791470129839663
1.1569933276096608932
1.15683031666627123
1.1567149298049532735
1.1566558992777988824
1.1566429143999312767
1.1566442520954411943
1.1566206750249123925
1.1565571642547378683
1.156463087037486126
1.1563743319298762646
1.1563380171924964035
1.1563867883509371115
1.1565187695192578055
1.1566910382227173493
1.1568313111130366089
1.1568646067506800357
1.1567482186102528985
1.1564886021808491456
1.1561441542953894146
1.1557989972938202961
1.1633614915558447844
1.1634946522981148842
1.1636405794758375443
1.1637822792215992695
1.1639016067935590293
1.1639834926784595748
1.1640185999509067294
1.1640068099146665404
1.1639561872021759736
1.1638815725037319204
1.1638015557499210573
1.1637347247400133821
1.1636962841730924545
1.1636971186080213858
1.1637389495256662553
1.1638199634546477768
1.1639309013007321791
1.16406235393095292
1.1642021636661106232
1.1643465348422865624
1.1575341058929837779
1.1573611030331372174
1.1572734679465872532
1.1572836382637627928
1.1573669993760946628
1.1574774751862866307
1.1575674384086900304
1.1575969132709655884
1.1575524094705831324
1.1574426184904005321
1.1573028038009420815
1.1571602425591187568
1.1570298758323234178
1.1569131723091017339
1.1568058709563244779
1.1567105080088804225
1.1566418846498993656
1.1566193807926208326
1.156647081940467281
1.1566975617715609115
1.156720507497785988
1.1566759530390648969
1.1565491727870145233
1.1563765546973119314
1.1562222022407082633
1.1561448971928531826
1.1561696881825764827
1.1562703702265750838
1.156376191640668738
1.1564120088977758449
1.1563337598606160395
1.1561485760066034789
1.1559042793113123437
1.1556697544964065205
1.1635370271013805166
1.1636736273473098358
1.1638346084111910184
1.1640025714153392489
1.1641580521284575767
1.1642834687998604437
1.1643658639373890562
1.1644009064256506392
1.1643925659519684945
1.1643525547099211614
1.1642968593688722834
1.1642430787090971567
1.1642065675346469078
1.1641996815740907056
1.1642270905862130981
1.1642895023310388947
1.1643799676729722492
1.164491176915533055
1.1646110802556894903
1.1647370448805949295
1.1574436730661670225
1.1572809717031715682
1.1571996942920577123
1.1571908577230047843
1.1572260659928934601
1.1572635880579513756
1.1572575124437027849
1.1571805849207676964
1.1570424195130932787
1.156884901636936025
1.1567491850680646781
1.1566560398993637193
1.1566007328714995595
1.1565669801778608594
1.1565410502086139743
1.1565307327320131225
1.1565566856879694324
1.156628263770694387
1.1567257495921123844
1.1567935910734588045
1.1567662772571769558
1.1566163344723165984
1.156371031821792128
1.1561045541110155366
1.1559026258353530814
1.1558145441961826805
1.1558322196948715987
1.1558988283901237004
1.1559470664917828042
1.1559312694772658769
1.155845995128665038
1.1557241671654829851
1.1638557759395682378
1.1640144806726377968
1.1641939437939623492
1.1643754411876447996
1.1645397210826189394
1.1646701865289741384
1.1647571499309614662
1.1647984244286000433
1.1648006567017892277
1.1647756404549185483
1.1647390198447848952
1.1647062589950558653
1.1646914071846019567