/*--------------------------------*- C++ -*----------------------------------*\
  =========                 |
  \\      /  F ield         | OpenFOAM: The Open Source CFD Toolbox
   \\    /   O peration     | Website:  https://openfoam.org
    \\  /    A nd           | Version:  12
     \\/     M anipulation  |
\*---------------------------------------------------------------------------*/
FoamFile
{
    format      ascii;
    class       volScalarField;
    location    "0.0089";
    object      T;
}
// * * * * * * * * * * * * * * * * * * * * * * * * * * * * * * * * * * * * * //

dimensions      [0 0 0 1 0 0 0];

internalField   nonuniform List<scalar> 
106891
(
300.43868112350764932
300.44852266702764609
300.46129002165338306
300.47614459786552743
300.49125768014243931
300.50561324411580699
300.51720125685017138
300.52501789556248468
300.5279226013408902
300.5261222127554106
300.5182464380461056
302.48270971105171157
302.49517950574329461
302.4990418130041121
302.49294988054657551
302.47666347078808258
302.45196048909701858
302.42214689977492981
302.39123312701673285
302.36313565821996008
302.34119166241663379
302.32651838843884207
302.31896376430546525
302.31831882710662285
302.32472982157850083
302.33766842891702709
302.35619509143168671
302.37858739508055805
302.40360802359464287
302.43127894072949857
302.46183471292516742
302.49395643058397809
302.522737150643934
302.53991360356792484
302.5378709398211754
302.51173436871908962
302.46160995075319988
302.39130634486980398
302.30755410498682068
302.21866838578029046
302.13480255270343378
302.06786723781783621
302.03090893854965771
302.03477026936212724
302.08425406409696734
302.17488667601764973
302.29298590584721751
302.41961926816804862
302.53583526292720762
300.45830181290682503
300.46196558833793233
300.46432875813388819
300.46523910409808877
300.46505498531234934
300.46438151579121723
300.46427865161354021
300.46573526050002556
300.4695383113846674
300.47627068883599577
300.48572944808194052
300.49744273858982524
300.51071718191593618
300.52396687181800417
300.53646867672671306
300.5466306534158889
300.55358837308978082
300.55646431730394852
300.55546596847176488
300.54873891751168458
302.461005071548243
302.46631662750519354
302.46364326935963618
302.45226805569279804
302.43296477469016281
302.40906781009215365
302.38533545631304378
302.36610614905816874
302.35377736491807354
302.3476044721096514
302.34490321969013849
302.34413844025556273
302.34572478673766227
302.35044892808082295
302.35821167143353705
302.36775573896181868
302.37822013675776134
302.39030432946833571
302.40658692020360832
302.42853841400136616
302.45321895138528134
302.47317355668360506
302.479303517976291
302.46552402513503921
302.43023398842461802
302.37607736897183486
302.3083660288145893
302.23415719454692407
302.16242163969133117
302.10454130711906373
302.07244955157688082
302.07597159758233829
302.11843610593581388
302.19471923747948949
302.29233780075674076
302.39575143712596628
300.49150900822917265
300.49577339756001493
300.49904016310625821
300.50108477203605162
300.5021394744962322
300.50271303032030801
300.50372201266469574
300.50596878599236561
300.51009243369975366
300.5165016987688773
300.52495226888356683
300.53497284668060274
300.54605281067404121
300.55685808777889179
300.56694674773427778
300.5751831408030057
300.58094202780705473
300.58366430611175701
300.58370967610937896
300.57885215317952543
302.42008771804944445
302.42381945817419364
302.42206141884679482
302.41383986844425635
302.40005424850085092
302.38417810222773596
302.37158584745770895
302.36580503755840255
302.36697638805816268
302.37151127748904855
302.3744738948265649
302.37326318587355445
302.36887920643306416
302.36375921625818819
302.35974979246987004
302.35713655850645409
302.35576124735257508
302.35678439566163433
302.3631106328435294
302.37651185054977532
302.39452498835208871
302.41014835349295709
302.41500269363314146
302.40419566609705271
302.37731570080921983
302.3372886717545498
302.28807846118331781
302.2340096837750707
302.18017692355681447
302.13452268249443478
302.10666685667968068
302.10517355565070829
302.13391998796328153
302.19009818312827065
302.26505075873399164
302.34745693706042857
300.5296106933548117
300.53421165245015345
300.5379552131690275
300.54077860513370979
300.54289136280050343
300.54494804265635821
300.54751877455839804
300.55113556826501053
300.55618199376590383
300.56259363083279368
300.57006003279548167
300.57832281033051913
300.58634108687954267
300.5939222870712797
300.60030910958784034
300.60505107834535465
300.60781885508419009
300.60923053547861628
300.60679071332555168
302.37443149237947182
302.37728280014124493
302.37710741100778478
302.37392315074259841
302.37008698504126869
302.36956588468774498
302.37498821286084194
302.38509903636338549
302.39496418515830101
302.39945394151783375
302.39571641332992158
302.38469395101674309
302.36945777356010012
302.35348591412900987
302.33884097312045469
302.32658826432555088
302.31871781149413891
302.31753044149746756
302.32378010874492702
302.33482642750425384
302.34446808996324307
302.3463605444049449
302.33728455109360311
302.31814644223464938
302.29201989989030608
302.26186074307423723
302.22968027501985944
302.19750492379938578
302.16938322250871352
302.15123196907859437
302.14904005240396145
302.16639685640910784
302.20291633293595623
302.25430123013404682
300.55760792175794904
300.56368390873643648
300.56989461005764497
300.57563175822838275
300.58043967593062007
300.58403074745586991
300.58663345738176531
300.58865530837067581
300.59068601511245333
300.59318658518810707
300.59642329828676566
300.60043211442683742
300.6053494823314054
300.61049901017548791
300.61587664204330395
300.62097740870871121
300.62537686603229758
300.62874144316907632
300.63190609217247129
300.63213503401925664
302.31524612470462898
302.31778668355605078
302.32418770380928663
302.33411100520271475
302.34806829286753782
302.36656934756956616
302.38872208947304898
302.41051366771307585
302.42587091989850023
302.4302055833529721
302.42207978799677903
302.40370207146668236
302.37897879254404643
302.3525415034690127
302.32750466203577844
302.30653558053353436
302.29153133672411968
302.2834638261547866
302.28167461157363505
302.2834039492664715
302.28458979039248788
302.28197243145257289
302.2750557245083769
302.26515852490450698
302.25414656660234414
302.24229777799916974
302.22910209118748526
302.2144585701661299
302.20090195378605813
302.19271610355656321
302.19368308516902744
302.20620451303483378
302.22978618095748971
300.59848296036500415
300.60636632543105407
300.61402846323841231
300.62057456411497469
300.62522972122496867
300.62775266568331745
300.62827835794968223
300.62751658050564174
300.62625761863154139
300.62533833560530638
300.62525587985118136
300.62662033607097101
300.62921329022384498
300.63316312279431486
300.63806905276800308
300.64338329396849758
300.64846195072004775
300.6541099610509491
300.6572685320262508
302.26171541457421199
302.27225810596684141
302.29203204264803162
302.32044033891696699
302.35550826619618192
302.39307425318929745
302.42670027314960635
302.4500031392924484
302.45860384823288314
302.45185080853445925
302.43197966114610153
302.40311536504418655
302.36907210831907378
302.33330819430091196
302.29960728801950154
302.27065976065631503
302.24778247700317024
302.23023940691240341
302.21653818168942962
302.20588861616175791
302.19892158395856541
302.19753452202542121
302.20320257047228552
302.21545858590889111
302.23082840955862594
302.24436411204840169
302.2523450548362689
302.25378873223809251
302.25050851252632356
302.24575399140320542
302.24297424235152221
302.24504993852775669
300.63217968935947511
300.64156158588070866
300.65089447233333431
300.6588963474843581
300.66439525396054933
300.6667273677210801
300.66571307430962179
300.66204436896373409
300.6567755130305386
300.65141955451372269
300.64710337092537884
300.64499778881383918
300.64538738430690046
300.64852200646566871
300.65404402781297222
300.66123853130835641
300.66898152521446264
300.67792139720518207
300.68452558308473499
302.24355627390502832
302.2727787796562211
302.31275744192623733
302.35847740107982418
302.40342047103257528
302.44005571242007591
302.4630190140478021
302.46955753694595614
302.46063473203162175
302.43892301342060591
302.4080447020666611
302.37066060446454685
302.32960984548373062
302.2877824245863394
302.24864844458295465
302.21481673064363349
302.18668765697702838
302.16376584072759215
302.14677051640717309
302.13847502783090704
302.14228344483632327
302.15982235839459236
302.18908178391387764
302.22464773076745814
302.25869064708280121
302.28436182130639054
302.29739683494176461
302.29783200913630026
302.28885219884750768
302.2752883628517111
300.67284857078561799
300.68357390631143744
300.69302777464878318
300.69966450929723578
300.70244924810123166
300.70090281253800413
300.69555622906028702
300.68744429159545462
300.67847716621020027
300.67033351013088804
300.66486262042042199
300.66300469398703399
300.66524512072044217
300.67139052800200716
300.68071141769200949
300.69150192355817808
300.70415366418654912
300.71454475023648456
302.25805791144983914
302.30522234128625314
302.3578643165328117
302.40807243160338658
302.44778139877558942
302.47132346241431833
302.47750260063548922
302.46885695527691951
302.44940840120307257
302.42229960648302267
302.38833706529646861
302.34721252954437887
302.29963874923652156
302.24852520721799465
302.19790769111500595
302.15197279160628341
302.11377372432349375
302.08666161109135828
302.07468009437837964
302.08230369646355484
302.11058592056190264
302.15710392745194213
302.21403349673801131
302.26996200670635062
302.31366827250280949
302.33678928086584392
302.33740719976424316
302.3197225507535677
300.69690850023545181
300.70860992943448764
300.71957061939161804
300.72795628538858637
300.73233271966375924
300.73185351458266723
300.72675950134629375
300.71785977097454179
300.70712900434591575
300.69647916456426628
300.68827604618263649
300.68414852931408632
300.68505089101574868
300.69115426581026895
300.70193576585359096
300.71518920980730627
300.73111354974355436
300.74501441436893856
302.28853389300309118
302.33304591347985024
302.37793958026821883
302.41641285006579665
302.44320061198624217
302.45739942108764353
302.46114961656991227
302.45686649431951309
302.44431287787085694
302.42136652261876861
302.38420383299961713
302.33193299716396041
302.26814844955555373
302.20063660289639529
302.13815662049682942
302.08798055934931881
302.05475770336420283
302.04206413116855856
302.05206113830359982
302.0864568675158921
302.14252977557083568
302.21270137982639881
302.28464733008752319
302.34430751780706714
302.38045184965670842
302.38849482709292715
302.3709600150298229
300.72369267289604977
300.7359150251201072
300.74613435091208657
300.75264356549160993
300.75423824598641431
300.75084492150807591
300.74295323293955562
300.73243401531482277
300.72116883048209957
300.71167135101256918
300.70598440450385169
300.7054981371750273
300.7107893005630217
300.72177905903998862
300.73604906034654505
300.7537754581364311
300.77000451981206197
302.25442231775843993
302.28650730525373547
302.32455570863527328
302.36557256657641801
302.40442340867258508
302.43665624510236967
302.46059852393221945
302.47619330656607417
302.48331983648137111
302.48033622374282459
302.46206407288127593
302.42406583267495535
302.3651278801846729
302.28963741616354355
302.20691163268213586
302.12842503121106574
302.06436734168380553
302.02146946539141936
302.00454479592610824
302.01665545293360537
302.05973664340388041
302.13047723199099437
302.21910423643640797
302.31012837720999187
302.38492773971336192
302.42911943566298305
302.43587623149437604
300.74166185974024756
300.75232581780340979
300.75951262123368224
300.76213644065768449
300.76004601453166742
300.75354735933086658
300.74433532776214406
300.73401921818503979
300.72495989409401318
300.71920333438981743
300.71826199912339916
300.72285587661093587
300.73329243835468105
300.74711835679420346
300.76461791099893617
300.78116229567996243
302.27518225481463787
302.29753650682278021
302.32374100856634414
302.35514352174124042
302.3905178490725234
302.42652969077931857
302.45939956922313741
302.48594240609151029
302.50363569315163659
302.5085628574383918
302.49493137499922568
302.45856445727980599
302.39834024058734485
302.31892720041264511
302.22940260543742852
302.14187721868518111
302.06751408375714618
302.01534285598808083
301.99155159066594933
302.0012517470088369
302.04634472431467884
302.1243287985055872
302.225072807550589
302.3312484287425832
302.42210442952483618
302.47943159756317755
302.49297673424638333
302.46520362465162179
300.74609989844640268
300.75152034571169679
300.75266780981479542
300.74978153290476257
300.74339890006132237
300.73518359063689331
300.72644107275954184
300.71911678580750049
300.71478123197243804
300.71459962099828545
300.71901506515496294
300.72852314520810069
300.74080825029227526
300.75638777004314761
300.77144071186876317
302.31271868860125096
302.34220461889361786
302.37886592806484032
302.42068515317095034
302.46250496718806744
302.49751845440221132
302.52159467403367898
302.5320494642775202
302.5267281139131228
302.5032762856715749
302.45935504052283704
302.39462255641063848
302.31281570801610314
302.22219195416658977
302.13398448652935713
302.05984209652820027
302.00976895701603553
301.99104002523654344
302.00813135220437289
302.06221996111224826
302.15014847267116238
302.26216891771167639
302.38181825823994586
302.48841404689710544
302.56153948774579021
302.58843362911613895
302.56637197815564377
300.73587880140541984
300.73475042765488752
300.73043034866924472
300.72373627779768412
300.71628426523790267
300.70910352922970787
300.70373345700170375
300.70116606973573425
300.70207425768836629
300.70646481536772399
300.71485599652004339
300.72514478886046163
300.73812002293959722
300.75097956864897242
302.33748684788463379
302.38668765655745574
302.44356594533633142
302.49934420254385259
302.54393447737913903
302.57058144210571982
302.57745049442206664
302.56541957603371884
302.53575346288471337
302.48815584551078928
302.42179908651530695
302.3382186571008674
302.24398814565108751
302.14937858820508154
302.06692963426462484
302.00939617896227674
301.98688692523086274
302.00482110666206381
302.06413262277777676
302.16060921425378183
302.28343198401279324
302.41549403476113866
302.53539522043598708
302.62169651791390379
302.65960263246313389
302.6444279552840726
300.71050098406249163
300.70465038467585828
300.69748609828934605
300.69068056728076499
300.68507662022403792
300.68173354558541632
300.68092613408180114
300.68281792442661526
300.68699506607356398
300.69394932345591087
300.70186491090089476
300.71178950953844833
300.72203196460003483
302.39973071965766849
302.470213401825049
302.53524123097071197
302.58313501802285828
302.60701864194561495
302.60756540910330159
302.58889462937185044
302.55513473276522518
302.50636868160739823
302.44013732366374825
302.35575552675896915
302.25764204425547632
302.15596084414460165
302.06510342812862291
302.00023360119024574
301.97335919048111919
301.9915180835170645
302.05613789238918798
302.16288186412526784
302.30051323996605106
302.44998149366608686
302.58665739162040609
302.68539185713706274
302.72842430305678363
302.71020990857215338
300.67618180136321371
300.66888081680770028
300.66281885501757642
300.65859878890216805
300.65685570796995307
300.65731450338034847
300.65975822426668174
300.6633672571405782
300.66859393648576315
300.67397299058592353
300.68073795056363906
300.68824596029242002
302.4990046926639593
302.57682958122347827
302.62933671423132864
302.64993607644851181
302.64129595498445724
302.61147419901590183
302.56760612315844128
302.51191855912725259
302.44292373207815672
302.35960804857404582
302.2647931994434316
302.16696038920753153
302.07894229381020068
302.01433954212012623
301.98442965484997558
301.99718058773953544
302.05617353470483977
302.1599080401309152
302.30016633227393186
302.45955861508991802
302.61377041796856702
302.73589256664337199
302.80390578925357659
302.80656037766487998
302.60284825243098794
302.66343393106376425
302.68317177676175334
302.66650302563988362
302.62532510096934857
302.57011273544350161
302.50628240378534883
302.43407338962276754
302.35104452908609574
302.25745368819991654
302.15883600902850503
302.06583614719676234
301.99235754247609975
301.9523505258739533
301.95770193961152472
302.01540783031208548
302.12473107066273315
302.27563664139239563
302.44878617120190256
302.61791183939135408
302.7557532102038067
302.83965532975065571
302.85748363040926279
302.70076985642401723
302.70192832347754575
302.67427095554637617
302.62695022689047164
302.56589246114498337
302.49254457593792722
302.40650023033117577
302.308816317096273
302.20424211845624995
302.10272122442705722
302.01781205416267539
301.96545480297686481
301.9603989448178254
302.01298202714349372
302.12382663718722142
302.28199824802698004
302.4652832523596544
302.64385317824866206
302.78818060948282209
302.87472141198873032
302.8918739585392359
302.60733870768939369
302.52523589837602458
302.43201301796256075
302.33087315930725936
302.22686542945803012
302.12732602485010602
302.04294515808868482
301.98728774391372554
301.97546073071373485
302.01950930342803758
302.12398902249560706
302.28175449814625608
302.47303954631223633
302.66847336102381405
302.83493556645436229
302.94374334362709078
302.9770417751138325
302.20501426203890105
302.11047396545768606
302.02883466203013541
301.97280130087858652
301.95732374219198846
301.99498409196536386
302.09100839705433827
302.23998873945646437
302.42603939150455972
302.62505557765587128
302.80841416198893512
302.94837076660701314
303.02272504656860974
302.12064533517190057
302.0351643198871443
301.98051000340177552
301.97225966875004133
302.02125465569196194
302.12845689946288985
302.28421224658944766
302.46984745866376443
302.66148756869085901
302.8342624693492553
302.96526613014214036
303.03617835672201863
301.61307319303818986
301.5368944697987672
301.44263721969321068
301.35128812636395423
301.28897994386136361
301.27916487047923511
301.33458753273390585
301.44884852582106305
301.59726987033650403
301.74585917159942028
301.86499951871951453
301.94055809565952586
301.97687558913520434
301.98919739340630031
301.99392282730252646
302.0017495006666195
302.01699517047660493
302.04043088542795203
302.06995302090069799
302.0984863331830752
301.65907762082872523
301.6384022584773561
301.58511862940730452
301.50246972065832551
301.40620413603892302
301.32275957515099662
301.28055493131267895
301.29957718070494366
301.38194511101772832
301.50994005524040631
301.65428728931846081
301.78594290043167803
301.88575540018115362
301.94940523874896598
301.98364601447883615
301.99864638002821948
302.0030706051018683
302.00386752945013313
302.00816523539612035
302.0219984211041151
302.04658826280979156
302.07524414214429953
301.61604145126705134
301.63642150373959794
301.65104804769856628
301.64902425224795479
301.61920247582816046
301.556794671906232
301.47085798327327666
301.38400308290363228
301.32578446952578588
301.31903567305784009
301.37225532201460965
301.47458668997330733
301.60355465983542445
301.73386123138146786
301.84578479202605195
301.92928672815816071
301.98445249324447559
302.01502636847834538
302.02587922472213222
302.02312072485119643
302.01569511211147301
302.01387253780279707
302.0250506154157506
302.04860250899406537
302.07403901965159321
302.08365530161876222
301.70016432401286011
301.71498026685407012
301.72126404778566666
301.71581025644087504
301.69659666652239594
301.66223306586800845
301.6149820885368058
301.56606625515956921
301.53362709980530099
301.53512575554742625
301.57884254489459863
301.65919819370321875
301.75962461587090502
301.86099639432671893
301.94828111578266316
302.01407938933954256
302.05958913860996518
302.09149894958943605
302.11563906455762663
302.13406327049381161
302.14589378949779075
302.15050132808613625
302.14958475344104727
302.14597513241994875
302.13992151211692772
302.12816526382482607
302.10531652137132141
302.06781315139681965
301.9674732052770878
301.97663443072769951
301.96355031105730404
301.93454355299894587
301.90747194841026158
301.90099837611751354
301.92384794979159324
301.97444630174783242
302.04589190219280681
302.12993967552114327
302.21597547116067517
302.29187504904388106
302.34523202042879575
302.37020982678973269
302.37034528480239715
302.3574855316586536
302.34578119574786115
302.34600159923382989
302.36109492724222036
302.38425022940907638
302.40101789372312169
302.39782716834218945
302.36944310793029445
302.32383757843120975
302.27848115652017214
302.25173988870614039
302.25512513527650071
302.28971960933165519
302.34704591761897063
302.41286666661812887
302.32808959417832284
302.37003461366975898
302.4069773349812067
302.42729568874898405
302.42880398801503361
302.42122096136591836
302.41673085773129515
302.4217413091557205
302.43635886076395991
302.45977165442548085
302.49261501313930012
302.53276392639116921
302.57272928273562229
302.60244787931117116
302.61379335551566783
302.6067233273742545
302.58748802474900685
302.56587351236760242
302.55044622058989034
302.54727560557699917
302.55550104852960658
302.56715310671245334
302.57159429743734336
302.56124544871096305
302.53664513443851547
302.5062892061850448
302.48146309639713536
302.47136076551538508
302.48032998985434006
302.50629835694894609
302.5415556802017818
302.57677738344176532
302.3678050565354738
302.39127710269764293
302.40860297376491417
302.410898492940305
302.39869301013681024
302.38321036484256865
302.37519754167544761
302.37793129640130019
302.38823099668371697
302.40423251287722906
302.42734610773129589
302.45581856551717692
302.4809212698892793
302.49010598091678048
302.47575709322069315
302.43989153627558153
302.39347822293416357
302.3507570563259037
302.32360088224476158
302.31768024706894948
302.33031664954296502
302.35007856704680762
302.36224203014251088
302.35667291691788705
302.33233020542314762
302.29739998919632171
302.26351243281845882
302.24062539045007725
302.23351974908496231
302.24078786927685769
302.25619191507036021
302.27224496984678126
302.28366585064185301
301.35774500505243623
301.38895992023429926
301.38103152936099605
301.35393451171069046
301.34723081608331086
301.38317924559305538
301.90321126129316553
301.91680900132831766
301.92746080056105029
301.92582590600818548
301.91164788556545773
301.89490785851273813
301.88523028516038949
301.88417374243095992
301.88742592540467058
301.89373132623740048
301.90616274481823211
301.92553500185317716
301.94384675305269639
301.94838058424522842
301.9311990721620873
301.89398186401564317
301.84691262267904222
301.8036089996684268
301.7753597904291496
301.76730159259381026
301.7770209444092302
301.79371527159617017
301.8026908797396004
301.79400763602421875
301.76651919265771085
301.72812076942909698
301.69100447236877471
301.66518229761243219
301.65560161775977122
301.66122368310703905
301.67587093588826974
301.69199684405418793
301.70415096658189213
301.71203474769208697
300.63867663894683346
300.68630932232287023
300.70636070583185528
300.68762503736331837
300.65010344495169647
300.63365919114392
300.65994994075521163
300.91587629928267233
300.93173277001073984
300.9449493306647696
300.94568525590671015
300.93375459804531147
300.91890148076879541
300.91130260970641075
300.91228214596316093
300.91753560465690498
300.92620125566202205
300.94169256249563205
300.96528893719738562
300.98846172981035352
300.99736018541807425
300.98413349909833414
300.95010102959918186
300.90598590803796242
300.86594033500318801
300.84145107195166702
300.83763339861513941
300.851962009758779
300.87363434786681182
300.8876754926603212
300.88375534051306204
300.86096833579892973
300.82708471533163674
300.79432723884946199
300.77299754372802454
300.76818460658108734
300.77895259836310515
300.79907355046282191
300.82095126329085133
300.83901781795424313
300.85271295802658642
300.86632745765831487
300.42850904280123814
300.41741677088629103
300.4078821793926295
300.40138320588778242
300.39866417121282893
300.40082815357419577
300.40745323376586384
300.4186857670910058
300.43343778358206464
300.45151047246514509
300.46966362258177696
302.4950381030393487
302.49393147022215089
302.48549805648059419
302.47136955232519995
302.45323042805273417
302.43300608820368325
302.41281272406507696
302.39493631649980898
302.38065359268813381
302.37017563746621818
302.36240221746430734
302.35545336669821381
302.34779444846691376
302.33964991094768493
302.33360147120288275
302.33433432089185544
302.34676660149540339
302.37271044794209729
302.40941622513406628
302.4501542413498214
302.48690526019106528
302.51293688838813978
302.52331877708843422
302.51454925925986572
302.4838519971833648
302.42943030699149176
302.35280855130395139
302.26016476434301694
302.16279194763251326
302.07577957284945569
302.01505643695725212
301.99354593085672605
302.01846810309086777
302.08937152755413535
302.19817101018401218
302.32956726006557346
300.44702133523418297
300.45645086220031317
300.46646024960324439
300.47617552991380308
300.48441241123981627
300.49001125659566469
300.49190766252638696
300.48969498934104649
300.48349831929772336
300.47416053869955022
300.46318404247722356
300.45221689829162415
300.44313568451536867
300.43755325629319941
300.4361911797667517
300.43992665443164469
300.44806934901265549
300.46041988894808128
300.47563297989972853
300.49331832763459715
300.51022305811528668
302.47150592604742769
302.4616603135231685
302.44578829484089511
302.42834115055075017
302.41140212894168826
302.39606222849027972
302.38267691561219408
302.37167365310807554
302.36305264220800382
302.35648397944697763
302.35105259976330672
302.34549906855664858
302.33924150876600834
302.33271528361171931
302.32778719925494215
302.32792641467494832
302.33691767089806035
302.35660427129829486
302.38513148336357972
302.41727634833813454
302.44619512400697658
302.46582886840224091
302.47165221974665883
302.46097679372320499
302.43202384240851188
302.38442304755812984
302.31985360370543958
302.24309253551552956
302.16263241920182736
302.09049879152496487
302.03909297833962455
302.0196336108447781
302.03889117692875743
302.09832333830729567
302.19235729761072662
302.30895902284981958
300.46586820155067699
300.47640934158471282
300.48852727664575468
300.50107540763031011
300.51252909096740495
300.52135431496918727
300.52617741419766162
300.5263960742726681
300.52207171481580872
300.51415191400593585
300.50425373270581986
300.49422228022439185
300.48602470215018911
300.48136186705636419
300.48096183871507492
300.48554718627087823
300.49430018492051886
300.50682137270632666
300.52159780791248522
300.53821966376597175
300.55348249892193735
302.45046254104471473
302.43023611459176436
302.40957953281673554
302.39187068645799172
302.37846195701388297
302.36921681811350027
302.36322171996584984
302.35916367504455593
302.35558155695235882
302.35151559360298279
302.34661888587652356
302.341304693244183
302.33615046141119365
302.33243910358743278
302.33171279961362643
302.33599847177481479
302.34714954786687713
302.36493650755761564
302.38697019070235683
302.40852259994881024
302.42373288447305413
302.42840164888229992
302.41961860813984231
302.39617187916331886
302.35833532106516941
302.30747699791459127
302.24655189471030781
302.18080736531857156
302.11816470155639536
302.06864206145058915
302.04308255449848275
302.05026144079306505
302.09457120292125865
302.17369827373084945
300.49472452544495127
300.50852216677333217
300.52375927901130126
300.53866055571074867
300.55138933145178726
300.56025124290374606
300.56432685156164553
300.56343052671888927
300.55840300132064158
300.55075525002860104
300.54236850298701711
300.53519465471288186
300.53100365651908987
300.53064152542424381
300.53484044818281973
300.5428858530664229
300.55441804012758666
300.56788940530867649
300.5830054204432713
300.59655072269407583
302.42770594093934733
302.40254819592576041
302.37805163040752632
302.35875615801865024
302.34681096192394989
302.34203130841490292
302.34239348841435913
302.3443287433354385
302.34491049580498157
302.34244779001761572
302.33816234436790182
302.33343125766765525
302.32951342178176901
302.32698089213113235
302.32583982380839416
302.32640244690696818
302.3298143293301905
302.33758151837321293
302.35002860073751663
302.36455100677920882
302.37615751845652312
302.38002549779440642
302.37227471402621859
302.35240354112545447
302.32186642772001051
302.28263227988713879
302.23684266522195685
302.18695733314973495
302.13666535150360914
302.09291001203695259
302.06553672177193448
302.06487034251824753
302.09740862472767731
302.16330878053520337
300.51249897430130886
300.52665518125957078
300.54352846744939143
300.56128872330145896
300.57792303078895202
300.59146437452181999
300.60059089763063866
300.60465024673442258
300.60408591508399923
300.60001473462813237
300.59412911075838792
300.58823152926481725
300.58412696621934401
300.58289267595512229
300.58547758716230192
300.59153310022321648
300.60095807518746369
300.61227749940132981
300.62546312874968635
300.63722519007734491
302.37254563210012748
302.34788182585043614
302.3272163814735336
302.31421716337251837
302.31078620707614846
302.31582524405791901
302.32504388905090309
302.33333285228695786
302.33782424897628971
302.33900856380648747
302.33837489904669837
302.33686135432287756
302.33390250988310299
302.3284011936909792
302.31988778432094023
302.31051802453919208
302.30432958748349392
302.304741409660096
302.31226694345519945
302.3229140254069307
302.32988695019434999
302.32791242807570598
302.31505548025342023
302.29277541177037847
302.26409454730412563
302.23095489200494512
302.19413306557379428
302.1549663916832742
302.11821348127608644
302.09219540603362475
302.08668031504788587
302.10932212056269464
300.54525792515175908
300.5618625564593458
300.58082345561871307
300.60017827444767136
300.61779110442904539
300.63194523677412917
300.64142040892403429
300.64605661900998257
300.64637474155881591
300.64371150331299987
300.63960539321891474
300.63587380048153364
300.63384770871601859