# Lagrangian Sum
# Time        	sum(KE)       	sum(GPE)      
0             0.000000e+00   0.000000e+00   
0.01          1.136932e-10   2.053703e-08   
0.02          2.765814e-10   4.102481e-08   
0.03          5.390879e-10   6.141285e-08   
0.04          9.546069e-10   8.164769e-08   
0.05          1.571741e-09   1.016807e-07   
0.06          2.434009e-09   1.214682e-07   
0.07          3.593429e-09   1.409583e-07   
0.08          5.099909e-09   1.601009e-07   
0.09          6.988447e-09   1.767958e-07   
0.1           9.330792e-09   1.951015e-07   
0.11          1.217344e-08   2.129063e-07   
0.12          1.556612e-08   2.301604e-07   
0.13          1.955469e-08   2.468179e-07   
0.14          2.419354e-08   2.628244e-07   
0.15          2.953565e-08   2.781267e-07   
0.16          3.564487e-08   2.947261e-07   
0.17          4.255151e-08   3.084620e-07   
0.18          5.031403e-08   3.213410e-07   
0.19          5.897922e-08   3.333163e-07   
0.2           6.859792e-08   3.443369e-07   
0.21          7.922629e-08   3.543466e-07   
0.22          9.091465e-08   3.632951e-07   
0.23          1.037132e-07   3.711320e-07   
0.24          1.176747e-07   3.778046e-07   
0.25          1.328504e-07   3.832615e-07   
0.26          1.492884e-07   3.874547e-07   
0.27          1.670335e-07   3.903391e-07   
0.28          1.861365e-07   3.918640e-07   
0.29          2.062616e-07   3.923656e-07   
0.3           2.257493e-07   3.935054e-07   
0.31          2.436940e-07   3.961900e-07   
0.32          2.602762e-07   4.002386e-07   
0.33          2.755279e-07   4.056195e-07   
0.34          2.900273e-07   4.117536e-07   
0.35          3.033267e-07   4.190890e-07   
0.36          3.153650e-07   4.276871e-07   
0.37          3.267322e-07   4.369571e-07   
0.38          3.371098e-07   4.472180e-07   
0.39          3.460578e-07   4.589101e-07   
0.4           3.540797e-07   4.715293e-07   
0.41          3.616245e-07   4.846264e-07   
0.42          3.680041e-07   4.988900e-07   
0.43          3.735419e-07   5.139964e-07   
0.44          3.781575e-07   5.300260e-07   
0.45          3.820547e-07   5.467750e-07   
0.46          3.854347e-07   5.640418e-07   
0.47          3.885192e-07   5.816045e-07   
0.48          3.910277e-07   5.997439e-07   
0.49          3.927582e-07   6.186621e-07   
0.5           3.940643e-07   6.380053e-07   
0.51          3.950146e-07   6.577047e-07   
0.52          3.954199e-07   6.779498e-07   
0.53          3.956563e-07   6.983640e-07   
0.54          3.957104e-07   7.189607e-07   
0.55          3.959586e-07   7.393631e-07   
0.56          3.960820e-07   7.598904e-07   
0.57          3.961360e-07   7.804872e-07   
0.58          3.959159e-07   8.013584e-07   
0.59          3.961703e-07   8.217546e-07   
0.6           3.965750e-07   8.420003e-07   
0.61          3.966321e-07   8.625939e-07   
0.62          3.974536e-07   8.824223e-07   
0.63          3.983285e-07   9.021972e-07   
0.64          3.996823e-07   9.214926e-07   
0.65          4.013937e-07   9.404300e-07   
0.66          4.033426e-07   9.591296e-07   
0.67          4.060076e-07   9.771123e-07   
0.68          4.089902e-07   9.947771e-07   
0.69          4.120826e-07   1.012332e-06   
0.7           4.158207e-07   1.029240e-06   
0.71          4.201903e-07   1.045516e-06   
0.72          4.254672e-07   1.060884e-06   
0.73          4.315140e-07   1.075480e-06   
0.74          4.382549e-07   1.089382e-06   
0.75          4.457528e-07   1.102526e-06   
0.76          4.541251e-07   1.114795e-06   
0.77          4.635178e-07   1.126042e-06   
0.78          4.739526e-07   1.136245e-06   
0.79          4.854847e-07   1.145350e-06   
0.8           4.987804e-07   1.152689e-06   
0.81          5.127086e-07   1.159395e-06   
0.82          5.278861e-07   1.164850e-06   
0.83          5.439064e-07   1.169462e-06   
0.84          5.615408e-07   1.172457e-06   
0.85          5.802987e-07   1.174327e-06   
0.86          6.004249e-07   1.174828e-06   
0.87          6.200757e-07   1.175804e-06   
0.88          6.378041e-07   1.178705e-06   
0.89          6.547147e-07   1.182425e-06   
0.9           6.699613e-07   1.187811e-06   
0.91          6.848198e-07   1.193586e-06   
0.92          6.983809e-07   1.200659e-06   
0.93          7.107260e-07   1.208950e-06   
0.94          7.222185e-07   1.218095e-06   
0.95          7.326994e-07   1.228252e-06   
0.96          7.417244e-07   1.239867e-06   
0.97          7.495433e-07   1.252690e-06   
0.98          7.573482e-07   1.265526e-06   
0.99          7.640373e-07   1.279480e-06   
1             7.692080e-07   1.294954e-06   
1.01          7.738515e-07   1.290305e-06   
1.02          7.776489e-07   1.286503e-06   
1.03          7.812296e-07   1.282918e-06   
1.04          7.840870e-07   1.280057e-06   
1.05          7.862275e-07   1.277914e-06   
1.06          7.872238e-07   1.276917e-06   
1.07          7.872750e-07   1.276865e-06   
1.08          7.866220e-07   1.277519e-06   
1.09          7.851977e-07   1.278945e-06   
1.1           7.831905e-07   1.280955e-06   
1.11          7.805115e-07   1.283637e-06   
1.12          7.771312e-07   1.287021e-06   
1.13          7.729318e-07   1.291226e-06   
1.14          7.681098e-07   1.296053e-06   
1.15          7.624577e-07   1.301712e-06   
1.16          7.567090e-07   1.307468e-06   
1.17          7.505232e-07   1.313661e-06   
1.18          7.429287e-07   1.321265e-06   
1.19          7.349728e-07   1.329230e-06   
1.2           7.260172e-07   1.338197e-06   
1.21          7.166272e-07   1.347598e-06   
1.22          7.066960e-07   1.357541e-06   
1.23          6.957932e-07   1.368457e-06   
1.24          6.842496e-07   1.380014e-06   
1.25          6.721124e-07   1.392166e-06   
1.26          6.586325e-07   1.405662e-06   
1.27          6.443447e-07   1.419967e-06   
1.28          6.297434e-07   1.434586e-06   
1.29          6.148886e-07   1.449459e-06   
1.3           6.014283e-07   1.462935e-06   
1.31          5.901427e-07   1.474234e-06   
1.32          5.808767e-07   1.483512e-06   
1.33          5.736376e-07   1.490759e-06   
1.34          5.687278e-07   1.495675e-06   
1.35          5.660119e-07   1.498394e-06   
1.36          5.654263e-07   1.498981e-06   
1.37          5.676340e-07   1.496770e-06   
1.38          5.716912e-07   1.492708e-06   
1.39          5.778650e-07   1.486527e-06   
1.4           5.857031e-07   1.478679e-06   
1.41          5.959864e-07   1.468384e-06   
1.42          6.083408e-07   1.456015e-06   
1.43          6.228493e-07   1.441489e-06   
1.44          6.378553e-07   1.426464e-06   
1.45          6.515331e-07   1.412770e-06   
1.46          6.652091e-07   1.399078e-06   
1.47          6.775128e-07   1.386759e-06   
1.48          6.901339e-07   1.374123e-06   
1.49          7.018762e-07   1.362367e-06   
1.5           7.127859e-07   1.351444e-06   
1.51          7.231909e-07   1.341026e-06   
1.52          7.329796e-07   1.331226e-06   
1.53          7.415098e-07   1.322686e-06   
1.54          7.490464e-07   1.315140e-06   
1.55          7.564878e-07   1.307689e-06   
1.56          7.633265e-07   1.300843e-06   
1.57          7.684757e-07   1.295687e-06   
1.58          7.732204e-07   1.290937e-06   
1.59          7.769768e-07   1.287176e-06   
1.6           7.806802e-07   1.283468e-06   
1.61          7.836517e-07   1.280493e-06   
1.62          7.860025e-07   1.278139e-06   
1.63          7.870459e-07   1.277095e-06   
1.64          7.872746e-07   1.276866e-06   
1.65          7.867110e-07   1.277430e-06   
1.66          7.854875e-07   1.278655e-06   
1.67          7.835962e-07   1.280549e-06   
1.68          7.809596e-07   1.283188e-06   
1.69          7.777179e-07   1.286434e-06   
1.7           7.736042e-07   1.290553e-06   
1.71          7.689053e-07   1.295257e-06   
1.72          7.633430e-07   1.300826e-06   
1.73          7.575272e-07   1.306649e-06   
1.74          7.514935e-07   1.312690e-06   
1.75          7.441148e-07   1.320077e-06   
1.76          7.361798e-07   1.328022e-06   
1.77          7.273409e-07   1.336871e-06   
1.78          7.180964e-07   1.346127e-06   
1.79          7.082127e-07   1.356023e-06   
1.8           6.975090e-07   1.366739e-06   
1.81          6.859951e-07   1.378267e-06   
1.82          6.740090e-07   1.390267e-06   
1.83          6.606590e-07   1.403633e-06   
1.84          6.464905e-07   1.417819e-06   
1.85          6.318092e-07   1.432518e-06   
1.86          6.170601e-07   1.447285e-06   
1.87          6.032759e-07   1.461085e-06   
1.88          5.917413e-07   1.472634e-06   
1.89          5.821148e-07   1.482272e-06   
1.9           5.745622e-07   1.489834e-06   
1.91          5.693314e-07   1.495071e-06   
1.92          5.663332e-07   1.498073e-06   
1.93          5.653664e-07   1.499041e-06   
1.94          5.671734e-07   1.497231e-06   
1.95          5.710720e-07   1.493328e-06   
1.96          5.768897e-07   1.487503e-06   
1.97          5.843118e-07   1.480072e-06   
1.98          5.942900e-07   1.470082e-06   
1.99          6.064155e-07   1.457942e-06   
2             6.206110e-07   1.443730e-06   
2.01          6.356707e-07   1.428652e-06   
2.02          6.494553e-07   1.414851e-06   
2.03          6.633051e-07   1.400984e-06   
2.04          6.755799e-07   1.388695e-06   
2.05          6.883233e-07   1.375936e-06   
2.06          7.001688e-07   1.364076e-06   
2.07          7.112526e-07   1.352979e-06   
2.08          7.216862e-07   1.342533e-06   
2.09          7.316343e-07   1.332573e-06   
2.1           7.402924e-07   1.323904e-06   
2.11          7.479725e-07   1.316215e-06   
2.12          7.554179e-07   1.308761e-06   
2.13          7.624051e-07   1.301765e-06   
2.14          7.677383e-07   1.296425e-06   
2.15          7.725420e-07   1.291616e-06   
2.16          7.763454e-07   1.287808e-06   
2.17          7.801682e-07   1.283981e-06   
2.18          7.832728e-07   1.280872e-06   
2.19          7.857546e-07   1.278388e-06   
2.2           7.869003e-07   1.277240e-06   
2.21          7.872474e-07   1.276893e-06   
2.22          7.867497e-07   1.277391e-06   
2.23          7.856761e-07   1.278466e-06   
2.24          7.839598e-07   1.280184e-06   
2.25          7.813646e-07   1.282783e-06   
2.26          7.782170e-07   1.285934e-06   
2.27          7.742145e-07   1.289941e-06   
2.28          7.696207e-07   1.294541e-06   
2.29          7.642612e-07   1.299907e-06   
2.3           7.583584e-07   1.305817e-06   
2.31          7.524728e-07   1.311709e-06   
2.32          7.452287e-07   1.318962e-06   
2.33          7.373815e-07   1.326819e-06   
2.34          7.286624e-07   1.335548e-06   
2.35          7.195354e-07   1.344686e-06   
2.36          7.097302e-07   1.354503e-06   
2.37          6.991582e-07   1.365088e-06   
2.38          6.877204e-07   1.376539e-06   
2.39          6.758832e-07   1.388391e-06   
2.4           6.626368e-07   1.401653e-06   
2.41          6.486639e-07   1.415643e-06   
2.42          6.339032e-07   1.430421e-06   
2.43          6.192604e-07   1.445082e-06   
2.44          6.051750e-07   1.459184e-06   
2.45          5.933694e-07   1.471004e-06   
2.46          5.833689e-07   1.481016e-06   
2.47          5.755284e-07   1.488866e-06   
2.48          5.699976e-07   1.494404e-06   
2.49          5.666572e-07   1.497748e-06   
2.5           5.653419e-07   1.499065e-06   
2.51          5.668206e-07   1.497585e-06   
2.52          5.704196e-07   1.493981e-06   
2.53          5.759183e-07   1.488476e-06   
2.54          5.830047e-07   1.481381e-06   
2.55          5.926641e-07   1.471710e-06   
2.56          6.045396e-07   1.459820e-06   
2.57          6.183474e-07   1.445996e-06   
2.58          6.334512e-07   1.430874e-06   
2.59          6.474392e-07   1.416869e-06   
2.6           6.613522e-07   1.402939e-06   
2.61          6.737325e-07   1.390544e-06   
2.62          6.865282e-07   1.377733e-06   
2.63          6.985130e-07   1.365734e-06   
2.64          7.096623e-07   1.354571e-06   
2.65          7.201234e-07   1.344098e-06   
2.66          7.302897e-07   1.333919e-06   
2.67          7.390199e-07   1.325178e-06   
2.68          7.468977e-07   1.317291e-06   
2.69          7.543515e-07   1.309828e-06   
2.7           7.614745e-07   1.302697e-06   
2.71          7.669278e-07   1.297237e-06   
2.72          7.718627e-07   1.292296e-06   
2.73          7.757835e-07   1.288371e-06   
2.74          7.797321e-07   1.284417e-06   
2.75          7.828919e-07   1.281254e-06   
2.76          7.854910e-07   1.278651e-06   
2.77          7.867556e-07   1.277385e-06   
2.78          7.872190e-07   1.276921e-06   
2.79          7.867941e-07   1.277347e-06   
2.8           7.858362e-07   1.278306e-06   
2.81          7.842436e-07   1.279900e-06   
2.82          7.817258e-07   1.282421e-06   
2.83          7.787039e-07   1.285447e-06   
2.84          7.748271e-07   1.289328e-06   
2.85          7.702981e-07   1.293863e-06   
2.86          7.650949e-07   1.299072e-06   
2.87          7.592842e-07   1.304890e-06   
2.88          7.533948e-07   1.310786e-06   
2.89          7.463976e-07   1.317792e-06   
2.9           7.385684e-07   1.325630e-06   
2.91          7.299860e-07   1.334223e-06   
2.92          7.209128e-07   1.343307e-06   
2.93          7.112821e-07   1.352949e-06   
2.94          7.008561e-07   1.363388e-06   
2.95          6.894202e-07   1.374838e-06   
2.96          6.776482e-07   1.386624e-06   
2.97          6.646219e-07   1.399666e-06   
2.98          6.507605e-07   1.413544e-06   
2.99          6.361041e-07   1.428218e-06   
3             6.215360e-07   1.442803e-06   
3.01          6.071087e-07   1.457248e-06   
3.02          5.950026e-07   1.469369e-06   
3.03          5.846849e-07   1.479699e-06   
3.04          5.765635e-07   1.487830e-06   
3.05          5.706713e-07   1.493729e-06   
3.06          5.670139e-07   1.497391e-06   
3.07          5.654140e-07   1.498993e-06   
3.08          5.664519e-07   1.497954e-06   
3.09          5.698083e-07   1.494593e-06   
3.1           5.749545e-07   1.489441e-06   
3.11          5.817771e-07   1.482610e-06   
3.12          5.911076e-07   1.473268e-06   
3.13          6.026638e-07   1.461698e-06   
3.14          6.161296e-07   1.448216e-06   
3.15          6.312386e-07   1.433089e-06   
3.16          6.454393e-07   1.418871e-06   
3.17          6.593466e-07   1.404947e-06   
3.18          6.719620e-07   1.392317e-06   
3.19          6.847106e-07   1.379553e-06   
3.2           6.968045e-07   1.367444e-06   
3.21          7.081240e-07   1.356111e-06   
3.22          7.185932e-07   1.345630e-06   
3.23          7.287960e-07   1.335415e-06   
3.24          7.377997e-07   1.326400e-06   
3.25          7.457839e-07   1.318406e-06   
3.26          7.531973e-07   1.310984e-06   
3.27          7.605441e-07   1.303628e-06   
3.28          7.661148e-07   1.298051e-06   
3.29          7.711935e-07   1.292966e-06   
3.3           7.752284e-07   1.288926e-06   
3.31          7.792654e-07   1.284885e-06   
3.32          7.825720e-07   1.281574e-06   
3.33          7.851841e-07   1.278959e-06   
3.34          7.866870e-07   1.277454e-06   
3.35          7.872378e-07   1.276902e-06   
3.36          7.868849e-07   1.277256e-06   
3.37          7.860681e-07   1.278074e-06   
3.38          7.845033e-07   1.279640e-06   
3.39          7.820809e-07   1.282066e-06   
3.4           7.792048e-07   1.284945e-06   
3.41          7.754950e-07   1.288659e-06   
3.42          7.710373e-07   1.293123e-06   
3.43          7.659242e-07   1.298242e-06   
3.44          7.601640e-07   1.304009e-06   
3.45          7.543168e-07   1.309863e-06   
3.46          7.475714e-07   1.316617e-06   
3.47          7.397981e-07   1.324399e-06   
3.48          7.313352e-07   1.332872e-06   
3.49          7.222436e-07   1.341975e-06   
3.5           7.127010e-07   1.351529e-06   
3.51          7.025763e-07   1.361666e-06   
3.52          6.911362e-07   1.373120e-06   
3.53          6.794207e-07   1.384849e-06   
3.54          6.666182e-07   1.397667e-06   
3.55          6.528277e-07   1.411474e-06   
3.56          6.383560e-07   1.425963e-06   
3.57          6.238462e-07   1.440490e-06   
3.58          6.091242e-07   1.455230e-06   
3.59          5.966700e-07   1.467699e-06   
3.6           5.860737e-07   1.478308e-06   
3.61          5.776402e-07   1.486752e-06   
3.62          5.714139e-07   1.492986e-06   
3.63          5.673809e-07   1.497024e-06   
3.64          5.655064e-07   1.498900e-06   
3.65          5.660463e-07   1.498360e-06   
3.66          5.691880e-07   1.495214e-06   
3.67          5.739405e-07   1.490456e-06   
3.68          5.806477e-07   1.483741e-06   
3.69          5.896049e-07   1.474773e-06   
3.7           6.008253e-07   1.463539e-06   
3.71          6.139418e-07   1.450407e-06   
3.72          6.289476e-07   1.435383e-06   
3.73          6.434388e-07   1.420874e-06   
3.74          6.573200e-07   1.406976e-06   
3.75          6.702450e-07   1.394036e-06   
3.76          6.828846e-07   1.381381e-06   
3.77          6.950632e-07   1.369188e-06   
3.78          7.065031e-07   1.357734e-06   
3.79          7.170760e-07   1.347149e-06   
3.8           7.273590e-07   1.336853e-06   
3.81          7.365980e-07   1.327603e-06   
3.82          7.446805e-07   1.319511e-06   
3.83          7.520692e-07   1.312113e-06   
3.84          7.595827e-07   1.304591e-06   
3.85          7.653719e-07   1.298795e-06   
3.86          7.704919e-07   1.293669e-06   
3.87          7.747594e-07   1.289396e-06   
3.88          7.787906e-07   1.285360e-06   
3.89          7.821648e-07   1.281982e-06   
3.9           7.848828e-07   1.279260e-06   
3.91          7.866253e-07   1.277516e-06   
3.92          7.872901e-07   1.276850e-06   
3.93          7.870014e-07   1.277139e-06   
3.94          7.863391e-07   1.277802e-06   
3.95          7.847694e-07   1.279374e-06   
3.96          7.824363e-07   1.281710e-06   
3.97          7.797151e-07   1.284434e-06   
3.98          7.761170e-07   1.288037e-06   
3.99          7.717665e-07   1.292392e-06   
4             7.667317e-07   1.297433e-06   
4.01          7.609821e-07   1.303190e-06   
4.02          7.552586e-07   1.308920e-06   
4.03          7.486695e-07   1.315517e-06   
4.04          7.409459e-07   1.323250e-06   
4.05          7.327143e-07   1.331492e-06   
4.06          7.236257e-07   1.340591e-06   
4.07          7.141053e-07   1.350123e-06   
4.08          7.041103e-07   1.360130e-06   
4.09          6.928198e-07   1.371434e-06   
4.1           6.811698e-07   1.383098e-06   
4.11          6.686568e-07   1.395626e-06   
4.12          6.549055e-07   1.409394e-06   
4.13          6.405685e-07   1.423748e-06   
4.14          6.260734e-07   1.438261e-06   
4.15          6.111841e-07   1.453168e-06   
4.16          5.983644e-07   1.466003e-06   
4.17          5.874866e-07   1.476894e-06   
4.18          5.787721e-07   1.485619e-06   
4.19          5.721924e-07   1.492206e-06   
4.2           5.678271e-07   1.496577e-06   
4.21          5.656350e-07   1.498772e-06   
4.22          5.657285e-07   1.498678e-06   
4.23          5.686146e-07   1.495788e-06   
4.24          5.730275e-07   1.491370e-06   
4.25          5.796013e-07   1.484789e-06   
4.26          5.881393e-07   1.476240e-06   
4.27          5.990383e-07   1.465328e-06   
4.28          6.118385e-07   1.452513e-06   
4.29          6.266936e-07   1.437640e-06   
4.3           6.414732e-07   1.422842e-06   
4.31          6.552138e-07   1.409085e-06   
4.32          6.684802e-07   1.395803e-06   
4.33          6.809551e-07   1.383313e-06   
4.34          6.933336e-07   1.370920e-06   
4.35          7.048766e-07   1.359363e-06   
4.36          7.155677e-07   1.348659e-06   
4.37          7.258238e-07   1.338390e-06   
4.38          7.353064e-07   1.328896e-06   
4.39          7.435607e-07   1.320632e-06   
4.4           7.509332e-07   1.313251e-06   
4.41          7.585251e-07   1.305650e-06   
4.42          7.646727e-07   1.299495e-06   
4.43          7.697660e-07   1.294395e-06   
4.44          7.742803e-07   1.289876e-06   
4.45          7.781697e-07   1.285982e-06   
4.46          7.816408e-07   1.282506e-06   
4.47          7.844583e-07   1.279685e-06   
4.48          7.864021e-07   1.277739e-06   
4.49          7.872896e-07   1.276851e-06   
4.5           7.871925e-07   1.276948e-06   
4.51          7.865488e-07   1.277592e-06   
4.52          7.850098e-07   1.279133e-06   
4.53          7.828606e-07   1.281285e-06   
4.54          7.801694e-07   1.283979e-06   
4.55          7.766805e-07   1.287472e-06   
4.56          7.724307e-07   1.291727e-06   
4.57          7.675327e-07   1.296631e-06   
4.58          7.618131e-07   1.302358e-06   
4.59          7.561239e-07   1.308054e-06   
4.6           7.497760e-07   1.314409e-06   
4.61          7.420716e-07   1.322123e-06   
4.62          7.340343e-07   1.330170e-06   
4.63          7.249826e-07   1.339233e-06   
4.64          7.155162e-07   1.348710e-06   
4.65          7.055601e-07   1.358678e-06   
4.66          6.944910e-07   1.369761e-06   
4.67          6.829230e-07   1.381343e-06   
4.68          6.706425e-07   1.393638e-06   
4.69          6.570427e-07   1.407254e-06   
4.7           6.427376e-07   1.421576e-06   
4.71          6.281795e-07   1.436152e-06   
4.72          6.132857e-07   1.451064e-06   
4.73          6.000957e-07   1.464269e-06   
4.74          5.889897e-07   1.475389e-06   
4.75          5.799360e-07   1.484453e-06   
4.76          5.729985e-07   1.491399e-06   
4.77          5.683155e-07   1.496088e-06   
4.78          5.658226e-07   1.498584e-06   
4.79          5.655209e-07   1.498886e-06   
4.8           5.680273e-07   1.496376e-06   
4.81          5.722247e-07   1.492174e-06   
4.82          5.786280e-07   1.485763e-06   
4.83          5.867214e-07   1.477660e-06   
4.84          5.973214e-07   1.467047e-06   
4.85          6.098345e-07   1.454519e-06   
4.86          6.244994e-07   1.439836e-06   
4.87          6.394599e-07   1.424858e-06   
4.88          6.531286e-07   1.411173e-06   
4.89          6.666564e-07   1.397629e-06   
4.9           6.789926e-07   1.385278e-06   
4.91          6.914999e-07   1.372755e-06   
4.92          7.031530e-07   1.361088e-06   
4.93          7.139924e-07   1.350236e-06   
4.94          7.243342e-07   1.339882e-06   
4.95          7.339870e-07   1.330217e-06   
4.96          7.424239e-07   1.321770e-06   
4.97          7.498461e-07   1.314339e-06   
4.98          7.573527e-07   1.306824e-06   
4.99          7.639546e-07   1.300214e-06   
5             7.690244e-07   1.295138e-06   
