/*--------------------------------*- C++ -*----------------------------------*\
  =========                 |
  \\      /  F ield         | OpenFOAM: The Open Source CFD Toolbox
   \\    /   O peration     | Website:  https://openfoam.org
    \\  /    A nd           | Version:  12
     \\/     M anipulation  |
\*---------------------------------------------------------------------------*/
FoamFile
{
    format      ascii;
    class       volScalarField;
    location    "0.00516";
    object      nut;
}
// * * * * * * * * * * * * * * * * * * * * * * * * * * * * * * * * * * * * * //

dimensions      [0 2 -1 0 0 0 0];

internalField   nonuniform List<scalar> 
106891
(
6.4038621605918877354e-06
6.3976021517302256487e-06
6.3899732305833010875e-06
6.3836672774232032393e-06
6.3758896058496050712e-06
6.3696785926610037927e-06
6.3618337573217922316e-06
6.3556561011857796114e-06
6.3477680691316455691e-06
6.3415916398859823144e-06
6.3328194470841362961e-06
9.7475140759633049247e-06
9.7385421974821350576e-06
9.7252199550896162349e-06
9.7060230443036071667e-06
9.6862949278451836974e-06
9.6676448160758860303e-06
9.6496326221619127561e-06
9.6335059204630386594e-06
9.618133199088618404e-06
9.6041010582050780113e-06
9.5901819762633831403e-06
9.5772012366944376393e-06
9.5641450640212762339e-06
9.5521676865990908265e-06
9.540226609634377714e-06
9.5293580115286493802e-06
9.5184874983685158439e-06
9.5084294171557013579e-06
9.4980966052598206096e-06
9.4882045930955504967e-06
9.4778387212132433816e-06
9.4677119220769756519e-06
9.4568681585531446412e-06
9.4464049832262321905e-06
9.4355060252361958354e-06
9.4249845154311544021e-06
9.4139373421515637567e-06
9.4034585457594816301e-06
9.3925266091020036572e-06
9.3819739470477165016e-06
9.3708188108871539023e-06
9.3600491752772452519e-06
9.3488559617334680547e-06
9.3383071100474293765e-06
9.3271830057329726621e-06
9.3165378391437052936e-06
9.3053158694421558009e-06
9.2944124101837106706e-06
6.8029415094480679649e-06
6.7945921674964606109e-06
6.7877978791159885382e-06
6.7795062736173678479e-06
6.7727615463289484566e-06
6.7645377862238503181e-06
6.7579264122900391281e-06
6.7498302421639698646e-06
6.7432705525240018929e-06
6.7351968570248640626e-06
6.7285727947948070486e-06
6.7203764046452904723e-06
6.7136879437428230953e-06
6.7053161673546068271e-06
6.6987147275565612909e-06
6.6902292505999906328e-06
6.6836047536185869269e-06
6.6750382450257830157e-06
6.6684162088622421662e-06
6.6588709561300991684e-06
1.025764093159685349e-05
1.0239951241583243859e-05
1.0218171333976307899e-05
1.0197531974771187427e-05
1.0177245312141015515e-05
1.0158726718554743446e-05
1.0141072705944600735e-05
1.0125305489248203703e-05
1.0110083984512696669e-05
1.0095983892830412464e-05
1.0081691211721300179e-05
1.0068341923087844464e-05
1.0054902358336005632e-05
1.0042570357888053203e-05
1.0030349630624750494e-05
1.0019179588029753517e-05
1.0007949089888681574e-05
9.9973566111014487489e-06
9.9863987825060071432e-06
9.9757250249042104054e-06
9.9642287674322672664e-06
9.9530376289546323407e-06
9.9413195276046623132e-06
9.9300831041411848554e-06
9.9182839239479296002e-06
9.9071589540982157586e-06
9.8956963048057156425e-06
9.8849174993766366498e-06
9.8736550579022695887e-06
9.8627751819405694251e-06
9.8512950332144552998e-06
9.8404405814449984798e-06
9.8289789629189061929e-06
9.8180286088180240503e-06
9.8064452326942853818e-06
9.7951831556570398874e-06
7.1565995805774536726e-06
7.1475759296757935957e-06
7.140253325673779181e-06
7.1312858489380586354e-06
7.1240427985285844823e-06
7.1151800292332020967e-06
7.1081170282764979289e-06
7.0994471414028285011e-06
7.092497084922403923e-06
7.0838406879002720846e-06
7.076819565816666267e-06
7.0680520005955019413e-06
7.0609673321709993357e-06
7.0519775225717311239e-06
7.0449476443518478709e-06
7.0358139426301158641e-06
7.0287522970692479192e-06
7.0195073906791512322e-06
7.0124318460921992053e-06
7.0020749906423461267e-06
1.0816200044157396127e-05
1.0804121075840693683e-05
1.0782555191173377146e-05
1.07577554446411187e-05
1.0733786303921280059e-05
1.0711821061133771634e-05
1.0690978779757988608e-05
1.0672331010054570013e-05
1.0654656909808030569e-05
1.06385159977901354e-05
1.062242384725597075e-05
1.0607475031371870581e-05
1.0592451372865578746e-05
1.0578613453296413483e-05
1.0564880886634439293e-05
1.0552368066502618298e-05
1.0539909943868464414e-05
1.0528211177184949269e-05
1.0516147923539559438e-05
1.0504405154312195615e-05
1.0491866800761260836e-05
1.0479682249240169516e-05
1.0466918275994525962e-05
1.0454641219593385066e-05
1.0441896807136822809e-05
1.0429953136461657864e-05
1.0417820303497761535e-05
1.0406479235113674759e-05
1.0394760151873669551e-05
1.0383483040356808477e-05
1.0371579615164581254e-05
1.0360205917909580934e-05
1.0348069996363311147e-05
1.0336360716146306363e-05
1.0323997615110594648e-05
1.0312089168284412072e-05
7.5190904374849946239e-06
7.5112517564840754054e-06
7.5015919415199644967e-06
7.4938522959872844572e-06
7.4843339513468029061e-06
7.4767931282397643111e-06
7.4674622475194319741e-06
7.4600192006122946237e-06
7.4507631125144529858e-06
7.4433103772941510464e-06
7.4339100303324564642e-06
7.4263758405592918138e-06
7.4167424159818914827e-06
7.4092620068321005754e-06
7.3994436625058159209e-06
7.3919097148800221169e-06
7.3819773332817685251e-06
7.3744507048242140731e-06
7.3632822632374555344e-06
1.1383718590064050775e-05
1.1355871351297458415e-05
1.1328662535708613148e-05
1.1303421937357970858e-05
1.1279148742624686087e-05
1.1257114056975611204e-05
1.1236363077049923596e-05
1.1217803122544387737e-05
1.1199923997487208936e-05
1.1183564123312742712e-05
1.1167108771087590763e-05
1.1151698331528034702e-05
1.1136238138393000691e-05
1.1122016671685568565e-05
1.1107999111277225464e-05
1.1095036353835490979e-05
1.1082020812157674814e-05
1.1069641186323538607e-05
1.1056660406602561558e-05
1.1044128066811082132e-05
1.1030866296562923115e-05
1.1017999079045471219e-05
1.1004477159450115102e-05
1.099169634611366528e-05
1.0978646035608829104e-05
1.0966516104130548875e-05
1.0954229782272055882e-05
1.0942679975506803695e-05
1.0930497666033244775e-05
1.0918705396558651949e-05
1.0905920997059819044e-05
1.0893499882338014605e-05
1.088035342239857968e-05
1.086767739867624623e-05
7.9203977346255982552e-06
7.9100228445431826807e-06
7.9016997126504669836e-06
7.8913475600798691601e-06
7.8831226101531016569e-06
7.872950610043091989e-06
7.8648968041839261339e-06
7.8548931337044666459e-06
7.8469277529751340543e-06
7.8369520313508629075e-06
7.8289414855361355897e-06
7.818856987731491451e-06
7.8108176138796234678e-06
7.8004700251933455465e-06
7.7924687119099887093e-06
7.7819294814639594236e-06
7.7738941523399890501e-06
7.7632702686830304265e-06
7.7552859586430252588e-06
7.74331068543853241e-06
1.1989393302788970943e-05
1.1960876860900342272e-05
1.1933476067305279856e-05
1.1906749894146356078e-05
1.1882086459236067478e-05
1.1858477366036074605e-05
1.1837172372251966975e-05
1.1816905074639468242e-05
1.1798683361480090119e-05
1.1780627289023288867e-05
1.1763651550921075831e-05
1.1746373901467625688e-05
1.1730088709264382014e-05
1.1713895004287524349e-05
1.1698942826292441563e-05
1.1684196679698950625e-05
1.1670374985766952225e-05
1.1656184690171672867e-05
1.1642806528903763515e-05
1.1628905305403505987e-05
1.1615547003030593496e-05
1.1601351932905862053e-05
1.1587741880651732047e-05
1.157366270516061223e-05
1.1560486539713978559e-05
1.1547199716721025345e-05
1.1534912405848643459e-05
1.1522160115619331682e-05
1.1509925376291172924e-05
1.1496547168460292062e-05
1.148337207953905269e-05
1.146925191284184707e-05
1.1455538489114797546e-05
8.3214981104875631712e-06
8.3127049668297522684e-06
8.3016576351427862713e-06
8.2929056671240066368e-06
8.2820085701393149282e-06
8.2734012084083846498e-06
8.2626431496804698718e-06
8.2540831173641665119e-06
8.2433238905609632085e-06
8.2347282847596418208e-06
8.2238566123294423423e-06
8.2152255470865245785e-06
8.2040975719183723052e-06
8.1955605450966594419e-06
8.1842805395787534309e-06
8.175711959736830782e-06
8.1643860994930093835e-06
8.1559341355824808084e-06
8.1432168040064067358e-06
1.2587158919108361885e-05
1.2559346648150049338e-05
1.2532215686507246942e-05
1.2507097786835162081e-05
1.2483137204073916997e-05
1.2461519735604907041e-05
1.244089444853382891e-05
1.2422323998310718442e-05
1.24038369591905414e-05
1.2386367400570857871e-05
1.2368376845945490148e-05
1.2351310063659274956e-05
1.2334241173384664515e-05
1.2318411853491116679e-05
1.2302731688276173961e-05
1.2287984549381427075e-05
1.2272924016743398182e-05
1.2258758531747743613e-05
1.2244075617132176283e-05
1.2229960131163272497e-05
1.221504569575639216e-05
1.2200697023982923109e-05
1.2185860597953741079e-05
1.2171869808201598971e-05
1.2157731881507069925e-05
1.2144563201003397843e-05
1.2130883726420105281e-05
1.2117643721463214709e-05
1.2103157671878043552e-05
1.2088840586666343708e-05
1.2073603686267498868e-05
1.2059000434000819674e-05
8.7547384488472378605e-06
8.7454984534588197021e-06
8.7337220064781360311e-06
8.7243680470957804594e-06
8.7126284051519118013e-06
8.7034017572739718423e-06
8.6917938729209519788e-06
8.6826186540016057664e-06
8.6710202922929946175e-06
8.6617687817984301534e-06
8.6499957226883816895e-06
8.6407061546537182223e-06
8.6287536492838604068e-06
8.6196591841057664543e-06
8.6076666857746801756e-06
8.5985912402582524266e-06
8.5865657546458924298e-06
8.5776202231006436379e-06
8.5644643481138011711e-06
1.3247188538294726507e-05
1.3217067651235078451e-05
1.3188196965792630668e-05
1.3162097848178227986e-05
1.3137505812162994035e-05
1.311554058114935708e-05
1.3094181104064650626e-05
1.3074434020619651059e-05
1.3054521833325771426e-05
1.3035562019829085743e-05
1.3016316878860406566e-05
1.2998185710574522498e-05
1.2980316807312853873e-05
1.2963677638179291098e-05
1.2946877216476613599e-05
1.2931102839235557726e-05
1.2914875300940713502e-05
1.2899498993489961934e-05
1.2883417625067637333e-05
1.2867908003305435411e-05
1.2851649253803046271e-05
1.2835974783907980475e-05
1.281994015974424079e-05
1.2805013016704474763e-05
1.278977033095603897e-05
1.2775344218651597453e-05
1.2759908436498461218e-05
1.2744820460144411106e-05
1.2728723910419314673e-05
1.2713211126419861116e-05
9.20168027574488506e-06
9.1890959972218341371e-06
9.1790704091391391831e-06
9.1664298086701323894e-06
9.1565176776334095257e-06
9.1439968401845079236e-06
9.1341464877542194163e-06
9.1216436761136350612e-06
9.1117193610544953188e-06
9.0990508005606105397e-06
9.0891592748280971176e-06
9.076433376926566784e-06
9.0667599702235764743e-06
9.0540413766367936567e-06
9.0444457606131833954e-06
9.0317215468027977981e-06
9.0222599961952827484e-06
9.0086249418591592564e-06
1.3917595447207749713e-05
1.3890061209585574632e-05
1.3863838226886174025e-05
1.3840427727580187893e-05
1.3817617713565634886e-05
1.3796692763261659152e-05
1.3775728085154406702e-05
1.3755945031915418428e-05
1.3735799100966573406e-05
1.3716654071522094426e-05
1.3697356387298235863e-05
1.3679139988828481055e-05
1.3660735009972129305e-05
1.3643728788353285742e-05
1.3626341850603225806e-05
1.3609985798940216388e-05
1.3592891165667410236e-05
1.3576603506660753006e-05
1.3559520621568817028e-05
1.3542798407817710363e-05
1.3525153290395896719e-05
1.35084723564399646e-05
1.3491431432828439516e-05
1.3475505398074673872e-05
1.3458795006601234669e-05
1.3442727751953075156e-05
1.3425810527251086002e-05
1.3409614138819602364e-05
9.6902200703198321778e-06
9.6771689208609083902e-06
9.6665988648976694487e-06
9.6532987141670515899e-06
9.6427446834112764311e-06
9.6295285956421284261e-06
9.6190738389004689865e-06
9.605955405421838427e-06
9.5955286501208091618e-06
9.5823084187334716365e-06
9.5719937789651915932e-06
9.5587384537280732069e-06
9.5485676036784317253e-06
9.5353060970590115017e-06
9.525261665484416714e-06
9.5120366025651930536e-06
9.5021439067061669933e-06
9.4884775950809196164e-06
1.4592245769953522067e-05
1.4567024410506201993e-05
1.4543859988008754839e-05
1.4520975415887151647e-05
1.4499757829335371563e-05
1.4478755441275147444e-05
1.4459230665301597247e-05
1.4439652212537953035e-05
1.4421004392644732174e-05
1.4401980432708092952e-05
1.4383649444484270779e-05
1.4365145727066141703e-05
1.4347967126428508956e-05
1.4330584194585435829e-05
1.4314148560757053335e-05
1.4297106421528157422e-05
1.4280722057028841671e-05
1.4263683443329042323e-05
1.4247001378789791995e-05
1.4229485224873083935e-05
1.4212601269365883859e-05
1.4195078917948096168e-05
1.4178346165209167076e-05
1.4160963081511023277e-05
1.4144449732660184291e-05
1.4127309314740694679e-05
1.4111009653879396647e-05
1.0163095990206581391e-05
1.0149277946029265632e-05
1.0136383170869247858e-05
1.0122345364478830553e-05
1.0109365819605044029e-05
1.0095316837388787826e-05
1.0082407669001644085e-05
1.0068473549489583254e-05
1.0055520809321190768e-05
1.0041757834277100344e-05
1.0028674029007830746e-05
1.0014956210603848951e-05
1.0001873169872816082e-05
9.9881990233491926021e-06
9.9752031477196259515e-06
9.9616506101832869621e-06
9.9487113029159363818e-06
1.5082571038372712702e-05
1.5056373533955925791e-05
1.5032074123696007693e-05
1.5008223606837465728e-05
1.4985980598900231162e-05
1.4964043868431954298e-05
1.4944054633499335093e-05
1.4924592484853071083e-05
1.4906672691896068612e-05
1.4888478144605093409e-05
1.4870965309819601628e-05
1.4852856906224151047e-05
1.4835812098978726196e-05
1.4818534334232053899e-05
1.4802631159469958872e-05
1.4786292529837589905e-05
1.4770769947004249174e-05
1.4754552744446774139e-05
1.4738769575109831889e-05
1.472202485217098607e-05
1.4705791758295550808e-05
1.4688515224018074216e-05
1.4671624497631218783e-05
1.4654011869869847326e-05
1.4637315234922725098e-05
1.4620083255565604485e-05
1.4603819581986696432e-05
1.0447972678328087999e-05
1.0435129101486111201e-05
1.0417459151160055712e-05
1.040442891380835745e-05
1.0386644905753974046e-05
1.0373652077977603078e-05
1.0355951440670984416e-05
1.0343097170958434532e-05
1.0325367811651263813e-05
1.031251384090154562e-05
1.0294727322371890335e-05
1.0281937000192151266e-05
1.0264165084664627679e-05
1.0251579890157828419e-05
1.0231280336309795116e-05
1.0226090272911912799e-05
1.1820000496602381471e-05
1.18009859625995679e-05
1.1782496244690757683e-05
1.1765508767652884932e-05
1.1749292253325973066e-05
1.1734700113550964809e-05
1.1720557388213961444e-05
1.1707797318345430798e-05
1.1695080326793142221e-05
1.168353132537457327e-05
1.167152802172486187e-05
1.1660256123261783322e-05
1.1648549792441358097e-05
1.1637968178159963629e-05
1.1627049058566337765e-05
1.1617001103053055803e-05
1.1606352353488658195e-05
1.1596010824370026242e-05
1.1584964521696433439e-05
1.1574225425361890889e-05
1.1562612061804251507e-05
1.1551369486908652596e-05
1.1539339916261539371e-05
1.1527594701491002672e-05
1.1515551270250001735e-05
1.1504187277448659182e-05
1.1492307766326834088e-05
1.1480779944884249386e-05
8.1111105239744981646e-06
8.09730046800965021e-06
8.087195944179898733e-06
8.0732248371353603601e-06
8.0630329002878243854e-06
8.0489981162941134294e-06
8.038887887827554597e-06
8.0248078739968441614e-06
8.0146920064507719961e-06
8.0006604691847497143e-06
7.9906456536198185842e-06
7.9767007308965794045e-06
7.9668952509436169755e-06
7.9510359810419668346e-06
7.9492799314074961189e-06
1.1170309446453983589e-05
1.1149579791468385511e-05
1.1130898894290538261e-05
1.1113156319996664079e-05
1.1097245734899512901e-05
1.1081817115741752545e-05
1.1067756969801633901e-05
1.1053645062624908423e-05
1.1040642167629853676e-05
1.1027468564585751848e-05
1.1015089871970143255e-05
1.1002341622252913972e-05
1.0990534656210561792e-05
1.0978437638435663929e-05
1.0967258550086807112e-05
1.0955571352334077449e-05
1.0944269317338013533e-05
1.0932208332345566006e-05
1.0920343262736100317e-05
1.0907654251414630189e-05
1.0895495308451969623e-05
1.0882780744000405561e-05
1.0870584658266205287e-05
1.0857983685646447136e-05
1.0845921440263593742e-05
1.0833146318926787215e-05
1.0820691138518165889e-05
7.7105230849118661232e-06
7.7015061282035564933e-06
7.6892867342434065232e-06
7.6802031810351063015e-06
7.6679206752300961054e-06
7.6588970183337797259e-06
7.6466305863027409802e-06
7.6376357049406888165e-06
7.625425197983544699e-06
7.6164997829222978588e-06
7.6042937508512433017e-06
7.5954948481980112148e-06
7.5818800700879382292e-06
7.5761501343000895239e-06
1.0732956898591344738e-05
1.0715133129821164049e-05
1.0698223971630299389e-05
1.0683068722694985539e-05
1.0668272234788130133e-05
1.0654610798985742233e-05
1.0640765600054784805e-05
1.0627962022096019886e-05
1.0615115743528623368e-05
1.060315077560032637e-05
1.059087598683293369e-05
1.057942305102427571e-05
1.0567626380337400146e-05
1.055668948336901429e-05
1.054527343963976776e-05
1.0534170462151011235e-05
1.0522170609796352669e-05
1.0510218328885892456e-05
1.0497478385634501072e-05
1.0485411202948795691e-05
1.0472965849122594924e-05
1.0461107243847147938e-05
1.0448775689284670862e-05
1.0436863140170056781e-05
1.0424131950118000931e-05
1.0411707879498688191e-05
7.4165874657216051722e-06
7.404993158817541163e-06
7.3964208186587002031e-06
7.3847801753391687033e-06
7.3761726854637188933e-06
7.3645154564872935209e-06
7.355950057236814269e-06
7.3443694770504819614e-06
7.3359129702302334775e-06
7.3243780031474299555e-06
7.316019607995270064e-06
7.3033961364973792193e-06
7.2973223919710089347e-06
1.0311354848533506851e-05
1.029524369262083514e-05
1.0280792984951947147e-05
1.0266628556190970274e-05
1.0253516404486497568e-05
1.0240189289525528272e-05
1.0227815469016261163e-05
1.0215362327915278272e-05
1.0203823922775078972e-05
1.0192070018846369385e-05
1.0181111516639094488e-05
1.0169771022608901218e-05
1.0159169623870641127e-05
1.014804264646588589e-05
1.0137115920052112902e-05
1.0125167583703863938e-05
1.0113157647201280652e-05
1.0100420515227992346e-05
1.0088480080535218737e-05
1.0076365841920466323e-05
1.0064930488331803591e-05
1.0053111991329209861e-05
1.0041683578522362115e-05
1.0029490984675967631e-05
1.0017553494004555013e-05
7.1240859895533590053e-06
7.1159048336160555148e-06
7.1048112695145058598e-06
7.0965516583222246021e-06
7.0853813773660305253e-06
7.0771292704484142159e-06
7.0660327292692423564e-06
7.0579288647911062198e-06
7.0468812860408417193e-06
7.0388771321375303189e-06
7.0267621489235773229e-06
7.0209464041314800193e-06
9.9106639055816046617e-06
9.8964269878216630196e-06
9.8826187863829861635e-06
9.8699287758644310318e-06
9.8570408176529979936e-06
9.8450184889152105396e-06
9.8328724397845447747e-06
9.8216554283322995105e-06
9.8102846684474796535e-06
9.7996960306806254456e-06
9.7887077540604416719e-06
9.7783566576217493437e-06
9.7674479211670420427e-06
9.7567032871587084259e-06
9.7449186468492747829e-06
9.7330635716289534367e-06
9.7205458774033755314e-06
9.7089384505001397616e-06
9.6973262968212094388e-06
9.6864690943262595591e-06
9.6752495317584929346e-06
9.6644165693934641956e-06
9.652906118604556959e-06
9.641749036300933812e-06
9.5221232471109672538e-06
9.5092629954402177104e-06
9.4974941070349901123e-06
9.485469250067844071e-06
9.4741502016735673213e-06
9.4625627700173701974e-06
9.4518059488234818866e-06
9.4409046624596998923e-06
9.43078594215446622e-06
9.4202550290796630938e-06
9.4102183266855095962e-06
9.3995746575901655928e-06
9.3891394657812794045e-06
9.3778142879465602411e-06
9.3665388369351471124e-06
9.3546499892258174407e-06
9.3436033219046475717e-06
9.332516412269795068e-06
9.3221635610283685471e-06
9.3115206706225441604e-06
9.3013068314820728123e-06
9.2904727262630695719e-06
9.2799541683062225907e-06
9.142221266106101215e-06
9.1300956459348662684e-06
9.1186533637146441924e-06
9.1070272218856489346e-06
9.0963411605285628164e-06
9.0855878247620481977e-06
9.0755990973872393082e-06
9.0652129920501279956e-06
9.0552883087343291591e-06
9.0448150987025432307e-06
9.0346394618300573129e-06
9.023762036205562018e-06
9.0131200013307563812e-06
9.0019541339389300014e-06
8.9915087843697518057e-06
8.9808745088044900003e-06
8.97088105725489609e-06
8.9606761125176220297e-06
8.9509888408434827182e-06
8.9407492893229425081e-06
8.9307866277398468446e-06
8.7511420031607761277e-06
8.7408873254562747369e-06
8.7312811562732473106e-06
8.721213367112654036e-06
8.7115107384570303204e-06
8.7012892005430283955e-06
8.6914627223384563747e-06
8.6811173519607705545e-06
8.6711271065620636883e-06
8.6606408567419141553e-06
8.6507526563478269151e-06
8.6405679332808587077e-06
8.6309514705452642936e-06
8.6211440653855223867e-06
8.6118664218347168053e-06
8.6021149913951290556e-06
8.5926804666122396384e-06
8.3860423676714649342e-06
8.375871731058659339e-06
8.3661575792253260162e-06
8.3560736279910239639e-06
8.3464652475273011745e-06
8.3364104921291435924e-06
8.3268588933992867981e-06
8.3169312120375388898e-06
8.3075153164101508773e-06
8.2979176585595754753e-06
8.2888249224066195799e-06
8.2792731286033962137e-06
8.2700468725636498197e-06
8.0615449004385382351e-06
8.0521988078171328692e-06
8.0424864312710938322e-06
8.0332398074907349918e-06
8.0236203225449949291e-06
8.0144845745243797132e-06
8.0049460084679639266e-06
7.9958217625917089665e-06
7.9864669635492722928e-06
7.9775491230567891762e-06
7.9681692022704136649e-06
7.9590774801201247311e-06
4.4841525087065384252e-06
4.4526337521753205534e-06
4.4334362801620764508e-06
4.4241804185571704798e-06
4.4203107573442229736e-06
4.4195954808275187024e-06
4.4297094422724204795e-06
4.4654391049115438507e-06
4.5008420740197952796e-06
4.5238355611832491523e-06
4.5356575389581708306e-06
4.5380841107102938466e-06
4.5356433380444901015e-06
4.530664729903948421e-06
4.5174120915463024406e-06
4.4961352676656054337e-06
4.4823091747724752888e-06
4.4755350287348969845e-06
4.4724417333263383206e-06
4.4730471465843942008e-06
6.0064626779412213524e-06
5.9950281313871481268e-06
5.9874138692517922598e-06
5.9816811496011019711e-06
5.9777042408614245535e-06
5.9765257046863824972e-06
5.9766581424901736062e-06
5.9784202513705270372e-06
5.9810837575706330235e-06
5.9832553151574843515e-06
5.9824455385478925799e-06
5.9791605303094694595e-06
5.9741458548085960795e-06
5.9635024509640310116e-06
5.9331110798201693545e-06
5.8640800128338965464e-06
5.8001394560411130081e-06
5.7521065361294718935e-06
5.7205400791296654177e-06
5.7027014471902608641e-06
5.6938735442943477433e-06
5.6893755205980216022e-06
9.7803195843760234204e-06
9.7139074556279748885e-06
9.6635315766857494854e-06
9.6261040442186046948e-06
9.5964950144473852892e-06
9.5739925904233925502e-06
9.5578725126656448931e-06
9.5455347174523833199e-06
9.5365236581080815501e-06
9.5292908692961881406e-06
9.524890563503328819e-06
9.521681881390243809e-06
9.5159700572182305664e-06
9.5082146294539930323e-06
9.4941018459501279705e-06
9.4551890227635840063e-06
9.3552540845607060749e-06
9.2434157828970487145e-06
9.1488456775707002711e-06
9.0767553782954575717e-06
9.0268813749054844782e-06
8.9959256822792789523e-06
8.9773817632703820546e-06
8.9653501563602462795e-06
8.9563155570726192198e-06
8.9482535831997585528e-06
2.0920453630952245868e-05
2.0858993762994040307e-05
2.0812944944343499609e-05
2.0777263682012420332e-05
2.0746373461870092872e-05
2.0718816799837117795e-05
2.0696613447467482083e-05
2.0679218088694462525e-05
2.0664404073319645399e-05
2.0649677309649384167e-05
2.063289346695266311e-05
2.0612746232973944756e-05
2.0589244547953558431e-05
2.055679739069018734e-05
2.0494097954258999801e-05
2.0390876351145317141e-05
2.0281402983204048366e-05
2.0171376503568797558e-05
2.0071793000271569623e-05
1.9991374307429464984e-05
1.993263919675587341e-05
1.9894427175209423449e-05
1.986924503427557365e-05
1.9849461727223050923e-05
1.9830654969385125714e-05
1.9811968334664884351e-05
1.9792623713159478486e-05
1.9771252319134164364e-05
5.0155805529269105079e-05
5.0059990687288114777e-05
4.9980342201110932463e-05
4.9911166039465004263e-05
4.984813945961746645e-05
4.9788425521926632641e-05
4.9731278624876340034e-05
4.9677133811538942384e-05
4.9628633847025965765e-05
4.9583010108826451004e-05
4.9537137768360044285e-05
4.9488151673023998429e-05
4.9429310059080356883e-05
4.9342613872751909816e-05
4.9218521125499058351e-05
4.9080201086682859028e-05
4.8935595248225396373e-05
4.8795982824261051726e-05
4.8670829543492735226e-05
4.85647453002952594e-05
4.848152802858501383e-05
4.8418158367637617059e-05
4.8363423972697448903e-05
4.8312018630976231851e-05
4.8255784618892980673e-05
4.8198243411177825717e-05
4.8138023474421691927e-05
4.8079885301966336858e-05
4.8019591496814366914e-05
4.7958947508350890172e-05
8.6051191952004523139e-05
8.5902748491052495559e-05
8.5752083155964469959e-05
8.559664244900047755e-05
8.5436578759131982211e-05
8.5274210198399603847e-05
8.5111730986202617749e-05
8.4950451144099269583e-05
8.4789873380378846346e-05
8.4629351270824513219e-05
8.4468792187659266714e-05
8.4310267537390716931e-05
8.4155576899448049518e-05
8.4005931294803135511e-05
8.3861363371591051948e-05
8.372138309074182098e-05
8.3585333713837888154e-05
8.3453038660003802805e-05
8.3324401677577894705e-05
8.3200422228339195431e-05
8.3079487752569163928e-05
8.2958885581041564368e-05
8.2834134614016074008e-05
8.2703049194509737144e-05
8.2565452381447290969e-05
8.2424211263122930827e-05
8.2281658772448857406e-05
8.2141049395885072171e-05
8.2002235036265100441e-05
8.1866377787737147588e-05
8.173273621277205676e-05
8.1601414595112479957e-05
0.00011023360732185856113
0.00011004918316604778887
0.00010986175567519179804
0.00010966926591663315126
0.000109474242242376768
0.00010928152813223127949
0.00010909504966957162225
0.00010891513222538336248
0.00010873864106710735909
0.00010856194175764443581
0.00010838386674628872335
0.00010820592895390290799
0.00010803064033879765935
0.00010785888457231644676
0.00010768900725247565703
0.00010751801807772507695
0.00010734394752975560396
0.0001071680533540606727
0.00010699340677617162198
0.00010682266982966657446
0.00010665572932192731489
0.00010648993058430448295
0.00010632170542921756359
0.00010614973871418994622
0.00010597569022422858968
0.00010580335612476028618
0.00010563505343225096128
0.00010547049503420124453
0.00010530646994000410416
0.00010514058866520214098
0.00010497117698053574453
0.00010480048062598211445
0.00010462791542930263288
0.00014197791463580852387
0.0001412759827415186473
0.00014060607021370265181
0.00013995758996856235432
0.00013933426475233183809
0.00013874244575921634371
0.00012286755568216147319
0.00012269068499206172221
0.00012250577640221527176
0.00012231087395286234921
0.0001221111113833630061
0.00012191423105444896906
0.00012172499335746948454
0.00012154172283898930114
0.00012135771726735207715
0.00012116763652741314897
0.00012097156113546622214
0.00012077459970733551455
0.00012058183184346423097
0.00012039406900625985303
0.00012020733897724225441
0.0001200170338940028113
0.00011982211411802971542
0.00011962587370261520069
0.00011943346806052765308
0.00011924842576012113608
0.00011906994227351279142
0.00011889267302052835889
0.00011871129024971842044
0.00011852438830429174832
0.00011833540232424618157
0.00011814911123571383313
0.00011796813248409020582
0.00011779040881254147246
0.00011761167770127476002
0.00011742857619404634779
0.00011724131294954724214
0.00011705154201326475676
0.00011686362374638883119
0.00011667609173636957795
0.00013441142598860129779
0.00013370769900477143602
0.00013300653461068855684
0.0001322897258685768406
0.00013156709238594806286
0.00013086510392446132323
0.00013019444862526872325
0.00011583635885556090158
0.00011567290750488878166
0.00011547627076212320233
0.0001152639687564972873
0.00011505493613754659067
0.00011485774914935247167
0.0001146668806888307573
0.00011447052601413661968
0.00011426168141998574088
0.00011404420385492563725
0.00011382983973484583798
0.00011362717347588129871
0.00011343547838712280339
0.00011324723979090189213
0.00011305588800048613934
0.00011286302005191086286
0.00011267742584646212977
0.00011250838614484708273
0.00011235794209239477264
0.0001122183876580624181
0.00011207664206141646011
0.0001119224545800862774
0.00011175541703599680353
0.00011158400777452942749
0.00011141909865908244818
0.00011126392459354640077
0.00011111254423936542325
0.00011095493506868225561
0.00011078607020084487215
0.00011060889642726020319
0.00011043142310707135191
0.00011026047642798929565
0.00011009823407794558663
0.00010994221263572560843
0.0001097876099773990871
5.3674817312578299176e-08
5.3689382926480549326e-08
5.3730253464280367608e-08
5.3760356335445965485e-08
5.3785588923134414312e-08
5.384599179486242613e-08
5.385605940782460421e-08
5.3934260891994993234e-08
5.3955711525140509514e-08
5.4058674804333205592e-08
5.4074870601915155978e-08
4.0199315866016602682e-07
3.7127232725769281953e-07
3.4171379317367230232e-07
3.1363900185284292876e-07
2.8728386495973513092e-07
2.628005505439007474e-07
2.4029019152567181783e-07
2.1981198639221096842e-07
2.0138554054495172248e-07
1.8500104600325709131e-07
1.7062133797861113251e-07
1.5818182524602551755e-07
1.4759218026131027983e-07
1.3873562200716167444e-07
1.3145058117977016237e-07
1.2553763584047717198e-07
1.2076932478024310074e-07
1.1692045467314729709e-07
1.1375713383065085048e-07
1.1111047760311124503e-07
1.0886325865574160359e-07
1.0696833258240466947e-07
1.0536185844449685949e-07
1.0401959961967042027e-07
1.0289855574181181551e-07
1.0198186452202165663e-07
1.0116891907439464717e-07
1.0041744111132043499e-07
9.9690588062326606769e-08
9.9067076921861499486e-08
9.8570233528129066053e-08
9.8198835204288202038e-08
9.7811850295849061667e-08
9.7297786355903332619e-08
9.6566126371956704354e-08
9.5700894367569607078e-08
5.6640448558947393816e-08
5.6624306975014023533e-08
5.6604383277874268497e-08
5.6577940914233165922e-08
5.6543873582207073076e-08
5.6500647848094545032e-08
5.6453399613009020851e-08
5.6409650155468676676e-08
5.6375250199596445624e-08
5.6354637500911969241e-08
5.6352603014445509263e-08
5.6345192450070103818e-08
5.6342722883031696367e-08
5.6337833372277208325e-08
5.6326643283008531498e-08
5.6342476644126001646e-08
5.6331717361479228237e-08
5.637377762493193272e-08
5.6375844450023527252e-08
5.6457985295984943384e-08
5.6447966184754726568e-08
4.2478767547617102352e-07
3.915439018001033385e-07