/*--------------------------------*- C++ -*----------------------------------*\
  =========                 |
  \\      /  F ield         | OpenFOAM: The Open Source CFD Toolbox
   \\    /   O peration     | Website:  https://openfoam.org
    \\  /    A nd           | Version:  12
     \\/     M anipulation  |
\*---------------------------------------------------------------------------*/
FoamFile
{
    format      ascii;
    class       volScalarField;
    location    "0.00516";
    object      p;
}
// * * * * * * * * * * * * * * * * * * * * * * * * * * * * * * * * * * * * * //

dimensions      [1 -1 -2 0 0 0 0];

internalField   nonuniform List<scalar> 
106891
(
98725.735147870553192
98730.306951865495648
98731.096653020344093
98728.14630667718302
98721.916925181649276
98713.210196898959111
98702.938286203730968
98692.049547866001376
98681.147043522520107
98670.743730698726722
98661.217762703105109
98771.566212938210811
98775.551320179103641
98788.938477561474429
98802.790557920743595
98810.244761511887191
98810.274835093252477
98806.45585766347358
98802.482695933926152
98798.424064676437411
98790.651676867593778
98775.02914626301208
98750.819351598707726
98721.97924915686599
98695.137832204651204
98675.892116127346526
98666.453242584437248
98665.53272352842032
98669.582524904544698
98675.165806826989865
98679.479579930542968
98680.61147129550227
98676.938551511746482
98667.687726048839977
98654.036177429181407
98639.02167005299998
98625.622848661310854
98614.616936686725239
98604.474075616046321
98592.985566346353153
98579.660457377423882
98566.821945597679587
98558.13747269641317
98556.139048200828256
98560.178721766307717
98566.600082773496979
98571.590917978261132
98573.868375700796605
98574.631590379663976
98658.298723664673162
98655.847711640410125
98657.518059930007439
98663.285688660369487
98672.844808039313648
98685.453033254394541
98700.030370527601917
98715.068342524304171
98728.996295899443794
98740.331144158713869
98747.97325821557024
98751.279981869083713
98750.204619736803579
98745.107522458623862
98736.84316563232278
98726.453122123552021
98715.073608367325505
98703.574970091693103
98692.665164272912079
98682.840061522030737
98777.144685868028319
98793.822072112408932
98809.089124931342667
98815.915639683720656
98814.002412292320514
98808.194774815725395
98803.400491473221336
98800.336457423574757
98795.203663905864232
98782.919177920106449
98761.351778877942706
98733.522357111069141
98705.664278415875742
98684.138663493387867
98671.781869801110588
98667.991929583993624
98669.959918789681979
98674.308108022130909
98678.092624926721328
98678.609752145697712
98673.22263367427513
98660.507326132923481
98641.74460872997588
98621.004486779536819
98603.067211476940429
98590.65200144512346
98583.108331162933609
98577.397261164107476
98570.991469339263858
98564.110594836616656
98559.377379754674621
98559.363331999615184
98564.209560137373046
98571.291568434127839
98577.118229348736349
98579.909565687354188
98673.018386288094916
98669.121322608887567
98669.002149077685317
98672.87447106349282
98680.649189514893806
98691.971253041891032
98706.012270419116248
98721.497951506637037
98736.75594020182325
98750.034949909109855
98759.79999902851705
98765.120714878459694
98765.730826815008186
98761.985534904088126
98754.789485322224209
98745.302860293639242
98734.731771207705606
98723.964434740977595
98713.670184733229689
98704.393910408689408
98770.298343166970881
98787.290579530745163
98802.611248196975794
98809.705794142486411
98808.107766647211974
98802.560081352174166
98798.323840678072884
98796.796075300342636
98794.679141142172739
98786.901915525217191
98770.376181770305266
98746.261827056237962
98719.527317857631715
98696.081838661557413
98679.812575505435234
98671.525893206213368
98669.60331621656951
98671.313047355171875
98673.518375685598585
98672.680474621447502
98665.419903558024089
98649.745719029247994
98626.650110938935541
98600.872999618892209
98579.16199046363181
98566.700757857877761
98564.072795135783963
98567.330929542920785
98571.036513066937914
98571.985674887037021
98570.701397624216042
98569.80304913695727
98571.272312605229672
98575.210987574828323
98579.92325740387605
98583.38609020865988
98693.539618277573027
98691.427160875769914
98692.568293844044092
98697.219701647336478
98705.299558081926079
98716.34003364983073
98729.410052295541391
98743.125355976051651
98755.775489208012004
98765.738807310088305
98771.820499815410585
98773.540673251220142
98771.092891641616006
98765.262991379117011
98757.19996697147144
98748.219018113522907
98739.187868336302927
98730.707753606067854
98723.051875461082091
98767.547780468390556
98781.771284917354933
98789.725515368627384
98790.56122704455629
98787.729917369928444
98785.727702155170846
98786.540365457170992
98788.283764187333873
98786.597670818693587
98777.418187290750211
98759.526571552836685
98735.489894201557036
98710.384609511253075
98689.239247204721323
98674.896084215040901
98667.552505495987134
98665.336862948155613
98664.99898826907156
98662.471150505458354
98653.773550696714665
98636.447097136740922
98611.077381219001836
98582.552386307390407
98559.008085554669378
98547.748369922846905
98550.91713986339164
98564.090176221128786
98578.881484946978162
98587.951692704024026
98588.785457297912217
98583.970470020271023
98578.550934510742081
98576.488401716269436
98578.713105455171899
98736.436233217260451
98731.512043047318002
98727.616953358781757
98725.46554166948772
98725.735652790070162
98728.825090769358212
98734.69782046713226
98742.790298731270013
98752.076979275894701
98761.239057470855187
98768.899363734482904
98773.894555547041818
98775.60925780038815
98774.052719375467859
98769.796150248657796
98763.68429691415804
98756.872924968600273
98750.197398686796078
98744.127008394003497
98738.678669392509619
98737.502697232499486
98749.415434672191623
98757.828319461186766
98761.694991603828385
98762.778099575109081
98764.249958803527988
98768.522415067665861
98775.224552518411656
98780.814462119684322
98780.184477848582901
98769.563682575302664
98748.99921840877505
98722.619657211296726
98696.63624211512797
98676.163400584278861
98663.225782274254016
98656.650236138913897
98653.058700618668809
98648.264566477344488
98638.380237947116257
98620.826801322356914
98596.096816664576181
98568.918674617118086
98547.194746923283674
98538.748990027335822
98546.902561983471969
98567.580620525710401
98590.709393587720115
98605.581992779640132
98606.776170579527388
98596.77503029932268
98583.501085653100745
98574.83243337678141
98782.131055246121832
98777.06836841495533
98771.490971919134608
98766.480310140846996
98763.055221961156349
98761.838598545684363
98762.907244899193756
98765.771271666904795
98769.494890527275857
98773.0034735208028
98775.290862457564799
98775.778343290396151
98774.29674893921765
98771.215236568867113
98767.113804748601979
98762.779426569817588
98758.721826825771132
98755.213163059932413
98752.107291800071835
98711.015743429335998
98719.054355326996301
98724.728071059187641
98728.970595417675213
98734.121822113753296
98742.564477409207029
98754.648227943805978
98767.121375132512185
98774.013649736356456
98769.719774367069476
98752.55858621931111
98726.079851492642774
98697.261357144816429
98672.763194745886722
98655.807182656993973
98645.512619168061065
98638.532026334360125
98631.057643747379188
98619.885959311359329
98603.568514938597218
98583.223534523451235
98562.359184913701029
98546.530970656240243
98542.160623534626211
98552.90979033469921
98575.808427359093912
98601.132211258780444
98617.244251245516352
98617.536787885721424
98604.032093362446176
98585.604221029905602
98572.287982590598403
98840.15756787621649
98834.547581462902599
98825.997930865574745
98815.861417276901193
98805.740114729487686
98796.949078771271161
98790.274277372984216
98785.850522026972612
98783.245683551693219
98781.667871838013525
98780.280820155574474
98778.445760504182545
98775.954248647511122
98773.019637682125904
98770.000739431838156
98767.342903428405407
98765.247888319572667
98763.746270984294824
98762.531094764810405
98678.793181395871215
98684.848835201133625
98691.163378417448257
98699.587972399051068
98711.613397775116027
98727.133542444978957
98742.954189737574779
98753.310330491876812
98752.529310694153537
98738.378466281516012
98713.906136310644797
98685.991946230526082
98661.454401154929656
98643.579590888533858
98631.438510042338748
98621.809342933236621
98611.762010234000627
98600.344152400517487
98588.000298990111332
98575.588510935602244
98564.495122173422715
98557.147398996617994
98556.973535962271853
98566.53271756428876
98584.568431352134212
98604.660466911518597
98617.652813066641102
98617.177000155992573
98604.031495099683525
98585.682992047513835
98889.263714818225708
98878.741604837749037
98865.334000399656361
98850.775754906513612
98836.626832529582316
98823.96838120216853
98813.308541587466607
98804.661881409629132
98797.688564564217813
98791.841356831835583
98786.642217502681888
98781.908649670949671
98777.701767369770096
98774.137194622075185
98771.462547084927792
98769.816224482827238
98769.155816657133983
98769.034826112474548
98646.39076929797011
98654.986501410516212
98666.310079613220296
98680.284284125649719
98695.243714570664451
98708.339325866894796
98715.818845934947603
98714.215745003442862
98702.398021044980851
98682.728342661081115
98660.1533787331864
98639.621594162410474
98623.623700338372146
98611.688533592256135
98601.87962395264185
98592.960402792406967
98585.246594507887494
98579.76849191376823
98576.721513784155832
98575.194727285954286
98574.759851259776042
98576.261267396170297
98581.044402297920897
98589.36263851718104
98598.974600271845702
98605.548854039807338
98605.339062422077404
98597.800592942658113
98929.989662434207276
98919.12196852514171
98905.520794371754164
98890.548409677910968
98875.367799906991422
98860.769126599596348
98847.156432696647244
98834.614378283396945
98823.084792423047475
98812.506301898800302
98802.88858440562035
98794.235423504374921
98786.728241131946561
98780.737636094432673
98776.472601852758089
98773.82153295793978
98772.611949495054432
98772.601377645900357
98622.930629311711527
98636.553548697542283
98648.092361681541661
98656.43822070065653
98661.123471575177973
98661.637530673819128
98657.317176120763179
98648.044588127653697
98634.933018132986035
98620.219898434806964
98606.396299020663719
98595.161016481026309
98586.905388457787922
98581.328538852671045
98578.454999037319794
98578.654366264861892
98581.725923583406257
98586.298981160085532
98590.307884112291504
98592.001091098558391
98590.776464913520613
98587.781260217117961
98585.162446242655278
98584.688577203458408
98586.677818802680122
98589.542476501010242
98590.609588316554436
98939.548105102599948
98929.09294197797135
98917.778902575024404
98905.888365294886171
98893.495973462835536
98880.567354289640207
98867.083691706400714
98853.125954914386966
98839.046059727523243
98825.368435750206118
98812.661624256157666
98801.471615159258363
98792.158225037084776
98785.024396286855335
98780.332110676783486
98778.312712931656279
98778.910572255801526
98563.809072133226437
98584.348457678788691
98599.176382405144977
98607.340803252402111
98609.819929411518387
98608.315335568608134
98604.16781593162159
98598.093051242598449
98590.513214829843491
98582.12517422446399
98574.066394849593053
98567.581370363768656
98563.571308262951788
98562.475821910295053
98564.629833485450945
98570.23573723116715
98578.870028313773219
98588.950776917816256
98597.74255414083018
98602.138093213739921
98600.169961243795115
98592.368935917926137
98581.696621870374656
98572.350668094179127
98567.921498107432853
98569.741364126763074
98575.899472449644236
98932.07571655177162
98926.874633220373653
98920.888145406526746
98913.271281462264596
98903.462002300977474
98891.378442230314249
98877.443987401449704
98862.445690312364604
98847.308512521878583
98832.966264778166078
98820.24687108337821
98809.789965583215235
98802.104118963048677
98797.587948658314417
98796.578236153261969
98799.164323935925495
98510.969601503107697
98534.095066153618973
98550.412205902393907
98559.433305511032813
98563.268203361920314
98564.36643248287146
98563.639540287171258
98560.508520087852958
98554.594547484157374
98547.177843083089101
98540.770168166069197
98537.71428267765441
98539.036950135996449
98544.552507266329485
98553.57401267363457
98565.245310392507236
98578.207595321538975
98590.013589409951237
98597.413370680893422
98597.87504098325735
98591.14396084062173
98579.647224908592761
98567.536167003054288
98558.975945105499704
98556.345327809060109
98559.213986349175684
98564.588171410141513
98568.130953604806564
98918.404601124406327
98915.975741816844675
98911.821857207090943
98905.380166438626475
98896.646773481217679
98886.083431421007845
98874.449854253078229
98862.618247595150024
98851.383123517123749
98841.424032320806873
98833.318185821481165
98827.543241407198366
98824.606860282146954
98825.061116972923628
98829.268734483470325
98484.614921964996029
98502.234806878856034
98514.625859995081555
98523.603978350278339
98530.756369953669491
98535.740685709592071
98536.948013645596802
98533.544719922792865
98527.018321571114939
98520.897507939153002
98518.844946416240418
98522.792805565404706
98532.467981381472782
98546.172845485940343
98561.525754855174455
98575.700969133104081
98585.543514704768313
98588.414440910928533
98583.553519628971117
98572.923203603379079
98560.621819166088244
98551.02212013672397
98546.725886183761759
98547.657899813828408
98551.514474811090622
98554.956402310956037
98554.906918780572596
98905.87894923343265
98903.404159796264139
98899.133445376341115
98893.404275938548381
98886.793711170757888
98879.761117742673378
98872.986108688157401
98866.696127604183857
98860.974666784823057
98856.222108272093465
98852.864162504003616
98851.480174072799855
98852.804477111261804
98857.559084841035656
98457.518069435114739
98473.339246837815153
98487.952217053374625
98501.884111016188399
98513.586221755773295
98520.280353993512108
98520.363104817166459
98515.260704132771934
98509.176507149881218
98506.856972342022345
98511.37370845550322
98523.014983138171374
98539.399814876014716
98556.457082114342484
98569.726210527762305
98575.601710409668158
98572.502766666060779
98561.92221906640043
98548.226471991263679
98536.892510545192636
98531.784192693332443
98533.287047542209621
98538.661131498287432
98543.897274639282841
98545.915278149826918
98543.740749828168191
98892.081285917200148
98889.971182437089738
98887.633455587332719
98885.527244797180174
98884.120985634290264
98883.238100324640982
98882.64239598524
98882.033363155351253
98881.053500637586694
98879.810357641123119
98879.082110571325757
98879.98768090174417
98883.647302170109469
98439.843608739727642
98458.211884317075601
98477.486317733608303
98495.130359897419112
98507.32377759454539
98511.567093209290761
98508.75692466685723
98503.061052467761328
98499.91692437864549
98503.478622608890873
98514.7770595150796
98531.326174135916517
98548.112122663398623
98559.371892880983069
98560.911076176562347
98552.107946748481481
98536.649282799684443
98521.064305074891308
98511.647073894549976
98511.347863708098885
98518.522814868352725
98528.336082816575072
98535.916807886460447
98538.989223473821767
98538.209638500979054
98882.961268890736392
98883.56231249346456
98885.681266062252689
98889.196918608329725
98893.49681636862806
98897.675222461199155
98900.815382688844693
98902.308600156800821
98902.226921497858712
98901.410747605914366
98901.099957689526491
98902.688175047005643
98435.767302528387518
98457.760907615345786
98479.449631098876125
98496.260273182138917
98504.655666265447508
98504.562027263251366
98499.634694803185994
98495.54165893982281
98497.201201521471376
98506.518053831561701
98521.365624892816413
98536.382394751126412
98545.074834106635535
98542.904103184584528
98529.968689686065773
98511.527797410963103
98495.447719254807453
98488.326547012853553
98492.238880972945481
98504.098819252219982
98518.001458249142161
98529.026170895434916
98535.653947532482562
98539.370261965625104
98442.847721364203608
98466.186331088931183
98486.014172184615745
98497.926074325630907
98500.623009045535582
98496.881800846866099
98492.116392614509095
98491.699552689591656
98498.263229319491074
98510.206997221481288
98522.211159147380386
98527.821406341026886
98522.896204851611401
98508.1371592500509
98489.190865317199496
98474.23648429705645
98469.622606816206826
98476.745335250394419
98491.834036217842367
98508.991146862084861
98523.809948582114885
98535.332382963053533
98545.193646895626443
98476.210489847493591
98490.329168263619067
98495.488941522082314
98493.368489261119976
98488.855296583031304
98487.299483518960187
98491.552938609020202
98500.320604505584924
98508.700615599751472
98510.949200414470397
98503.79234418287524
98488.549602834478719
98471.005793562653707
98458.592896394460695
98456.604393155066646
98465.919217851420399
98482.687682636707905
98501.860915915516671
98519.986847182008205
98536.426546286631492
98552.453793785141897
98485.023422382291756
98483.562876964831958
98486.452058614726411
98492.391266672653728
98497.050342522197752
98495.94061863006209
98487.116545237760874
98472.65163144050166
98457.788889668634511
98448.590152443299303
98449.115599104668945
98459.53681064194825
98476.905411943473155
98497.046173662820365
98517.561568960765726
98538.50667542895826
98560.077223789761774
98488.650076305100811
98484.648022582623526
98474.628859477263177
98461.357407492774655
98449.468108534725616
98443.554075249048765
98446.274077466048766
98457.341327613452449
98474.419751607056241
98494.643415211641695
98516.587639908233541
98539.904106982095982
98563.974340079905232
98477.650619948166423
98467.01363888355263
98454.939294705938664
98445.570407905004686
98442.293464152389788
98446.615265265310882
98457.861950223188614
98474.179692796242307
98493.776501972286496
98515.742739454857656
98539.460229546399205
98563.613766968264827
98734.475391746833338
98740.768510968715418
98746.116013227292569
98749.963029403486871
98752.357740412087878
98753.108064513013232
98750.70307072554715
98743.512384589106659
98732.934088632973726
98722.00699883409834
98713.605015605338849
98709.446382477777661
98709.50696731559583
98713.309758236675407
98719.812039926589932
98726.134281624734285
98728.500380530720577
98725.250394973976654
98718.483718003437389
98712.940477638563607
98733.82937057664094
98742.584882085371646
98753.567868315789383
98761.999363780458225
98765.081423177180113
98763.939655028021662
98761.415522194569348
98758.633046204515267
98753.836491281166673
98745.510301356509444
98733.97031616201275
98721.186120667145588
98711.287719415297033
98707.947933892515721
98712.755693259241525
98723.347773495319416
98733.840862087803544
98738.088726917529129
98733.99542524512799
98725.697191436061985
98720.014447236171691
98720.98288409509405
98732.602502052148338
98733.8096950029867
98737.599385940819047
98749.0742876536533
98764.543856119882548
98776.040667312539881
98778.467025588077377
98774.019751789412112
98768.352616127594956
98765.109794269053964
98762.879400705700391
98756.982420281361556
98744.813759418146219
98727.994560069346335
98712.727271526455297
98706.222939335624687
98711.798034471110441
98726.053289382180083
98740.268843981393729
98745.95696349570062
98740.892580205007107
98731.039315819492913
98725.259216364982422
98728.078871523030102
98736.188952315264032
98741.120933794169105
98729.026197659492027
98739.154501389333745
98737.5360430823348
98740.253704496804858
98754.066923362392117
98773.664856734059867
98788.025138723111013
98790.024448261829093
98782.381070184637792
98773.909369284621789
98770.429420286352979
98770.528690235645627
98767.076338667611708
98754.396393989096396
98733.910203618826927
98713.750877845552168
98704.236452080280287
98710.516880591676454
98728.104261342072277
98745.608942502891296
98752.394307853159262
98746.254574279024382
98734.870211599845788
98729.067226896790089
98733.778760549495928
98744.47513056868047
98751.186209903084091
98746.714837605832145
98699.837352889939211
98735.984800023361458
98744.890654800547054
98740.472120593709406
98741.812239082486485
98757.502640328879352
98781.132388324971544
98798.230682174253161
98799.795209749310743
98789.244489668024471
98778.13861900565098
98774.567038201304968
98776.883894551094272
98775.698030873885727
98762.617011251626536
98738.772614361150772
98714.28275889554061
98702.167600632019457
98709.085147644495009
98729.645807955952478
98750.05107392075297
98757.666250219830545
98750.380107474760734
98737.435689401056152
98731.537509109723032
98738.035746508918237
98751.251356231907266
98759.676183249990572
98755.324965623614844
98739.236908986509661
98638.361201172199799
98704.358459457347635
98742.386489483498735
98749.738465561371413
98742.674809841788374
98742.571834036003565
98760.0091517373221
98787.046416689248872
98806.561352570613963
98807.745468461464043
98794.611107208169415
98781.096788332331926
98777.639280044561019
98781.984549234257429
98782.786881151070702
98769.446139669540571
98742.567733875388512
98714.350394836976193
98700.03568193638057
98707.53094976079592
98730.777069929376012
98753.684025499445852
98761.98447003561887
98753.46249100076966
98739.019083160645096
98732.953758930249023
98741.129054822406033
98756.694090932884137
98766.670803653585608
98762.396191078863922
98745.242706403121701
98723.694723804146633
98638.426323247636901
98708.3617228280782
98747.884437613960472
98753.663153827525093
98744.121891271017375
98742.90914950518345
98761.53725273811142
98791.486274564405903
98813.105727899310295
98813.876749451534124
98798.54816872740048
98782.989305291048368
98779.543319704040186
98785.858519134068047
98788.345091311261058
98774.85856816652813
98745.391647161508445
98714.032047059023171
98698.033845328362077
98706.02738209546078
98731.564749528697575
98756.568609442503657
98765.357061805349076
98755.663523139781319
98739.820416413596831
98733.574486121971859
98743.232613448970369
98760.853674610872986
98772.132175979146268
98767.884907146944897
98749.767724121105857
98727.072583272238262
98708.93630082688469
98795.391379176668124
98882.77985413899296
98962.699177870366839
98998.589505843745428
99004.037080548718222
99010.408888161662617
98638.658796034462284
98711.510789710926474
98751.909407456303597
98756.445533154168515
98744.885709554742789
98742.781894624233246
98762.359213189920411
98794.542652484858991
98817.698305806377903
98818.206228571914835
98801.100396746216575
98783.999131564967684
98780.565132270377944
98788.482268917650799
98792.346946581354132
98778.603699657818652
98747.29758137887984
98713.535823156838887
98696.247941997629823
98704.777820281597087
98732.052505259387544
98758.652059065105277
98767.762808614133974
98757.10669889554265
98740.095667226225487
98733.68243582607829
98744.427132002063445
98763.664867682920885
98775.963477242548834
98771.690840870316606
98752.797610694993637
98729.200922268428258
98710.474361545624561
98701.016733613636461
98748.687161365509382
98792.316040330391843
98882.692159792524762
98965.233383102386142
99002.338497264412581
99007.746027643384878
99014.570272123601171
98639.005707634714781
98713.446181027364219
98754.073685156661668
98757.94592242622457
98745.07606836486957
98742.571808592241723
98762.725620322686154
98796.211771612099255
98820.16277495783288
98820.448397961983574
98802.29626751820615
98784.394149455663865
98780.923987734349794
98789.903433004350518
98794.476990111041232
98780.516414103185525
98748.17482039022434
98712.988978358858731
98695.127398107899353
98704.085749099278473
98732.327568383916514
98759.869358837066102
98769.081401342642494
98757.788719204880181
98740.064900045166723
98733.586864020559005
98744.972939135041088
98765.299079528296716
98778.079716865308001
98773.68672798856278
98754.308134586346569
98730.182230180464103
98711.143120972803445
98701.625519318782608
98700.622337320877705
98692.776697274239268
98692.823873528090189
98694.172034901363077
98696.086472396069439
98698.087759438683861
98700.113474811456399
98702.535837628209265
98706.218362313811667
98712.002993201589561
98720.529946005059173
98731.981575873389374
98774.806812235430698
98771.48693574097706
98769.871250436946866
98765.973297147575067
98757.332121117578936
98745.475879265679396
98735.761001268139808
98732.72089924296597
98737.444106738170376
98746.050060704437783
98751.423937559273327
98748.229593679992831
98734.990709296442219
98714.055548799879034
98689.98208498940221
98667.771122719845152
98652.005209981871303
98645.938399416947505
98650.417802648269571
98662.27985909814015
98675.604096248978749
98684.181763856919133
98684.441312619848759
98676.367835136712529
98662.111536115058698
98644.546205478880438
98626.253713256679475
98609.045404756790958
98593.704307150794193
98579.992795957979979
98567.235080608050339
98555.47121851448901
98546.210795977181988
98541.871747030760162
98543.845614051286248
98550.364340193220414
98726.932012477787794
98735.750685811144649
98741.304259739845293
98742.593450720989495
98739.590150831703795
98733.123637624521507
98724.736974101790111
98716.151764129303047
98708.895051008221344
98704.006245748954825
98701.891995630969177
98702.332800190575654
98704.693203009403078
98708.27034193596046
98712.557983083563158
98717.31455047253985
98722.559884914095164
98728.683661425427999
98736.097504246397875
98745.142589481300092
98755.878347632271471
98767.197142659511883
98769.207222805925994
98772.335176917898934
98772.529108800503309
98766.526786656992044
98755.060816032302682
98742.699785038799746
98735.223096170389908
98735.740801273670513
98742.256699237957946
98749.408967682466027
98751.629032822238514
98745.476145519001875
98730.625328608948621
98709.80967627876089
98688.086419802246382
98670.995973565994063
98663.011403349446482
98665.368943596215104
98674.619400334297097
98684.337948915141169
98688.485596382422955
98684.40084440287319
98673.167487546728808
98658.190476357689477
98643.047346111037768
98629.843046322814189
98618.885140760772629
98609.332916468832991
98599.900530073995469
98589.661125799451838
98579.065955707250396
98570.283373997634044
98566.143017677619355
98567.780047638341784
98572.605504826220567
98739.07408141916676
98746.198527655200451
98750.561178872230812
98751.218151294626296
98748.090572819477529
98741.835095324087888
98733.733669044551789
98725.375052486167988
98718.166864761922625
98713.184615214326186
98711.075616627393174
98711.898647866095416
98715.284037715129671
98720.572581770538818
98727.091004332120065
98734.409185856304248
98742.221056574271643
98750.442155729440856
98758.983804163450259
98767.805739357616403
98776.878554261551471
98761.144588902243413
98768.93689017406723
98774.460714953165734
98773.124838920484763
98763.74473922883044
98749.808362456373288
98737.687991173588671
98732.294710639776895
98734.812527042333386
98742.5375280467415
98749.712128230123199
98750.660711382879526
98742.194780920472112
98725.073754762997851
98704.07120702911925
98685.687368263723329
98675.149257686731289
98673.832977647762164
98678.63414134355844
98683.746210884317406
98683.659363568396657
98676.161718882562127
98663.134152374434052
98648.842502685132786
98637.209182191028958
98629.854566151072504
98625.923134089738596
98623.281483225073316
98619.69574404481682
98613.721702987822937
98605.595884437003406
98597.479762117523933
98592.306515787742683
98591.431995917344466
98751.958583737374283
98755.029650286582182
98755.409791348676663
98752.85517447127495
98747.82290068254224
98741.206057838004199
98734.280609792142059
98728.284602872125106
98724.179929592341068
98722.606453307715128
98723.847258794834488
98727.796116393554257
98734.045634361522389
98741.968062520361855
98750.949898271588609
98760.397989962744759
98769.856956933785114
98778.800733735712129
98786.87678947065433
98793.9857459236664
98744.612594835751224
98756.034792042162735
98767.251838497642893
98772.374952182421112
98767.978367090545362
98755.419421530124964
98740.178378400683869
98728.875597279256908
98725.962283899483737
98731.343669169204077
98740.277035712249926
98745.817172292241594
98742.577803473875974
98729.354498143613455
98709.849034642786137
98690.609649063932011
98677.246679234711337
98671.774415667372523
98672.015548109586234
98672.939373546920251
98669.798682350185118
98661.270356342371088
98649.622376259241719
98638.714422730277875
98631.686154204944614
98629.701859631109983
98631.569614162042853
98634.693162104653311
98636.260399334219983
98634.21693697894807
98628.210658139680163
98619.904730194626609
98612.044610952958465
98606.516500874102348
98754.805048853129847
98756.679165893408936
98757.222318418935174
98756.046544000128051
98753.265474371553864
98749.399828169887769
98745.197306493631913
98741.549153854357428
98739.228205862571485
98738.783392009994714
98740.563492654400761
98744.586838319257367
98750.659639250356122
98758.382433068880346
98767.21545364591293
98776.443208785654861
98785.463033829932101
98793.576009206066374
98800.25204124119773
98805.440683499677107
98732.908014074768289
98748.125911314957193
98759.536443715522182
98762.106125598365907
98754.498398605632246
98739.934111065464094
98724.787452378281159
98715.409094489601557
98714.708222272849525
98720.423413607102702
98726.417352183329058
98726.332099720573751
98717.140822446948732
98700.676379117765464
98682.253341343443026
98667.256273846331169
98658.351670877731522
98654.525818653375609
98652.499363931594416
98649.395714243422844
98644.217991368102957
98637.97852269183204
98632.685400198868592
98630.171899371562176
98631.368665554065956
98635.821197962170118
98641.681449152412824
98646.014740785656613
98645.987331371550681
98640.278666998361587
98629.829536296922015
98617.640707743907114
98759.713114486236009
98760.683004634294775
98761.292225019351463
98761.375950175672187
98761.016832877154229
98760.501103084665374
98760.207816370239016
98760.531302735253121
98761.793623917619698
98764.260273296691594
98768.033798896809458
98773.025970304806833
98778.987914591198205
98785.58312276515062