/*--------------------------------*- C++ -*----------------------------------*\
  =========                 |
  \\      /  F ield         | OpenFOAM: The Open Source CFD Toolbox
   \\    /   O peration     | Website:  https://openfoam.org
    \\  /    A nd           | Version:  12
     \\/     M anipulation  |
\*---------------------------------------------------------------------------*/
FoamFile
{
    format      ascii;
    class       volScalarField;
    location    "0.00516";
    object      p_0;
}
// * * * * * * * * * * * * * * * * * * * * * * * * * * * * * * * * * * * * * //

dimensions      [1 -1 -2 0 0 0 0];

internalField   nonuniform List<scalar> 
106891
(
98726.032278688653605
98730.334664264752064
98730.858680832272512
98727.673201472789515
98721.257963662443217
98712.419626256014453
98702.075335767047363
98691.165118528733728
98680.286920215963619
98669.941130941253505
98660.489955793891568
98771.275662356158136
98775.750334168275003
98789.340112852529273
98803.073726417016587
98810.259019488905324
98810.088863627825049
98806.229527124713059
98802.296615624072729
98798.201187385435333
98790.228484382270835
98774.302152067626594
98749.853822685021441
98720.992861664461088
98694.366975093478686
98675.475649754735059
98666.39546271126892
98665.720036356695346
98669.869503240755876
98675.426222782887635
98679.623959396820283
98680.577186910129967
98676.679263482626993
98667.213674457845627
98653.437507546012057
98638.427145752284559
98625.109379983798135
98614.168780829175375
98604.022167598159285
98592.491673765602172
98579.189114309614524
98566.521714061716921
98558.147536830263562
98556.492444416478975
98560.759543245658278
98567.217576641385676
98572.113317728901166
98574.284260048400029
98574.996018824647763
98658.517394026537659
98656.278666764585068
98658.16809603026195
98664.133887588890502
98673.848605068807956
98686.545368546590907
98701.130300611257553
98716.088072887941962
98729.851157675700961
98740.950532789385761
98748.30777062800189
98751.310554549170774
98749.948197778765461
98744.610893319448223
98736.175233576301252
98725.683893116671243
98714.264284054574091
98702.773416957163136
98691.908195928568603
98682.151289726229152
98777.459833714689012
98794.270607507438399
98809.322035005068756
98815.793984730305965
98813.635695553661208
98807.798952349054161
98803.099505682708696
98800.073147206494468
98794.798930060365819
98782.229608852852834
98760.397486903340905
98732.489248119614786
98704.801702605938772
98683.614700961930794
98671.615501511318143
98668.093550379242515
98670.191134876658907
98674.538508261335664
98678.215246456951718
98678.523873230369645
98672.850374050918617
98659.85115302822669
98640.921375666832319
98620.202986486445297
98602.445447547288495
98590.256999735269346
98582.87239163806953
98577.218752425746061
98570.844573222770123
98564.076884615642484
98559.576068957641837
98559.841936547716614
98564.888923499602242
98572.008401602986851
98577.732459689694224
98580.387977271064301
98673.272702243441017
98669.56793058734911
98669.652783063109382
98673.726416926860111
98681.676673194218893
98693.128511367831379
98707.227894531242782
98722.681544644510723
98737.809421316589578
98750.871518407642725
98760.357291128180805
98765.368541855117655
98765.672647664832766
98761.656687037626398
98754.255218396458076
98744.639461616083281
98734.010069995405502
98723.239805044577224
98712.98087035100616
98703.761391865860787
98770.595522741699824
98787.690006627643015
98802.795686713972827
98809.533703330060234
98807.6777158404293
98802.092216905031819
98797.969455882543116
98796.528230677649844
98794.337958628675551
98786.3316876062745
98769.543655602450599
98745.289046039586538
98718.626702213470708
98695.430134972993983
98679.47821402081172
98671.466771155726747
98669.715725069429027
98671.475024424900766
98673.598398862450267
98672.543884555110708
98664.964517505766707
98648.956072030225187
98625.650432174850721
98599.908614406856941
98578.48878229346883
98566.446812180773122
98564.174244460620685
98567.602770535129821
98571.313795575682889
98572.230174243828515
98570.988920694129774
98570.21881520828174
98571.8348999452719
98575.858646007414791
98580.551605817017844
98583.918319988602889
98694.022347321588313
98692.06738743466849
98693.373703882651171
98698.182539693778381
98706.39216677218792
98717.513334780902369
98730.593770053616026
98744.230145157940569
98756.711945427436149
98766.432236708831624
98772.233030392220826
98773.667288184136851
98770.962911307942704
98764.930529774792376
98756.736305136902956
98747.690937346415012
98738.643790584130329
98730.176854493271094
98722.542448689549929
98767.835745053278515
98781.906764292667503
98789.581058721945737
98790.193778460059548
98787.312510504460079
98785.407390276392107
98786.336817742121639
98788.088667411720962
98786.253730833763257
98776.824040354709723
98758.705811380510568
98734.585254689925932
98709.581794804878882
98688.673385572416009
98674.605599857721245
98667.48858728716732
98665.391448239985039
98665.025099712089286
98662.307768340615439
98653.293385045762989
98635.615572510534548
98610.009345324302558
98581.526522463187575
98558.358208718156675
98547.682280682580313
98551.394105279905489
98564.847590025339741
98579.596572436887072
98588.427496790114674
98589.027582639246248
98584.135000744950958
98578.813664266752312
98576.931397162785288
98579.296046677540289
98736.920166354364483
98732.038549040356884
98728.207735851305188
98726.148052005635691
98726.524919708317611
98729.719180392130511
98735.6727303450607
98743.798157639670535
98753.056037671107333
98762.119866387554794
98769.618017097003758
98774.4059338527004
98775.900599656073609
98774.142828454787377
98769.723361769196345
98763.50328154458839
98756.640909560053842
98749.953777587914374
98743.881053943696315
98738.420846093620639
98737.618843540549278
98749.473042449579225
98757.728558163362322
98761.451652146439301
98762.49249153486744
98764.049104884805274
98768.468931826893822
98775.260819768634974
98780.777713932271581
98779.896934167380095
98768.943141774201649
98748.117363800265593
98721.669628741641645
98695.830889605611446
98675.630770927324193
98662.970683979816386
98656.573410404627793
98653.005389805883169
98648.072934136755066
98637.919849420242826
98620.054082073867903
98595.123219279150362
98568.013662536352058
98546.694607458091923
98538.89617733117484
98547.688630141914473
98568.708974736000528
98591.74277548280952
98606.179572260691202
98606.879558967004414
98596.608659783814801
98583.397715280807461
98575.021603650355246
98782.700887204075116
98777.570592261778074
98771.965564569458365
98766.973292510083411
98763.602625746076228
98762.457100906394771
98763.585723703014082
98766.478005674798624
98770.183127377662458
98773.623659138174844
98775.802878638642142
98776.165040869425866
98774.565237482136581
98771.391376656116336
98767.233911236136919
98762.877878471030272
98758.816345244340482
98755.30210669717053
98752.165137471223716
98710.990451321544242
98718.962655431547319
98724.57274273589428
98728.819788915920071
98734.08406039433612
98742.715835746363155
98754.948970513156382
98767.39270025397127
98774.016940258457907
98769.296690085000591
98751.735814659696189
98725.059746235710918
98696.309145334860659
98672.068269854411483
98655.405583879895858
98645.310200717896805
98638.383249155798694
98630.822367797067272
98619.469365815093624
98602.97062686602294
98582.545189705953817
98561.786494137879345
98546.313020619520103
98542.512650605713134
98553.851371283497429
98577.067633580882102
98602.250262472691247
98617.833916599949589
98617.50866430051974
98603.626368959943647
98585.225782097244519
98572.269650377027574
98840.753831183697912
98834.93317698163446
98826.218405157109373
98815.993947818613378
98805.864083009466412
98797.124474110125448
98790.535591812586063
98786.199557812156854
98783.658518512718729
98782.106276509584859
98780.706125927608809
98778.835859964514384
98776.308808075438719
98773.356817599342321
98770.341160576965194
98767.702470876291045
98765.62637440286926
98764.128043263553991
98762.879221803043038
98678.688628796458943
98684.741059979292913
98691.128080810492975
98699.704148773002089
98711.928690249973442
98727.5965211406874
98743.387567190002301
98753.477016267206636
98752.257291674162843
98737.671828742546495
98712.958837221551221
98685.074233682855265
98660.761046333544073
98643.145404638300533
98631.169723963947035
98621.578676744116819
98611.499436413316289
98600.056590700129163
98587.722396099517937
98575.36762793447997
98564.40134459771798
98557.290791153194732
98557.469179947584053
98567.402849030055222
98585.64907213152037
98605.619604809500743
98618.160191427421523
98617.117784962407313
98603.592917855465203
98585.235572678953758
98889.547677066511824
98878.7757318092481
98865.205891214165604
98850.581526560330531
98836.450306012600777
98823.866889240118326
98813.311686601693509
98804.772115656654933
98797.887797080140444
98792.100694975568331
98786.940526312639122
98782.240759587832144
98778.070993898945744
98774.553283672677935
98771.936313122991123
98770.349574773514178
98769.726077407569392
98769.599608865770278
98646.384930441985489
98655.082539337716298
98666.555948140274268
98680.654284502845258
98695.657228654206847
98708.672858561229077
98715.928638841636712
98714.003470588970231
98701.877191522071371
98682.032266323891236
98659.469285610772204
98639.086796524570673
98623.269071391347097
98611.460772412829101
98601.718745767138898
98592.860840276465751
98585.252095727802953
98579.916016503921128
98576.993543265940389
98575.549052871952881
98575.186733936643577
98576.785719930529012
98581.681882388846134
98590.066900016798172
98599.607856794274994
98605.946500153644593
98605.420754915743601
98597.630221296465606
98930.212279178522294
98919.116666483023437
98905.361124798946548
98890.309449758482515
98875.113710365389124
98860.546507120321621
98846.992558066151105
98834.520865607744781
98823.065233696310315
98812.563229001054424
98803.019049940092373
98794.439651304055587
98787.018334958120249
98781.127490282728104
98776.962684458805597
98774.397758634921047
98773.257965867611347
98773.299037043529097
98623.252309251227416
98636.835255235375371
98648.294550246864674
98656.552211177564459
98661.153123074749601
98661.574319459075923
98657.14697856073326
98647.775061678868951
98634.608040341045125
98619.910319253118359
98606.170327571569942
98595.055857470113551
98586.925073985315976
98581.476085916146985
98578.75111737466068
98579.112677253768197
98582.317302358729648
98586.947405914150295
98590.922942131044692
98592.509828311202
98591.162760176754091
98588.09659461141564
98585.483141202887055
98585.066844135450083
98587.101082818233408
98589.927302940996015
98590.851894433668349
98939.635412477044156
98929.103126520582009
98917.735374349576887
98905.806617044014274
98893.384617640826036
98880.431944801486679
98866.932981661884696
98852.978245163205429
98838.930734644571203
98825.317806095656124
98812.7072266988107
98801.637137012265157
98792.45680546600488
98785.465179699662258
98780.921020580877666
98779.051648807013407
98779.79053319709783
98564.575607575054164
98584.919888515447383
98599.484356077955454
98607.411673466674984
98609.740950064588105
98608.179271889224765
98604.038163140285178
98597.998636756354244
98590.463249979467946
98582.131283475697273
98574.148502457013819
98567.763354889233597
98563.873738833819516
98562.919332197008771
98565.236493025702657
98571.011023570972611
98579.777082029511803
98589.898125942258048
98598.598013615774107
98602.774982609131257
98600.536406421641004
98592.519920252962038
98581.771167024460738
98572.513101524848025
98568.285286920916406
98570.304349808342522
98576.521437612958835
98932.353082386034657
98927.145544834434986
98921.105158110978664
98913.396278299594996
98903.478403868517489
98891.298481160367373
98877.306150347198127
98862.301508331438527
98847.21396747106337
98832.972212454813416
98820.39267658891913
98810.103193293602089
98802.602516969884164
98798.281748543333379
98797.471506773523288
98800.258135379001033
98511.92967566443258
98534.83978800510522
98550.863275111012626
98559.649793031494482
98563.377176944995881
98564.465274077141657
98563.749284240242559
98560.605783900653478
98554.683587850784534
98547.315860244925716
98541.03505352656066
98538.158940256354981
98539.670996211934835
98545.361850406799931
98554.536589281808119
98566.324495232081972
98579.327547439563205
98591.047553022392094
98598.223956333007663
98598.384475103695877
98591.379109122426598
98579.731287160699139
98567.638215461600339
98559.237918247934431
98556.816630225148401
98559.828241628434625
98565.189349053398473
98568.536390436813235
98918.787997560459189
98916.323269777771202
98912.093427805870306
98905.559158283402212
98896.744313054543454
98886.132294710885617
98874.497914145715185
98862.714615661025164
98851.570249681157293
98841.732899143375107
98833.768457483398379
98828.14801212164457
98825.380737550018239
98826.022162754787132
98830.433546314015985
98485.436003749258816
98502.868234504057909
98515.119842184285517
98524.050563069686177
98531.19859689338773
98536.14559634514444
98537.262155291697127
98533.767951207904844
98527.235988136118976
98521.240123317402322
98519.415287661977345
98523.618835127068451
98533.511786846604082
98547.357577993170707
98562.750938368975767
98576.84290381000028
98586.473138058252516
98589.045628559513716
98583.893202143881354
98573.081658440612955
98560.765468946672627
98551.293791599513497
98547.181230181013234
98548.253768267313717
98552.139704651126522
98555.477818659041077
98555.222686427310691
98906.207305157760857
98903.678483635856537
98899.363885162703809
98893.618103145709028
98887.013758919900283
98880.020576623675879
98873.314106325764442
98867.093802979012253
98861.449526260810671
98856.785857948343619
98853.525650232782937
98852.255634610162815
98853.722426765889395
98858.65184497316659
98458.300604408999789
98474.099687571899267
98488.733878089522477
98502.675451358431019
98514.301084858598188
98520.824608457929571
98520.721935373556335
98515.53602085467719
98509.538530503719812
98507.455518422633759
98512.274412737606326
98524.177013906810316
98540.694238293988747
98557.710188589495374
98570.770468558330322
98576.322579569357913
98572.886345279155648
98562.076904283443582
98548.345190520238248
98537.162586433943943
98532.289888015075121
98533.979722613788908
98539.405013913928997
98544.551787174365018
98546.404455233379849
98544.070521589674172
98892.305562070760061
98890.223587155167479
98887.937567148415837
98885.911228230164852
98884.589188402867876
98883.771468718638062
98883.225077533701551
98882.63370229654538
98881.648173917783424
98880.408758885780117
98879.722413192357635
98880.722194319168921
98884.526489413401578
98440.750141618904308
98459.219068278354825
98478.538629331829725
98496.097691192131606
98508.073729438314331
98512.05998173696571
98509.085397541130078
98503.409506721975049
98500.472895679049543
98504.345583863338106
98515.926036438380834
98532.606900693543139
98549.303454025968676
98560.265463201096281
98561.400686032720841
98552.248956445168005
98536.645819514655159
98521.175259994633961
98512.058677279943367
98512.083419771151966
98519.447642629063921
98529.252162451550248
98536.686481862154324
98539.592421395922429
98538.716006377449958
98883.170282291801414
98883.902585614938289
98886.160169068578398
98889.786499866095255
98894.144121825884213
98898.321367246855516
98901.406080008280696
98902.817465651387465
98902.663863821348059
98901.819988777089748
98901.548874388754484
98903.246400484393234
98436.841707211075118
98458.932038404920604
98480.56471167577547
98497.153689890459646
98505.248651817557402
98504.920465477582184
98499.94038637484482
98496.002818399982061
98497.953388782218099
98507.558695547326352
98522.544119887417764
98537.455196220966172
98545.809031599928858
98543.199783137475606
98529.936700276681222
98511.434101496648509
98495.587142683885759
98488.87538739273441
98493.173594332518405
98505.232231847810908
98519.113571945636068
98529.995886770164361
98536.49447179598792
98540.168110159080243
98443.985044122659019
98467.325064483768074
98486.960366048806463
98498.564696235975134
98500.981559542837203
98497.120468855835497
98492.44825848689652
98492.285050616919762
98499.125438290226157
98511.207906005292898
98523.109428758878494
98528.396192195781623
98523.07339034632605
98508.036096681564231
98489.095065430810791
98474.445308620008291
98470.293693540923414
98477.826128898304887
98493.12497997590981
98510.285165518376743
98525.008881437504897
98536.462746054981835
98546.327177024868433
98477.124676630322938
98490.969388331621303
98495.839988103733049
98493.559094898359035
98489.088354701452772
98487.739799101123936
98492.234678160006297
98501.119838523882208
98509.399451584366034
98511.362813591622398
98503.876567473416799
98488.446642667142441
98470.980757609053398
98458.904261435221997
98457.37382955996145
98467.085866612120299
98484.064496313978452
98503.287829722554306
98521.388952421053546
98537.82727292299387
98553.89314206308336
98485.203390845141257
98483.902080856729299
98486.974943710447405
98492.985474583198084
98497.540591750948806
98496.199998008378316
98487.147298646246782
98472.596917563205352
98457.871716030422249
98449.005652095103869
98449.948739606828894
98460.725196958141169
98478.313322517002234
98498.542920722888084
98519.11713428699295
98540.134437208151212
98561.746881646133261
98488.955148784909397
98484.771672301882063
98474.618994569798815
98461.356716375608812
98449.652863321767654
98444.059222479743767
98447.137893227074528
98458.512371513847029
98475.797022750295582
98496.150090434282902
98518.200661497510737
98541.607579203948262
98565.698283451987663
98477.666749528216315
98466.9647232479183
98454.969549263594672
98445.817601600181661
98442.84368373536563
98447.473866612941492
98458.979636788018979
98475.486925776815042
98495.23089731822256
98517.321115122627816
98541.121473603707273
98565.264857761998428
98735.052863350923872
98741.348029667424271
98746.669464089005487
98750.485480154529796
98752.841232658582157
98753.519387849766645
98750.95936395478202
98743.598051101042074
98732.946606062178034
98722.054576160589932
98713.777721510472475
98709.763250618168968
98709.956423241470475
98713.867119264919893
98720.418174592443393
98726.655470185243757
98728.822863446883275
98725.363447816169355
98718.497195712145185
98712.995527723644045
98734.46386355724826
98743.350511230310076
98754.328345573885599
98762.616496538248612
98765.536298103499576
98764.306337090354646
98761.763448939309455
98758.933311322514783
98754.016509197317646
98745.545107599522453
98733.90788092603907
98721.14156898589863
98711.40437994232343
98708.329292178037576
98713.39570778835332
98724.091637989593437
98734.463048100733431
98738.41893272048037
98734.057520039365045
98725.678995047914214
98720.10604850272648
98721.20852244803973
98733.153534627694171
98734.295816531419405
98738.311969368616701
98750.012494203096139
98765.481308287577122
98776.729781588466722
98778.862399166857358
98774.275515827626805
98768.631975722688367
98765.456428625373519
98763.1541998986213
98757.046588119730586
98744.654314122803044
98727.745233499052119
98712.657888312256546
98706.540285589595442
98712.501679312248598
98726.922160180081846
98740.973024786959286
98746.282647045110934
98740.897237592726015
98730.987743832462002
98725.387337131542154
98728.401782089669723
98736.473325923725497
98741.089672565562068
98730.151422405499034
98739.671009831785341
98737.978833256842336
98741.021464693520102
98755.157360476339818
98774.756430295965401
98788.778052259542164
98790.360940435421071
98782.529010348094744
98774.141366208670661
98770.813633837708039
98770.896507500918233
98767.166842602280667
98754.140185646057944
98733.480811889210599
98713.510911495948676
98704.48777451152273
98711.282229366988759
98729.082849443206214
98746.381464846374001
98752.708245779809658
98746.201649179914966
98734.790299024927663
98729.238811658433406
98734.190605246214545
98744.848643329765764
98751.192683069282793
98746.247593639505794
98701.934566813491983
98737.166791857845965
98745.37050718224782
98740.855996279104147
98742.6056438118394
98758.729696423004498
98782.380158593936358
98799.044379532817402
98800.079162846814143
98789.291086770565016
98778.321589331753785
98774.992812377153314
98777.340021539814188
98775.820595276280073
98762.269773151216214
98738.179329509686795
98713.896180825817282
98702.364274465100607
98709.905944618571084
98730.723380820010789
98750.880597953844699
98757.962815265927929
98750.269132303525112
98737.32252979039913
98731.744802736357087
98738.536813689410337
98751.710326933665783
98759.719997060354217
98754.837750767794205
98738.401473674995941
98641.218356182609568
98706.624783370789373
98743.604892674964503
98750.168596678122412
98742.995987734146183
98743.389865541117615
98761.350563778876676
98788.418113749794429
98807.426684289559489
98807.978302048883052
98794.562598933494883
98781.244819946325151
98778.108449467385071
98782.512696173303993
98782.941914224487846
98769.027423361025285
98741.834024589275941
98713.836621552574798
98700.186906744434964
98708.40423435223056
98731.940848363839905
98754.564266931134625
98762.259373172637424
98753.291684478492243
98738.872661976129166
98733.197576097401907
98741.71355340370792
98757.232374825107399
98766.748123285578913
98761.890259771433193
98744.359615133958869
98722.765416829570313
98641.479763681520126
98710.761691889958456
98749.127031003590673
98754.030344477068866
98744.400243932017474
98743.737340882318676
98762.967806250002468
98792.964440575466142
98814.009719749898068
98814.064719290632638
98798.42441290289571
98783.094587184838019
98780.05763579098857
98786.457067522453144
98788.526115391548956
98774.38125324860448
98744.543573898787145
98713.416416424239287
98698.152088178976555
98706.943398306233576
98732.804904174845433
98757.489203587581869
98765.611983738432173
98755.442364638191066
98739.644574055579142
98733.845139039651258
98743.893649033576366
98761.455152256021393
98772.236133397935191
98767.361052961889072
98748.84297984240402
98726.10413921950385
98708.17160295744543
98796.923013498773798
98885.074641871644417
98964.034166058409028
98998.519405371436733
99003.357286036960431
99009.592296195711242
98641.858412405126728
98713.997514072601916
98753.165041188374744
98756.760819330185768
98745.12067572271917
98743.618117430305574
98763.8586071433092
98796.100550962888519
98818.635726131411502
98818.355348537894315
98800.915162461344153
98784.070882115425775
98781.117486744129565
98789.137359967877273
98792.550283969685552
98778.083167130840593
98746.360875388912973
98712.846461132139666
98696.348013922994141
98705.728199201490497
98733.351385729562026
98759.602707084326539
98768.001973095961148
98756.841259487788193
98739.896383477243944
98733.972228688406176
98745.139936971114366
98764.322365917949355
98776.086545149970334
98771.15167490830936
98751.840596214038669
98728.203330680247745
98709.692077413419611
98700.509907424726407
98748.302850532549201
98793.923917573294602
98885.08596271177521
98966.654692078198423
99002.274051148226135
99007.077425400624634
99013.767134748239187
98642.290603720684885
98715.971561645827023
98755.333790238510119
98758.229793375867303
98745.279475684234058
98743.414165419555502
98764.263068002095679
98797.815610246703727
98821.112727038242156
98820.579820724102319
98802.072910171802505
98784.450104365052539
98781.493888372628135
98790.601158896984998
98794.679509575726115
98779.977001585997641
98747.186640502637601
98712.255536226206459
98695.232450993411476
98705.05558168963762
98733.660906752455048
98760.837193268511328
98769.308394682549988
98757.494221010361798
98739.853731727882405
98733.889569713792298
98745.728031183753046
98765.983151440595975
98778.208811713149771
98773.136054140210035
98753.331793696444947
98729.168460916756885
98710.352610758607625
98701.117404313321458
98700.28928389090288
98692.341299011153751
98692.505917345086345
98693.941022698345478
98695.917028449941427
98697.964698295560083
98700.035227284519351
98702.51440177479526
98706.275938090897398
98712.159676433177083
98720.789945132724824
98732.324437419767492
98774.502822309746989
98771.342012764376705
98769.772910785046406
98765.791569633904146
98757.050721333231195
98745.231172534418874
98735.758044659451116
98733.050964581911103
98738.039191253308672
98746.661378122953465
98751.776910388114629
98748.18486601949553
98734.565547813443118
98713.387871776969405
98689.26327785756439
98667.186652277581743
98651.708655832830118
98646.014925148992916
98650.823270623703138
98662.829280558420578
98676.051611674905871
98684.33266037949943
98684.238802546315128
98675.868431665512617
98661.423434677431942
98643.784854341400205
98625.516476691380376
98608.398376287601423
98593.172631214474677
98579.565890088371816
98566.900301522779046
98555.253211490009562
98546.177278412302257
98542.087320410515531
98544.292175713620964
98550.891071075442596
98728.020435165482922
98736.633880763707566
98741.883568394056056
98742.8238633027795
98739.489229312530369
98732.762905059571494
98724.219093552223057
98715.579905280130333
98708.362232342435163
98703.580489196261624
98701.609511630347697
98702.196145067064208
98704.680542602174683
98708.352018617733847
98712.705477736148168
98717.505242607643595
98722.780403326018131
98728.929148260664078
98736.367738903281861
98745.433131979094469
98756.171301813650643
98767.124980056440108
98769.244661885939422
98772.36506315767474
98772.409336877288297
98766.213545861610328
98754.673254035966238
98742.450150767137529
98735.296290948201204
98736.150804241391597
98742.836273497232469
98749.923453880532179
98751.879937972102198
98745.375346534783603
98730.20821461462765
98709.225063245510682
98687.543595396040473
98670.691139706133981
98663.062127165612765
98665.723528524744324
98675.068658798903925
98684.626350606326014
98688.447347697088844
98684.023163109770394
98672.559596223174594
98657.509822794047068
98642.420745516443276
98629.330075285135536
98618.487705442181323
98609.02205620870518
98599.638952808498289
98589.437449729157379
98578.922605625237338
98570.304320037044818
98566.390399696378154
98568.207118401580374
98573.022709768483764
98740.075141559180338
98747.040390666399617
98751.160693504396477
98751.530984351062216
98748.123549794850987
98741.639177517223288
98733.397735755337635
98724.994230848766165
98717.824886892631184
98712.947313305383432
98710.982902266187011
98711.963518617674708
98715.496258600251167
98720.904556798501289
98727.509707131888717
98734.879301579494495
98742.705603057678672
98750.908698984247167
98759.406236574606737
98768.164493551244959
98777.158715121579007
98761.331617446645396
98769.136732290789951
98774.490112707921071
98772.874117617044249
98763.272684705021675
98749.331433654602733
98737.451273506652797
98732.419228536484297
98735.267320484534139
98743.13568930348265
98750.200973273531417
98750.840663257913548
98741.998063268343685
98724.601818013601587
98703.547548164162436
98685.343830520141637
98675.110543603019323
98674.052714912730153
98678.923064006055938
98683.874148876915569
98683.47690024926851
98675.680248883872991
98662.501879328425275
98648.249268285740982
98636.785029915219638
98629.625764846714446
98625.839313388569281
98623.265929583925754
98619.680498038113001
98613.677596148423618
98605.555909269765834
98597.525462831719778
98592.503937880712328
98591.740369114704663
98752.711686282826122
98755.615310689739999
98755.796779347176198
98753.044258721885853
98747.844093189341947
98741.116091188421706
98734.153587408436579
98728.190799904521555
98724.174724441938451
98722.731296193946037
98724.119393421977293
98728.213684055634076
98734.585616568074329
98742.594720205961494
98751.620715274140821
98761.067572282641777
98770.476856728055282
98779.329241435101721
98787.287536231888225
98794.264202434962499
98744.883900240907678
98756.395176294114208
98767.491259375965456
98772.303716110094683
98767.562892341142287
98754.814894878218183
98739.647326598511427
98728.661228635290172
98726.160695613885764
98731.849257547408342
98740.831938167844783
98746.14897257645498
98742.534215320876683
98728.97449270238576
98709.335819959480432
98690.203472697074176
98677.090444965302595
98671.851130455353996
98672.169310244513326
98672.963225288534886
98669.576136789895827
98660.842423950598459
98649.138928625485278
98638.335990406296332
98631.514202623788151
98629.746773283462971
98631.763804019472445
98634.937108895246638
98636.46167289064033
98634.321491917027743
98628.228829692947329
98619.901930928041111
98612.092405993695138
98606.613798646154464
98755.480382632144028
98757.272813697389211
98757.711752546485513
98756.429512933274964
98753.55909153065295
98749.632270518544829
98745.408395700418623
98741.781243232820998
98739.51992222633271
98739.16286400629906
98741.0497284950834
98745.181180477389717
98751.348337021510815
98759.136996213914244
98767.993297963505029
98777.195844882720849
98786.14206631910929
98794.140967387953424
98800.679986804752843
98805.729701702744933
98733.346670304032159
98748.539897088441649
98759.6921241247328
98761.872291363368277
98753.921228497347329
98739.22600277728634
98724.227703148149885
98715.204470095297438
98714.879646136265364
98720.793342418735847
98726.719656709741685
98726.361934816028224
98716.862073762153159
98700.226067956682527
98681.837633056522463
98667.023917591315694
98658.319157047590124
98654.590822493686574
98652.533448253918323
98649.331515298254089
98644.068347608685144
98637.817885760741774
98632.599432348419214
98630.225726724107517
98631.581508746545296
98636.158481489619589
98642.057413403133978
98646.31623655288422
98646.127552530713729
98640.237515559696476
98629.67134764038201
98617.472983567160554
98760.380254161267658
98761.336057277498185
98761.923702022133511
98761.9865608777327
98761.61528397766233
98761.098410147023969
98760.817172694078181
98761.164909745144541
98762.463080570072634
98764.974352330784313
98768.794271822232986
98773.82231201196555
98779.799430278872023