/*--------------------------------*- C++ -*----------------------------------*\
  =========                 |
  \\      /  F ield         | OpenFOAM: The Open Source CFD Toolbox
   \\    /   O peration     | Website:  https://openfoam.org
    \\  /    A nd           | Version:  12
     \\/     M anipulation  |
\*---------------------------------------------------------------------------*/
FoamFile
{
    format      ascii;
    class       volScalarField;
    location    "0.00516";
    object      pPrime2Mean;
}
// * * * * * * * * * * * * * * * * * * * * * * * * * * * * * * * * * * * * * //

dimensions      [2 -2 -4 0 0 0 0];

internalField   nonuniform List<scalar> 
106891
(
171056.90789413452148
171050.53367233276367
171056.37337875366211
171073.42791557312012
171108.09426498413086
171163.56932258605957
171249.96755409240723
171365.44317054748535
171514.65932083129883
171700.71783447265625
171905.0284538269043
583305.40848350524902
581359.05767250061035
579437.07452392578125
577531.65145111083984
575634.60165596008301
573739.44695663452148
571843.022705078125
569944.87699508666992
568047.55523109436035
566156.51515007019043
564275.8227596282959
562404.00821876525879
560536.26881980895996
558669.93795967102051
556804.65205574035645
554938.71512985229492
553069.70244026184082
551197.42685699462891
549324.38451194763184
547455.31205368041992
545596.25069999694824
543749.93072319030762
541914.24352645874023
540086.85437393188477
538269.16192054748535
536465.11378479003906
534677.88076972961426
532908.99103164672852
531159.12410163879395
529426.59184074401855
527704.09666633605957
525980.9521427154541
524251.45738983154297
522518.70697593688965
520787.99151229858398
519058.69395637512207
517324.89467239379883
515581.89560699462891
172122.13949394226074
171870.54328536987305
171646.17995834350586
171447.23426246643066
171274.91171264648438
171132.82786560058594
171024.68701171875
170951.34455490112305
170908.74373435974121
170888.78330612182617
170881.8935604095459
170882.37318229675293
170888.32135200500488
170905.85708618164062
170939.09639358520508
170999.03169822692871
171085.94093132019043
171205.33718299865723
171361.51565170288086
171535.80365371704102
581219.97267913818359
579287.24251747131348
577375.03192520141602
575471.59771156311035
573570.81939315795898
571673.27719306945801
569781.5305347442627
567898.46013641357422
566028.6627082824707
564174.73960304260254
562332.05018424987793
560492.74396133422852
558653.71906471252441
556816.31742286682129
554979.54959678649902
553139.38632202148438
551293.84066581726074
549445.34013938903809
547599.29672622680664
545760.93232345581055
543931.72030448913574
542110.4462776184082
540297.66152381896973
538496.34259605407715
536709.2096061706543
534936.81861114501953
533178.6423282623291
531434.67533111572266
529703.83948707580566
527979.69365692138672
526250.23007392883301
524505.65407943725586
522746.05200004577637
520979.5128059387207
519213.10794830322266
517447.10984420776367
172103.41650581359863
171853.62199974060059
171630.00829315185547
171429.6998405456543
171253.78138732910156
171106.3353271484375
170991.64050102233887
170910.93239593505859
170860.3680362701416
170831.96969604492188
170816.19172096252441
170806.82132911682129
170801.08378601074219
170803.72028541564941
170818.16502380371094
170854.82877540588379
170915.17816543579102
171005.15763282775879
171130.16799354553223
171272.04747200012207
581356.68913269042969
579384.34547233581543
577430.87137794494629
575483.21561813354492
573539.18127822875977
571606.14114761352539
569691.01181030273438
567797.3543872833252
565927.96665382385254
564082.23470497131348
562252.10811424255371
560427.93083572387695
558607.86078834533691
556795.77815246582031
554991.08056449890137
553186.43155288696289
551376.25241279602051
549562.45944213867188
547750.9819450378418
545946.01529312133789
544148.35960960388184
542357.87598991394043
540575.74102973937988
538803.05452537536621
537039.08193588256836
535282.78830718994141
533533.91251564025879
531793.20617294311523
530060.55467987060547
528331.24259376525879
526593.72503852844238
524835.13750076293945
523051.90437316894531
521253.24526405334473
519452.37715530395508
517655.3588752746582
171988.69141006469727
171766.28585243225098
171568.70997047424316
171394.12811660766602
171244.00357055664062
171121.00747299194336
171026.26390647888184
170957.32301902770996
170908.44834327697754
170872.42127990722656
170844.45608901977539
170822.11206245422363
170808.97698020935059
170807.1207275390625
170825.04507637023926
170863.97636222839355
170929.34060668945312
171027.15909004211426
171140.104736328125
579785.15447425842285
577759.42866516113281
575734.37704086303711
573715.4151725769043
571717.63952827453613
569752.0219783782959
567821.80916595458984
565927.40668869018555
564065.7730827331543
562227.86492919921875
560404.87197303771973
558596.22778129577637
556806.6683521270752
555035.08442306518555
553271.87755012512207
551508.03357696533203
549742.78212356567383
547980.71013259887695
546224.66838836669922
544474.03426933288574
542727.77068138122559
540985.18673515319824
539244.59489059448242
537504.85949516296387
535767.22770118713379
534033.51281929016113
532302.9152660369873
530572.45244789123535
528837.25248908996582
527087.92856407165527
525312.7050666809082
523507.21806526184082
521680.96079635620117
519850.56650161743164
172608.68193244934082
172337.79534530639648
172104.56729888916016
171902.30608749389648
171725.8742847442627
171572.57407569885254
171441.65610504150391
171332.76707649230957
171244.1082878112793
171172.11003684997559
171112.22894096374512
171061.88174819946289
171019.90203094482422
170989.50026321411133
170971.65614700317383
170972.59003067016602
170992.46177101135254
171035.46223258972168
171107.97744178771973
171194.14767837524414
580532.9211368560791
578417.57132720947266
576299.20475196838379
574189.63826560974121
572109.25465774536133
570072.49713134765625
568083.46670532226562
566140.98022079467773
564241.97389984130859
562380.69415855407715
560550.76309204101562
558749.97457885742188
556979.15011215209961
555235.47855377197266
553510.08492660522461
551793.95743179321289
550084.68345260620117
548383.69614028930664
546689.5401554107666
544997.14555549621582
543301.32628440856934
541597.98821449279785
539885.64461708068848
538168.32502746582031
536453.8780345916748
534745.81776809692383
533038.29509544372559
531320.37182998657227
529583.20078086853027
527820.29973030090332
526025.1680850982666
524196.82194709777832
522346.43854713439941
172990.07892608642578
172730.3842716217041
172507.30646133422852
172314.84903335571289
172147.76424598693848
172002.55332946777344
171877.23083114624023
171770.03893089294434
171678.63529014587402
171600.10721015930176
171532.97108840942383
171476.56050109863281
171433.48021697998047
171403.77880668640137
171391.45732307434082
171395.21988296508789
171417.57783889770508
171464.87307929992676
171522.92438888549805
579415.65810203552246
577207.27798080444336
575009.28928565979004
572843.33516693115234
570726.79948616027832
568665.9911003112793
566659.54898643493652
564705.11370086669922
562801.38966369628906
560946.43326950073242
559137.10963439941406
557369.45802688598633
555638.01512145996094
553935.82947731018066
552257.16351127624512
550599.52688407897949
548959.95346069335938
547329.56109809875488
545694.99521636962891
544045.58269691467285
542377.77715492248535
540695.50363159179688
539009.5144157409668
537331.64591217041016
535663.65702247619629
533991.80803680419922
532295.73892211914062
530561.8957347869873
528787.07412528991699
526972.77407264709473
525124.56897926330566
523256.43246078491211
174003.32985687255859
173711.74955177307129
173458.10772132873535
173237.21209907531738
173043.68831443786621
172873.65678977966309
172725.17917060852051
172597.06808280944824
172487.72226905822754
172394.67981338500977
172316.29794883728027
172251.44703483581543
172201.41231918334961
172165.00694465637207
172144.05865287780762
172135.95102882385254
172141.51343154907227
172166.63670349121094
172198.13882064819336
578420.77144241333008
576140.46357727050781
573890.96922874450684
571691.50110054016113
569551.58601188659668
567470.92227363586426
565446.49184989929199
563478.91714859008789
561571.30498695373535
559723.71304702758789
557930.87765502929688
556185.72203636169434
554483.23326110839844
552820.44231224060059
551193.93460464477539
549595.47271728515625
548008.30951881408691
546412.29446411132812
544795.95453643798828
543161.85418510437012
541520.39433288574219
539882.67456817626953
538255.05004692077637
536632.26011848449707
534995.34013748168945
533320.95338439941406
531595.1876220703125
529817.77574729919434
527996.54483604431152
526143.07639694213867
175062.59979820251465
174777.47488403320312
174525.09911155700684
174300.9725170135498
174101.66586303710938
173925.54631233215332
173772.03414154052734
173640.60440635681152
173529.97978210449219
173438.98053741455078
173365.87971496582031
173310.09235954284668
173268.52710914611816
173240.66092300415039
173222.88413047790527
173214.86784934997559
173222.02457809448242
173231.51035308837891
577560.60857200622559
575224.01404571533203
572939.3759651184082
570719.66251564025879
568564.76283264160156
566467.32260131835938
564424.97572326660156
562443.80146026611328
560529.75115013122559
558682.84993171691895
556899.94206619262695
555176.80559349060059
553507.92740631103516
551885.95023727416992
550298.90566444396973
548726.34564781188965
547146.42114448547363
545550.21927070617676
543945.63031578063965
542345.3316478729248
540754.39955711364746
539168.68353843688965
537576.57997894287109
535960.02756309509277
534299.3194694519043
532582.57799339294434
530810.80720901489258
528994.06775665283203
176837.16289138793945
176523.20451927185059
176241.21696662902832
175987.99863624572754
175760.49114227294922
175556.86224174499512
175376.44889068603516
175219.30327415466309
175085.29282569885254
174974.21963119506836
174884.73488235473633
174815.34807777404785
174761.84678268432617
174721.85294342041016
174690.91751670837402
174667.69964599609375
174657.30955123901367
174647.60948944091797
576913.27207946777344
574549.3373966217041
572253.80410957336426
570026.51608276367188
567858.75128936767578
565746.92493629455566
563696.85454368591309
561716.3699951171875
559810.17630767822266
557979.2604808807373
556219.76624488830566
554523.5820369720459
552882.1732120513916
551285.1390209197998
549713.98036575317383
548145.98901748657227
546569.03339576721191
544987.51017379760742
543410.54539489746094
541839.1487865447998
540265.54834175109863
538678.19869804382324
537063.83119010925293
535409.61962890625
533706.62174606323242
531951.8352165222168
530148.15142631530762
178772.42990112304688
178465.28516387939453
178185.23019218444824
177930.73104476928711
177700.46540451049805
177493.6320743560791
177310.05305862426758
177149.62199020385742
177012.31025505065918
176896.8631649017334
176801.62133598327637
176722.72225952148438
176657.84877395629883
176603.4140567779541
176557.97894859313965
176525.9444694519043
176494.76778984069824
581378.15729522705078
578909.29922866821289
576492.6775016784668
574139.30893898010254
571852.78876495361328
569630.60547637939453
567472.42286109924316
565383.00005531311035
563366.82693290710449
561423.96538543701172
559551.40900993347168
557745.07880592346191
556001.48184967041016
554319.06105804443359
552694.80448341369629
551115.53085136413574
549557.74120140075684
548000.27057266235352
546434.92628288269043
544863.21011352539062
543286.33755683898926
541701.27690315246582
540101.79406356811523
538479.47234344482422
536825.02118682861328
535129.28627777099609
533383.4894962310791
181193.00753211975098
180892.9115104675293
180614.90411758422852
180358.94140625
180125.19745254516602
179913.78446578979492
179724.16891098022461
179555.29204750061035
179404.96536827087402
179271.23759841918945
179151.54272079467773
179045.59662246704102
178952.87009429931641
178873.30834579467773
178810.95018005371094
178752.22784423828125
583122.29158020019531
580653.87040901184082
578233.7857723236084
575865.66502571105957
573554.99185180664062
571307.82196998596191
569130.59653663635254
567028.8403434753418
565002.08076477050781
563040.84153938293457
561133.14629364013672
559273.91952514648438
557467.80559539794922
555724.11958885192871
554047.04218482971191
552427.24069023132324
550842.58800506591797
549268.71102333068848
547689.75905227661133
546100.56443023681641
544501.7843074798584
542893.48904609680176
541271.87938690185547
539629.28409385681152
537956.14814376831055
536242.62710380554199
534480.26603698730469
532666.2058219909668
183387.48778533935547
183087.00320625305176
182806.83616638183594
182547.32959175109863
182308.16053009033203
182087.87982749938965
181884.34297370910645
181694.80815696716309
181517.85491943359375
181352.79800415039062
181201.46748542785645
181065.44150161743164
180945.16377639770508
180843.9878101348877
180748.6713924407959
582426.25143051147461
580017.37226486206055
577652.58134651184082
575335.63885307312012
573077.33184051513672
570889.25190925598145
568777.41540145874023
566736.89608955383301
564751.25950622558594
562802.56736183166504
560885.10202980041504
559009.56362915039062
557193.12205696105957
555445.2440357208252
553760.32938194274902
552119.52556419372559
550499.80901527404785
548883.69577789306641
547262.54072761535645
545633.79215621948242
543995.88520431518555
542344.52117729187012
540672.19431686401367
538968.90218544006348
537224.77896690368652
535433.93999481201172
533597.85040664672852
185673.1825122833252
185369.61534309387207
185085.76238059997559
184820.60087776184082
184572.02631378173828
184337.45730018615723
184114.13567733764648
183901.05124855041504
183698.37227630615234
183508.80816078186035
183335.00416374206543
183177.60188865661621
183039.7574462890625
182908.47534561157227
582018.28035354614258
579658.0016975402832
577336.51240921020508
575067.68641090393066
572866.02910995483398
570735.77370071411133
568667.84884262084961
566643.19696235656738
564642.48670959472656
562660.1671257019043
560709.58572196960449
558811.63953399658203
556979.22678565979004
555210.29783821105957
553490.79081535339355
551802.17139053344727
550128.26927185058594
548458.26583099365234
546785.58065414428711
545105.22480964660645
543411.94036293029785
541699.3895263671875
539959.6117115020752
538183.71097373962402
536366.3963565826416
534509.48579025268555
188115.27830505371094
187801.54703521728516
187504.98688888549805
187223.14020538330078
186953.47369384765625
186693.66620063781738
186443.03132438659668
186201.80452156066895
185972.69682502746582
185758.72555732727051
185561.0248908996582
185383.5483341217041
185214.36551856994629
581824.98569869995117
579495.06444931030273
577212.46524620056152
574993.10915374755859
572838.80160522460938
570736.77286338806152
568666.98787498474121
566611.9041919708252
564567.49149894714355
562546.81134223937988
560570.44749450683594
558652.6740779876709
556795.3322868347168
554990.22898292541504
553224.44938278198242
551484.24188995361328
549756.83053398132324
548031.97846603393555
546302.41994476318359
544563.10549163818359
542810.11550521850586
541038.29367065429688
539239.33758354187012
537405.16067314147949
535533.74396514892578
190708.48161888122559
190377.35947418212891
190059.50417900085449
189752.83016777038574
189455.70389556884766
189167.50626564025879
188887.83697319030762
188618.55499076843262
188362.52205657958984
188121.73435401916504
187901.71353530883789
187692.05377769470215
581752.48316955566406
579453.3206672668457
577214.08376121520996
575033.94040489196777
572897.07810592651367
570783.51411056518555
568679.37066841125488
566583.2198314666748
564506.36586761474609
562465.5279712677002
560473.94985008239746
558536.77131843566895
556652.02157020568848
554813.19891548156738
553009.40354347229004
551226.05442428588867
549449.40768241882324
547670.93290901184082
545887.62912750244141
544099.22361183166504
542303.16358757019043
540490.10204315185547
538646.80326461791992
536765.47595977783203
581814.99788284301758
579555.22043991088867
577348.97135734558105
575178.9458122253418
573026.05512428283691
570880.16903686523438
568742.39135551452637
566621.45165061950684
564529.28811264038086
562476.81341171264648
560471.77156639099121
558517.80493545532227
556613.82677268981934
554751.43642616271973
552915.11145782470703
551088.69026184082031
549263.84922790527344
547441.02395629882812
545622.91555976867676
543806.65065574645996
541979.40195274353027
540123.66081047058105
538229.7852954864502
579832.53588104248047
577630.50593566894531
575441.61554336547852
573257.02026176452637
571078.57458686828613
568914.5045337677002
566774.61735343933105
564668.62680435180664
562605.54214096069336
560591.80489921569824
558629.25710296630859
556711.81770515441895
554824.63558578491211
552951.48408889770508
551085.08951759338379
549228.07050514221191
547383.24869346618652
545543.99102973937988
543692.93192672729492
541811.78238487243652
539894.15443992614746
573576.19850921630859
571363.47832107543945
569174.35002708435059
567019.58025360107422
564907.00290489196777
562841.52573013305664
560824.92930221557617
558853.68918418884277
556916.47355651855469
554999.44806861877441
553096.0263843536377
551207.58110809326172
549333.42386436462402
547462.01361656188965
545573.5372142791748
543652.95371246337891
541700.56463241577148
567323.13977241516113
565212.73994064331055
563146.37822341918945
561122.96625137329102
559136.47339630126953
557177.24214553833008
555238.73024940490723
553318.61627769470215
551410.90873146057129
549499.90358352661133
547566.17461013793945
545599.97298049926758
543608.04698181152344
567672.10029792785645
565561.22926139831543
563489.49597930908203
561456.79227447509766
559458.00531768798828
557485.65763664245605
555532.5223274230957
553587.95519256591797
551634.8958797454834
549656.66480827331543
547648.5314884185791
545620.78536605834961
783045.06960678100586
781445.01132583618164
779848.54844284057617
778220.45045280456543
776546.14317512512207
774823.86673355102539
773054.49723815917969
771236.31233215332031
769361.85342597961426
767418.87533950805664
765397.63677024841309
763298.57014465332031
761135.90609359741211
758931.48108673095703
756707.35400009155273
754483.02194976806641
752275.40156364440918
750096.72274589538574
747949.55217552185059
745826.45955467224121
786434.21572494506836
784808.65037727355957
783233.0716495513916
781656.39584159851074
780042.55892562866211
778377.7910041809082
776660.65189933776855
774892.1443920135498
773068.71023178100586
771180.10165023803711
769212.32094383239746
767155.32221794128418
765012.24047660827637
762802.67312240600586
760555.08328437805176
758295.57826995849609
756043.15449142456055
753811.78406143188477
751611.59887886047363
749445.39377784729004
747307.12289237976074
745189.98443984985352
791515.32871627807617
789710.97585678100586
788015.39561080932617
786411.4359245300293
784855.36686325073242
783294.02946281433105
781690.32111740112305
780031.15290069580078
778315.96246147155762
776545.5480785369873
774714.84685707092285
772811.10762977600098
770818.41202163696289
768726.51031303405762
766540.72657775878906
764286.09768867492676
761997.95406150817871
759706.13986968994141
757428.98538780212402
755177.36008644104004
752959.1383113861084
750777.3177375793457
748627.11698150634766
746503.56244277954102
744410.85925483703613
742361.60353469848633
794772.94139862060547
792879.26700401306152
791092.78066444396973
789413.63039588928223
787825.03184509277344
786282.37678337097168
784730.65267181396484
783132.75768852233887
781475.67024612426758
779759.11218643188477
777983.99278831481934
776144.20561027526855
774225.11234283447266
772209.55364990234375
770087.0638427734375
767864.63921546936035
765571.44564628601074
763248.13901138305664
760928.53680610656738
758630.51909065246582
756361.92545890808105
754128.64349365234375
751933.78579521179199
749773.74109268188477
747645.05751037597656
745552.97697067260742
743508.9443359375
741521.62403678894043
797914.73212051391602
795926.20163154602051
794048.22336006164551
792275.24660110473633
790608.72226524353027
789032.24994277954102
787500.05735969543457
785955.67387390136719
784361.12327575683594
782704.14201164245605
780984.72235107421875
779203.90889930725098
777354.82830047607422
775421.1618824005127
773384.44811820983887
771234.22390174865723
768978.87725067138672
766651.5207691192627
764297.71963500976562
761954.16923522949219
759638.48624420166016
757356.16486358642578
755111.26197242736816
752906.81755256652832
750740.01034736633301
748608.68597030639648
746518.60384178161621
744479.74462890625
742498.50623321533203
740574.71383857727051
800950.66325759887695
798843.13045120239258
796870.07609176635742
795003.89565086364746
793240.17925453186035
791581.49221420288086
790012.34488868713379
788486.23895835876465
786945.29645347595215
785351.56344985961914
783692.93803405761719
781969.67885398864746
780182.62156295776367
778324.66234397888184
776378.62505912780762
774325.09229278564453
772153.56534194946289
769873.26787185668945
767519.50867462158203
765141.5532054901123
762779.0528736114502
760449.44766807556152
758156.08295822143555
755901.55977821350098
753688.94221115112305
751516.3667049407959
749382.73896789550781
747294.2838191986084
745259.68497657775879
743283.24053764343262
741363.61619758605957
739500.03401947021484
801643.67916679382324
799549.94985580444336
797587.59684371948242
795729.5962028503418
793972.71654510498047
792320.25071716308594
790756.6091480255127
789234.70039176940918
787695.95376396179199
786102.19709587097168
784441.6883373260498
782714.82515144348145
780922.41985893249512
779056.87604141235352
777100.04496002197266
775031.93807411193848
772842.33420562744141
770541.67497253417969
768167.42251586914062
765771.21096229553223
763394.25541687011719
761054.30710411071777
758753.38637161254883
756492.88887214660645
754275.7667350769043
752100.66508102416992
749966.79104995727539
747880.50650978088379
745849.84773063659668
743877.56935691833496
741961.59906959533691
740101.72730255126953
738308.61716651916504
934467.48612213134766
931101.32907104492188
927749.51351547241211
924448.38637351989746
921224.91202926635742
918102.35446166992188
802108.20657539367676
800024.01366233825684
798068.81942558288574
796215.84291648864746
794462.57836532592773
792812.75659942626953
791251.23873901367188
789730.73940849304199
788191.99421310424805
786596.79710960388184
784933.9616584777832
783203.59266662597656
781406.43033409118652
779535.06311416625977
777570.99577903747559
775493.66534423828125
773293.12666320800781
770980.28843879699707
768593.33745574951172
766185.28388786315918
763799.11040306091309
761452.55005645751953
759146.56865310668945
756881.8105525970459
754661.50996208190918
752484.47446060180664
750350.11899566650391
748265.06834411621094
746236.9452018737793
744267.34931182861328
742353.69789695739746
740496.41796112060547
738706.51983833312988
737010.00234603881836
938247.7090950012207
934910.42119598388672
931533.34617614746094
928170.30446815490723
924857.50230026245117
921622.854248046875
918489.24312400817871
802356.6707935333252
800277.03737449645996
798325.22577285766602
796474.50443840026855
794723.23273277282715
793075.12958335876465
791514.79552841186523
789995.03235626220703
788456.11245918273926
786859.76414489746094
785195.36182022094727
783462.84678649902344
781662.7996768951416
779787.91332817077637
777819.50438117980957
775736.70146751403809
773529.69990348815918
771209.88973045349121
768816.13583564758301
766402.11644554138184
764011.13780784606934
761661.15383338928223
759352.96186637878418
757086.60482788085938
754865.25914192199707
752687.85161399841309
750553.82992553710938
748469.76004791259766
746443.11839866638184
744475.17605972290039
742562.84807395935059
740707.14748382568359
738919.01017189025879
737224.48028945922852
735645.57466125488281
170860.47828674316406
170821.62168502807617
170812.95822715759277
170835.83355712890625
170893.50278854370117
170982.6910228729248
171106.51899909973145
171257.32217216491699
171436.27350044250488
171644.47784233093262
171864.69393730163574
581653.97334861755371
579584.93440437316895
577541.59210586547852
575514.3037166595459
573495.29167366027832
571484.04742050170898
569483.83016014099121
567497.68191909790039
565528.73387336730957
563577.92486000061035
561643.18233108520508
559721.66206550598145
557810.5208740234375
555906.32493209838867
554006.84693908691406
552112.72247123718262
550224.72596549987793
548343.00893020629883
546470.42533302307129
544614.08098220825195
542780.89687728881836
540971.17471504211426
539177.59511184692383
537390.57806777954102
535606.2205924987793
533827.87214279174805
532059.00238227844238
530295.04099464416504
528526.05446815490723
526747.74214172363281
524965.72140693664551
523188.37734031677246
521419.6916675567627
519659.25117301940918
517905.25441551208496
516155.41429710388184
172477.65615081787109
172131.16381454467773
171827.40964508056641
171566.21614646911621
171345.0830020904541
171159.35237693786621
171003.12817764282227
170870.7940731048584
170758.63732719421387
170665.62098503112793
170593.42974472045898
170544.80238914489746
170523.49235534667969
170530.7730827331543
170569.56439971923828
170636.85531425476074
170735.76005172729492
170859.82726860046387
171010.40281295776367
171189.52752685546875
171380.42991065979004
581734.40738105773926
579648.72464561462402
577595.05888557434082
575557.17076301574707
573524.05876731872559
571497.90671920776367
569487.61209869384766
567500.28872299194336
565538.9653491973877
563602.31467056274414
561686.24824905395508
559788.14805793762207
557906.8833179473877
556038.98844146728516
554179.72323799133301
552326.73027038574219
550479.3992748260498
548636.25421714782715
546797.09836387634277
544965.92570114135742
543148.89051818847656
541347.86217880249023
539557.41219520568848
537768.82744026184082
535978.10548400878906
534188.74492645263672
532404.6856575012207
530621.26092147827148
528828.32768630981445
527022.16437911987305
525209.17840003967285
523398.10847282409668
521593.1695384979248
519793.69481086730957
517996.318359375
516196.91738510131836
172455.84316635131836
172097.84213447570801
171783.39736747741699
171512.67181587219238
171283.67264556884766
171092.11676979064941
170931.98028755187988
170796.74909782409668
170681.16274261474609
170582.51505279541016
170501.31177711486816
170440.03742790222168
170402.68659400939941
170390.96837615966797
170407.74429512023926
170450.26106834411621
170521.36663246154785
170615.49215316772461
170733.89423561096191
170879.29368019104004
171035.42041969299316
580008.31150054931641
577932.4898624420166
575872.26976013183594
573815.73069190979004
571769.66904449462891
569749.86634826660156
567766.60218620300293
565818.84743881225586
563897.93170547485352
561996.5240421295166
560115.84314346313477
558262.01602935791016
556434.25262451171875
554622.70287132263184
552817.08575057983398
551012.2182731628418
549205.49888801574707
547396.07257270812988
545587.57585334777832
543787.0186595916748
541998.07498931884766
540215.86668014526367
538429.65374755859375
536632.68659591674805
534827.89420509338379
533021.6126537322998
531212.57434844970703
529393.0468635559082
527559.51205444335938
525717.17891693115234
523873.53668022155762
522031.8725643157959
520190.46641159057617
518344.96444702148438
172291.69764518737793
171964.55805587768555
171679.92757606506348
171437.17938041687012
171233.44310569763184
171063.47539710998535
170920.45781326293945
170797.73314476013184
170690.66386032104492
170598.07528877258301
170521.68455696105957
170465.51902389526367
170432.0204029083252
170424.48855781555176
170440.8464298248291
170483.88286018371582
170548.91865730285645
170636.95191955566406
170750.9406681060791
170874.39369583129883
580567.50381469726562
578454.67275619506836
576360.62942123413086
574276.68787956237793
572214.10205459594727
570191.17424392700195
568215.71021270751953
566280.21982574462891
564370.28663444519043
562478.26434516906738
560611.90874671936035
558785.67045402526855
557000.91471290588379
555240.89271926879883
553484.9951286315918
551721.5615291595459
549947.40138053894043
548164.37824440002441
546379.46669006347656
544602.15738868713379
542836.04921531677246
541072.7484016418457
539296.50155448913574
537497.57892608642578
535679.49186325073242
533852.4586009979248
532021.17433738708496
530181.65677452087402
528328.82480621337891
526463.2982006072998
524589.7757625579834
522711.60583877563477
520828.55501937866211
518937.95638084411621
172743.29706382751465
172402.80503845214844
172102.48104858398438
171843.02721977233887
171623.04611396789551
171438.24794769287109
171281.91281127929688
171146.67432975769043
171026.73842430114746
170919.81145095825195
170826.86557197570801
170751.50271415710449
170696.06000518798828
170663.58546829223633
170652.49647521972656
170665.95905685424805
170701.17708969116211
170760.0183219909668
170846.25932121276855
170943.06170654296875
579155.63871192932129
577016.64603233337402
574902.24526596069336
572823.41111946105957
570792.60153198242188
568811.40016746520996
566868.94385147094727
564951.5276050567627
563056.30178642272949
561196.69180297851562
559390.68808174133301
557639.3493709564209
555920.06912422180176
554203.39823532104492
552471.77762222290039
550722.43316841125488
548961.6334285736084
547201.66146659851074
545454.43607139587402
543719.99730491638184
541982.18538284301758
540219.89222145080566
538422.8176383972168
536596.72565460205078
534755.97201538085938
532910.89410591125488
531060.45203971862793
529196.05172538757324
527311.94754219055176
525410.67241668701172
523499.21489906311035
521582.18728256225586
173134.02940368652344
172817.15862083435059
172539.6787223815918
172301.1212043762207
172097.68680381774902
171922.94124794006348
171769.75666046142578
171632.54657363891602
171508.95130157470703
171399.58485984802246
171307.29141616821289
171233.59943199157715
171180.3635082244873
171145.54673957824707