/*--------------------------------*- C++ -*----------------------------------*\
  =========                 |
  \\      /  F ield         | OpenFOAM: The Open Source CFD Toolbox
   \\    /   O peration     | Website:  https://openfoam.org
    \\  /    A nd           | Version:  12
     \\/     M anipulation  |
\*---------------------------------------------------------------------------*/
FoamFile
{
    format      ascii;
    class       volScalarField;
    location    "0.0075";
    object      p;
}
// * * * * * * * * * * * * * * * * * * * * * * * * * * * * * * * * * * * * * //

dimensions      [1 -1 -2 0 0 0 0];

internalField   nonuniform List<scalar> 
75962
(
99962.787222909988486
99664.211910754485871
99608.991550652557635
99751.420248451162479
99686.896537941938732
99579.894674174691318
99520.385009133227868
99518.629670831331168
99550.658888275604113
99571.353010969192837
99554.946284380072029
99506.975830854047672
99535.902992579314741
99665.420489320356864
99750.467177169353818
99679.595113879215205
99515.881341838598019
99415.504267360651284
99451.114014877151931
99531.788077014542068
99539.236425974333542
99516.303359418874606
99570.957291733415332
99679.285822553763865
99742.870583436408197
99736.165095704331179
99693.228168540576007
99624.263004469641601
99563.452399420944857
99574.048085004920722
99651.93784002342727
99716.103579725560849
99699.765473489591386
99634.965267293271609
99580.143139811247238
99551.868898258791887
99542.533686026523355
99555.844354378132266
99583.79956620898156
99599.966535875282716
99604.503151224984322
99625.583350560118561
99665.336638576802216
99691.08324365883891
99687.956264483887935
99674.15287743366207
99670.212126553145936
99666.418511948300875
99649.756852164005977
99629.98268264849321
99627.779349061078392
99643.821121034576208
99670.084795447532088
99701.371431761435815
99728.610840242385166
99735.35450054865214
99710.591125364269828
99669.144156487978762
99638.50707066465111
99630.92921345756622
99640.539942305666045
99649.058110891230172
99640.74839719713782
99616.320045905231382
99590.525981783837778
99584.768989669988514
99609.961331117068767
99663.297367466147989
99723.820701187578379
99759.050539772913908
99749.313371132782777
99711.463862106262241
99683.29888460834627
99687.221524846667307
99711.961827730134246
99726.04440599938971
99718.547676004382083
99698.008474668866256
99682.951492858221172
99682.694742016828968
99689.934465104874107
99686.431549482862465
99665.421364240988623
99638.2266875194764
99628.695449924227432
99647.931571628636448
99686.135760558317997
99710.905463892908301
99705.551863882952603
99679.216569223935949
99660.237339715662529
99672.809247676996165
99718.866697924953769
99773.177583615179174
99805.438130792070297
99806.604941564859473
99794.242599909601267
99792.803948152301018
99811.836103733556229
99838.991382256383076
99853.325729376025265
99846.690693005890353
99827.255145059578354
99810.070099691060022
99802.480231694964459
99804.489741768455133
99814.90883423962805
99834.434146202824195
99861.759454704122618
99890.385957564532873
99913.385227695209323
99927.994818413397297
99934.782626518979669
99934.728414666111348
99926.388184436378651
99909.861239612466306
99890.80090948677389
99874.474835997316404
99862.985592726618052
99856.393086476571625
99854.304594604720478
99859.675405075002345
99877.782742628172855
99910.284941125632031
99949.362851269645034
99979.863103488547495
99987.163631441595498
99969.851647411865997
99939.86739134103118
99912.58939510025084
99895.102426236335305
99882.707913193546119
99867.235062515319441
99848.379871968107182
99834.051636609932757
99830.467057286572526
99835.406607720738975
99839.689023690094473
99838.223593179820455
99834.088946728545125
99835.303913321884465
99846.783608431447647
99863.721372488056659
99874.645156636528554
99870.572978321855771
99853.956478879190399
99836.711356897605583
99833.179776402932475
99849.212477808556287
99879.388627961408929
99911.50308783633227
99933.733169481376535
99940.823680100846104
99933.559235044303932
99915.270924948315951
99888.801342892838875
99858.500078672295786
99828.917442732694326
99804.657106477912748
99789.338589377774042
99782.264509239423205
99778.961657953899703
99773.76414648462378
99763.849204779413412
99750.438357390128658
99736.868715394404717
99727.103685536567355
99724.953963421779918
99731.938638363062637
99746.56484864630329
99762.531110283423914
99772.468194186658366
99771.758664601293276
99761.49616011553735
99747.896720472897869
99738.976936176928575
99739.376183122658404
99746.519386259271414
99753.006879723121529
99750.369248393733869
99735.030008374800673
99711.773944408618263
99691.156417993668583
99683.772962321309024
99694.208920341669
99718.548330397097743
99746.618130603892496
99768.711755248645204
99988.133957615762483
99983.520703778151073
99980.537539647048106
99976.618212902394589
99968.753171540432959
99954.554747179456172
99932.928364389576018
99904.711248063438688
99871.633636379876407
99835.783171010712977
99799.061112410839996
99763.643061184498947
99731.681632502630237
99705.700201019542874
99688.43349584696989
99681.22927915683249
99683.237557836866472
99692.145993327372707
99705.079235103039537
99719.946822919722763
99736.377991381639731
99754.587014376011211
99773.610484670876758
99790.757952890606248
99802.737794775835937
99807.729590921939234
99807.033694542027661
99804.732152097407379
99805.417975777876563
99811.952043104945915
99824.641068370488938
99841.945963450663839
99861.98613243852742
99883.658497059237561
99906.743928583557135
99930.364925288537052
99951.805833299004007
99967.267813075552112
99973.864513669759617
99971.944218032076606
99965.741380231193034
99961.355363665876212
99963.444290410392568
99972.835397059025127
99986.216305969792302
99998.118634857353754
100004.34092407092976
100004.19125919719227
100000.36902178583841
99997.367998759393231
99999.009335297334474
100006.78866524125624
100019.5453282516537
100034.27227023127489
100047.30591318171355
100055.52859846777574
100057.00185834610602
100051.46517309626506
100040.5166346662736
100027.00659351589275
100013.78376830085472
100002.61247750875191
99993.795973249027156
99986.590854446360026
99980.31117921078112
99975.672031061680173
99975.336086851908476
99982.990113140476751
100001.45224183223036
100030.37949145607126
100065.28968116805481
100098.39994855666009
100121.56745150477218
100129.43897596094757
100121.42386820224056
100101.31990607443731
100075.19316468438774
100048.71862534682441
100025.20085168760852
100005.48012069058314
99989.107444216439035
99975.857600460294634
99966.622057051295997
99963.164105810923502
99967.106979245785624
99978.710520990440273
99996.109388838405721
100015.58579162253591
100032.76477899523161
100044.19155087511172
100048.45400082042033
100046.39128437785257
100040.38851575220178
100033.31096605585481
100027.50672746474447
100024.16418506499031
100023.53448397807369
100025.29349659880972
100028.97571201031678
100034.08932051327429
100040.09876814091695
100046.37750961586426
100052.24721254852193
100057.09971829231654
100060.53294559387723
100062.49518523113511
100063.07095243608637
100062.30094543489395
100060.07972967831302
100056.37399579766497
100051.4183440481429
100045.88409206128563
100040.83961529673252
100037.53473698999733
100037.02470378144062
100039.87072562357935
100046.01583969469357
100054.86080869844591
100065.46761297386547
100076.89366820326541
100088.42786769951636
100099.5290137824195
100109.65181725249568
100118.06485481381242
100123.72739364361041
100125.47300382163667
100122.34381100308383
100114.08238045769394
100101.52737073993194
100086.70689063011378
100072.54245424945839
100062.01774882807513
100057.11999725761416
100058.2415309111384
100064.09890177461784
100072.16255259183527
100079.70148551801685
100084.91439622343751
100087.58503001635836
100089.07456563600863
100091.53300529222179
100096.76088460723986
100105.35685079511313
100116.3271209642553
100127.58072674463619
100136.83784619059588
100142.6637155420467
100145.04053783233394
100145.28261455906613
100145.25954917081981
100146.40260216062597
100148.95888323959662
100151.91957334133622
100153.46882197963714
100151.98457444619271
100146.89406207638967
100139.14745870819024
100130.9646743334597
100124.98749339538335
100123.27529334553401
100126.45792212735978
100133.47067113290541
100141.99344729991572
100149.41754567163298
100153.89907079200202
100155.08388579040184
100154.01049064412655
100152.5408794258401
100152.31802851193061
100154.05802767245041
100157.33843120271922
100160.74282791126461
100162.61900011591206
100161.74736177829618
100157.56160407404241
100150.28775820200099
100140.45748174906475
100128.88031642208807
100116.0039265613741
100102.68765572304255
100089.18266766922898
100076.21942394753569
100064.30972963424574
100054.18438837249414
100046.36433025391307
100041.11724880195106
100038.23872202644998
100037.09616409800947
100036.77270048775245
100036.34604090799985
100035.01065145328175
100032.45950053133129
100028.72848660795717
100024.29924510953424
100019.81026167275559
100015.79171410933486
100012.67786266867188
100010.6434420630103
100009.58560092640982
100009.37916948492057
100009.81483617381309
100010.85119831263728
100012.61573891197622
100015.10720934442361
100018.07841547280259
100021.22305183693243
100024.11443698786024
100026.34268121756031
100027.78018434758997
100028.89329289646412
100030.76410477516765
100034.84869996825
100042.37893586428254
100053.80471579582081
100068.48166538141959
100084.74521579658904
100100.28157383449434
100112.5649379335664
100119.49614059671876
100120.08444011189567
100114.82754110865062
100105.50638775985863
100094.59215274946473
100084.56044557290443
100077.39380062776036
100074.213631649749
100075.21706918458221
100079.72862247459125
100086.45613927513477
100093.92049748791032
100100.8503614509973
100106.47606227421784
100110.54511319908488
100113.13428293803008
100114.40732624218799
100114.33382676255133
100112.66732217489334
100109.04759512016608
100103.15342485300789
100094.87521731999004
100084.42933061516669
100072.48594937750022
100060.10538843972608
100048.54871210007695
100038.98059675694094
100032.14412690597237
100028.19840456056409
100026.69690639825421
100026.75727918656776
100027.40538216267305
100027.85194003222568
100027.61183220511884
100026.45505682620569
100024.31448370999715
99586.209246744387201
99666.677820611468633
99820.198824265564326
100070.61850041533762
99866.17900604843453
99449.349895180683234
99301.359109050914412
99423.61522137002612
99517.407990321400575
99542.296730912101339
99563.361534522351576
99563.009052312772837
99606.888441912611597
99718.105793834009091
99772.108187262885622
99675.12478144322813
99504.347039665997727
99414.123519500542898
99466.524269247238408
99555.115558229255839
99567.672404782511876
99543.158553903384018
99590.440603690629359
99693.797429140118766
99751.907944947073702
99732.893755857425276
99691.618827754049562
99647.892347636210616
99597.926645602477947
99592.311237224552315
99658.012648418167373
99728.728608993405942
99718.918695715721697
99639.130529908201424
99561.225208375180955
99520.878404804854654
99516.242061984725296
99543.79894985568535
99590.145607733749785
99614.266247241233941
99603.595182598641259
99599.102350273446064
99630.279752634756733
99670.580261605689884
99689.957502816789201
99692.955614319434972
99695.83402624334849
99689.780884834282915
99665.481655686045997
99655.32349219918251
99672.101197771291481
99701.602549304938293
99720.608006822498282
99727.484950110010686
99733.247096529637929
99734.670599592791405
99715.315190550943953
99683.808919738876284
99661.718531031758175
99658.414240915139089
99666.202798273137887
99671.310236203804379
99663.438462521968177
99645.768768828304019
99630.306268156884471
99633.246095916751074
99657.41791803711385
99700.566101062417147
99744.246175341584603
99766.190866577759152
99758.299345337349223
99733.762075140097295
99715.405981769450591
99712.607653828294133
99720.323052164618275
99729.96574999326549
99732.560072400607169
99725.340447045178735
99714.413290353812044
99708.392256865132367
99707.839249042488518
99704.268968665783177
99689.617922073870432
99669.177270673098974
99655.188682642430649
99663.55363095854409
99683.755649429134792
99704.462008554328349
99716.042756875540363
99713.959490108522004
99709.592199925304158
99723.567927340860479
99764.05390071508009
99813.484716723061865
99843.20494044428051
99841.58339424947917
99822.270804783314816
99810.355399059451884
99817.394321288054925
99833.30193019536091
99840.224242050826433
99831.155154097097693
99814.12657255846716
99799.658220212542801
99792.63099048982258
99793.751924775264342
99805.143979940301506
99830.09496435924666
99866.727837034777622
99903.526522805332206
99927.596168785632472
99935.250466061115731
99932.469488085189369
99927.365518031700049
99921.878348264202941
99915.472935492856777
99907.741214210560429
99900.215816897136392
99892.389356693107402
99884.113702616858063
99877.468588935880689
99877.418719520210288
99890.173165709653404
99916.50853394207661
99950.306082469571265
99977.915927716356236
99987.317083225600072
99974.195954496477498
99947.557544558832888
99922.335368830201332
99906.735105863990611
99897.321219663150259
99886.208164874391514
99871.78008055628743
99860.21088612661697
99858.725895423413021
99865.072990293672774
99869.428594754528604
99864.844352118801908
99853.569088108342839
99845.44995271951484
99849.894636445897049
99864.458053607173497
99879.056204254884506
99881.91893598830211
99871.465644570605946
99856.377939483354567
99850.313395813311217
99861.563033671598532
99887.591703664249508
99919.050931690610014
99943.957075597703806
99953.732887138467049
99945.577577045056387
99921.975429321304546
99889.260990415801643
99856.518585512894788
99830.812559765312471
99815.557749147323193
99808.773869346681749
99804.518373923856416
99795.892321763720247
99778.802826231447398
99755.16426048152789
99732.690851072242367
99717.508719771765755
99711.790302484369022
99714.223808038310381
99723.009621098448406
99737.050683027249761
99754.184312061915989
99770.329153105558362
99779.587591912946664
99778.348382569136447
99768.302382447320269
99755.336322398346965
99745.72272431163583
99741.486114761559293
99739.693258981977124
99734.409213836028357
99721.888504597591236
99703.870666799790342
99687.076034454526962
99679.748459258509683
99687.128963146504248
99709.360057659563608
99740.230648803379154
99771.326219018272241
99795.543141559144715
100013.37114628119161
100007.04605869023362
99999.747611059108749
99991.775852419930743
99981.971627737599192
99968.733780326059787
99950.634347822589916
99927.158844317760668
99898.806648409576155
99866.889069887649384
99832.487463052762905
99796.650815959408646
99760.786265757211368
99727.097272476283251
99699.055143520323327
99680.109491888666525
99672.504606152288034
99676.362962672603317
99689.138248927643872
99706.742140390531858
99725.52452458665357
99743.327506796340458
99759.239932733529713
99772.795729160294286
99783.342745244852267
99790.245420947147068
99793.834658729101648
99795.890227555835736
99799.13453804134042
99806.014355730920215
99817.406915593717713
99832.138235990001704
99847.951802256473457
99863.442899716843385
99879.138131936269929
99896.580844293013797
99916.430427405677619
99936.888990043546073
99953.965821832010988
99963.748011782910908
99965.248413455774426
99961.439978580339812
99957.6205854935979
99958.572087629683665
99966.19645044876961
99978.692293296291609
99991.809512180348975
100001.74167646764545
100006.92240929760737
100008.21298363448295
100007.8061368544295
100007.6368680283631
100008.8655588474212
100011.80679106805474
100015.96223551715957
100020.24948588445841
100023.06425897829467
100022.80789798237674
100018.40716385202541
100010.05220074490353
99999.326794844309916
99988.413696936651831
99978.927404800357181
99971.242281455910415
99964.948703136818949
99959.751166633126559
99956.630470893607708
99958.231004188899533
99967.649644628501846
99986.782366528612329
100014.48868345390656
100045.82468818350753
100073.79340651605162
100091.8569585493824
100096.24620010846411
100087.37526556907687
100068.99496918382647
100046.06020852779329
100022.4145583234349
100000.04859684914118
99979.721523519838229
99961.873446273224545
99947.488699143519625
99938.352218010972138
99936.701254261002759
99943.895383434472024
99959.149944783523097
99979.310069690167438
99999.76984258632001
100016.07099094610021
100025.2972973651631
100026.85286752211687
100022.40426185075194
100015.0161003494286
100007.9408362176473
100003.51369879508275
100002.58556726093229
100004.7448713529302
100009.10047213778307
100014.8618644978269
100021.55016648351739
100028.91869908872468
100036.58278819748375
100043.75239641369262
100049.36802058694593
100052.5097034657374
100052.74963601992931
100050.3226869791979
100045.94509544926404
100040.52092725117109
100034.9197388356115
100029.85596173338126
100025.86698582019017
100023.35205788162421
100022.76067191040784
100024.48245343309827
100028.77508302537899
100035.62695466101286
100044.74560172494967
100055.59224628662923
100067.41182827322336
100079.33274711467675
100090.50016968738055
100100.03061365165922
100106.95229126921913
100110.30208839390252
100109.36782528569165
100103.97788999404293
100094.75209294633532
100083.24940909887664
100071.79621248425974
100063.0073227846151
100058.90506126343098
100060.16023835900705
100065.93712435421185
100074.0023631730437
100081.5027020942216
100086.13634556009492
100087.0812188214768
100085.313978876904
100083.13879090051341
100083.17642707088089
100087.19756957654317
100095.31751462482498
100105.95693974754249
100116.61943273867655
100124.98447354220843
100129.9682893629215
100132.09482907000347
100133.08650042835507
100134.88742906799598
100138.62370669236407
100143.95970855164342
100149.21344106995093
100152.06763018088532
100150.67891480817343
100144.65030966869381
100135.39874129949021
100125.75684844423085
100118.86072897847043
100116.94576898535888
100120.60762511556095
100128.54113071305619
100138.15003456341219
100146.57424646777508
100151.91918020059529
100153.93302449464682
100154.02553841249028
100154.37502922589192
100156.81308634080051
100161.97441015046206
100168.95590215697302
100175.70873253430182
100179.8805480334122
100179.69308228051523
100174.45988752364065
100164.66188833341585
100151.36566014381242
100135.89302849692467
100119.44536532758502
100102.89822690507572
100087.10476224124432
100072.53014720189094
100059.74851915350882
100049.14550926280208
100040.96098840142076
100035.06572605609836
100031.0034444405901
100028.34946777988807
100026.49449633309268
100025.05611222176231
100023.69981932753581
100022.35238213960838
100021.1117385096004
100020.08350741672621
100019.34668619491276
100018.81365514804202
100018.28299040542333
100017.60371319144906
100016.72067120854626
100015.85031756733952
100015.35968124140345
100015.58297185276751
100016.87016501364997
100019.31508730800124
100022.60853592904459
100026.17873074465024
100029.26816026979941
100031.24602955335286
100032.02878049512219
100032.26268462232838
100033.23992150054255
100036.5970248291851
100043.81041263903899
100055.48234701252659
100070.93684434288298
100088.2766565290658
100104.7771973771014
100117.50550904381089
100124.03511488242657
100123.24580526274804
100115.61735521393712
100103.14497862642747
100088.71222037241387
100075.29492112118169
100065.30167760101904
100060.06543519240222
100059.79250738168776
100063.69219713732309
100070.37618781774654
100078.22303701976489
100085.83602789342694
100092.33068104066479
100097.39404491832829
100101.1188414801727
100103.67469833954237
100105.02748971324763
100104.83718053778284
100102.57023239739647
100097.75884388998384
100090.226337142798
100080.24357235575735
100068.54749550993438
100056.2403664267913
100044.58828035833722
100034.68738741340348
100027.25490853865631
100022.46777663943067
100020.01236866126419
100019.20241656557482
100019.24403560545761
100019.48978999668907
100019.61842493744916
100019.54431153976475
100019.25210930858157
99797.020441366359591
99778.239179339609109
99581.170674307213631
99572.021337867176044
99609.133080875806627
99536.449347184970975
99485.267812192993006
99579.920771676072036
99669.859329040511511
99635.387409432500135
99574.894893226170097
99593.400063629233046
99662.78096912955516
99754.144400457982556
99786.219660627873964
99694.697029507005936
99541.501761464824085
99462.306915341861895
99506.620813959118095
99594.265807574789505
99617.609401167428587
99581.825381015718449
99593.127289613898029
99670.920522315980634
99724.492677646121592
99720.443830980133498
99705.91744155123888
99690.685085849167081
99649.285949197685113
99615.588455479533877
99647.45116663070803
99702.56402320509369
99697.521026251968578
99629.70590122268186
99562.77447312186996
99524.513445541466353
99509.730787282373058
99530.91790989387664
99587.158106657414464
99625.179111255842145
99615.182679880090291
99600.95126166123373
99627.174647712367005
99669.591044116925332
99691.686804985438357
99696.918844177387655
99701.808186712951283
99700.985212223429698
99694.283241110635572
99700.167433273876668
99729.578449399399688
99758.764639269254985
99757.798745319189038
99735.023914319273899
99717.837944955594139
99714.632567628112156
99707.238776981874253
99688.123818823311012
99671.461726237641415
99671.295689244696405
99684.399702591545065
99699.396201821698924
99705.386056085699238
99702.354880501981825
99696.54722605922143
99693.433317021947005
99698.37672367884079
99708.949584857851733
99721.065883054572623
99730.627927082008682
99736.950215392134851
99741.685587405110709
99743.625167465957929
99740.738353333668783
99737.253586908860598
99741.031379954758449
99745.069201770762447
99739.236867097890354
99724.456790522002848
99711.761253291871981
99709.604262984183151
99712.668809988637804
99707.423521590637392
99690.61979463910393
99669.111631715553813
99661.929922205585171
99673.30893928851583
99709.145250434594345
99749.296099277518806
99771.682934967146139
99777.489870646139025
99783.395009678890347
99803.241246447912999
99834.383993887531688
99857.170653597946512
99856.763909327448346
99839.404400834333501
99821.400412057832
99811.961847787853912
99810.096512995296507
99808.530654310641694
99802.376846875602496
99794.068311260838527
99788.195401114804554
99787.871410160325468
99793.402087392081739
99807.911247541094781
99834.547022577011376
99869.859247232394409
99901.992684466575156
99919.679454417113448
99921.915081864790409
99917.04175559610303
99913.886847560512251
99916.086434088385431
99921.291932394989999
99925.568401696378714
99925.934983965562424
99922.161027526773978
99914.53739391718409
99907.457995998935075
99905.644167667851434
99911.653112645624788
99924.883088428614428
99943.019773452644586
99960.401400348011521
99969.433535481424769
99963.756809189755586
99945.477296602315619
99925.497954704362201
99912.060844915322377
99905.244998005000525
99900.085542001368594
99894.155205694478354
99891.356758714420721
99896.205016097665066
99905.80353406118229
99909.482467720692512
99899.429241377714789
99878.262221148121171
99859.026009752618847
99853.430205389042385
99863.316144185519079
99880.588381564215524
99892.314510960582993
99891.734225904336199
99883.362146921324893
99877.07033310746192
99882.145269856191589
99900.382491888405639
99924.950596160604618
99945.062576785523561
99950.669516205321997
99937.644972298294306
99909.92537141435605
99877.772537472425029
99852.12766075086256
99838.26412383983552
99834.190431262177299
99832.820431379659567
99825.103999556333292
99805.539296645292779
99775.524154756873031
99743.037157868209761
99718.500434352230513
99708.062241061168606
99709.403474666745751
99716.16277339446242
99724.523678218596615
99735.510938545281533
99752.390184608942945
99774.030044256520341
99793.311867302647443
99801.418960436159978
99794.589977091774927
99775.956979517446598
99753.415578329499112
99733.960629351655371
99720.55213785203523
99712.293387564757722
99706.222137331409613
99699.797979906958062
99693.340090782847255
99690.006531342747621
99694.191065550927306
99710.004324346024077
99737.281351475117845
99771.475976448447909
99804.155884661959135
100015.60416648474347
100010.28167958043923
100000.10968790002516
99986.609580285177799
99970.762804930549464
99952.900374822638696
99933.168703698684112
99911.77975673142646
99888.820583299297141
99864.060765388145228
99836.658186057189596
99805.769299037070596
99771.637158058656496
99737.007442342423019
99706.419729847097187
99684.737785914650885
99675.59647572627
99679.598593369562877
99694.031886809010757
99714.207192181100254
99735.169228294063942
99753.155758715962293
99766.596707178323413
99775.872784475592198
99782.267606734036235
99787.141552363813389
99791.763281101273606
99797.566604207488126
99805.902333851568983
99817.329623471654486
99830.98326539734262
99844.776981685179635
99856.771168701801798
99866.674989823746728
99876.182825245414278
99887.777599086373812
99902.955580903522787
99920.726477855670964
99937.527104266468086
99949.168580997327808
99953.6080089755269
99952.451234836538788
99950.019856965518557
99950.953649096481968
99957.941254868885153
99970.630971837381367
99986.12655198838911
100000.77153399892268
100011.85364232915163
100017.98372401221422
100018.65466239988746
100014.36825259168108
100006.784351121285
99998.240583104023244
99991.073827907763189
99986.543375140114222
99984.348934748326428
99982.865927028658916
99980.16418206608796
99975.076193357308512
99967.92097595334053
99960.059866302806768
99952.900062985456316
99947.015600577695295
99942.261023428189219
99938.859192393574631
99938.13569937851571
99942.20363625115715
99953.306960985530168
99971.938388502720045
99995.737790022118133
100020.09607268165564
100039.58723536407342
100049.89318397747411
100049.68661152906134
100040.71131996256008
100026.23561024128867
100009.07548689449322
99991.048208763575531
99972.956674013679731
99955.134829478600295
99938.447350436254055
99924.854581972394953
99917.128263637758209
99917.595431872076006
99926.846060015785042
99943.014284704506281
99962.361293040477904
99980.38600762745773
99993.208070193431922
99998.766837037139339
99997.3550989239302
99991.40631775566726
99984.457476618918008
99979.74017736800306
99978.995386926078936
99982.227274978504283
99988.237586120143533
99995.605670126882615
100003.39497940207366
100011.39332583565556
100019.72995750900009
100028.32119596301345
100036.36276230384829
100042.32610328224837
100044.68847337986517
100042.61050034103391
100036.49107896561327
100027.86557220456598
100018.86699907112052
100011.46664348743798
100006.85421877846238
100005.29927981362562
100006.34880886199244
100009.30916582269128
100013.68702851729176
100019.26290014930419
100026.13650736643467
100034.51841071304807
100044.46023190276173
100055.60707122503663
100067.1328975289216
100077.85445449313556
100086.49532696505776
100091.88407872627431
100093.22891099797562
100090.35267760307761
100083.88927306864935
100075.30242282545078
100066.62482780335995
100060.12083583451749
100057.64612638874678
100060.04412085103104
100066.80028170470905
100075.90039669940597
100084.34422436889145
100089.39868614447187
100089.62229146086611
100085.32940528931795
100078.63505981977505
100072.62018595020345
100070.12797623645747
100072.67277150163136
100079.82914102560608
100089.69835678764503
100099.77575134599465
100108.11946331089712
100114.04635408023023
100118.28118793660542
100122.43124759003695
100128.00913487764774
100135.50290530257917
100143.9331024990388
100151.05916721951507
100154.37442816767725
100152.24777483075741
100144.68309691213653
100133.59704458292981
100122.27553135827475
100114.08916037804738
100111.23561520055227
100113.97029736865079
100120.76609812525567
100128.99847767704341
100136.12472331353638
100140.70247193842079
100142.96468159370124
100144.5429264051927
100147.6060668042046
100153.73783444460423
100163.1385730332986
100174.31863478769083
100184.69606760340685
100191.43780545625486
100192.41381363428081
100186.84048298173002
100175.34198312967783
100159.45514512603404
100141.01946606491401
100121.74235611727636
100102.85156927940261
100085.21141110020108
100069.46768471859104
100056.02635622418893
100045.02881353946577
100036.37272652286629
100029.66262494951661
100024.44861630932428
100020.30448034562869
100017.07896448721294
100014.66765601985389
100013.19217143167043
100012.80342059199756
100013.61646696957177
100015.55550796262105
100018.32963299995754
100021.44067658329732
100024.23264786564687
100026.26816621604667
100027.42211565683829
100027.84264359985536
100028.04026876301214
100028.62721354803944
100029.92163819058624
100031.93798439658713
100034.41302343127609
100036.71790177725779
100038.16222976558493
100038.31529936715378
100037.41404418101592
100036.40008232630498
100036.73546072997851
100040.08501665925724
100047.77477176088723
100060.20456239521445
100076.46201770704647
100094.37946357997134
100110.92346989709768
100122.97295665819547
100128.17021857130749
100125.50362130951544
100115.55624342181545
100100.31209412570752
100082.69043720573245
100065.82932267290016
100052.34039595640206
100043.78139661054593
100040.51552568805346
100041.87678151304135
100046.5545390813204
100053.08514046372147
100060.25745002165786
100067.3059283431503
100073.8874521565449
100079.92317978468782
100085.34883955735131
100089.84701345892972
100092.78290756163187
100093.36733600859588
100090.98194631474325
100085.40220723063976
100076.96854330449423
100066.52008734305855
100055.19899090143736
100044.17032519925851
100034.38369581040752
100026.41609460301697
100020.42046673680306
100016.17470594729821
100013.29182343266439
100011.41222868816112
100010.30511949422362
100009.95242377401155
100010.44478266687656
100011.74392849624564
100013.52108707840671
99955.315165045627509
99676.717112013924634
99655.173057904627058
99721.674931169618503
99853.782798674990772
99842.899421772031928
99749.740885324325063
99742.622741594415857
99806.020226122389431