/*--------------------------------*- C++ -*----------------------------------*\
  =========                 |
  \\      /  F ield         | OpenFOAM: The Open Source CFD Toolbox
   \\    /   O peration     | Website:  https://openfoam.org
    \\  /    A nd           | Version:  12
     \\/     M anipulation  |
\*---------------------------------------------------------------------------*/
FoamFile
{
    format      ascii;
    class       volScalarField;
    location    "0.0075";
    object      p_0;
}
// * * * * * * * * * * * * * * * * * * * * * * * * * * * * * * * * * * * * * //

dimensions      [1 -1 -2 0 0 0 0];

internalField   nonuniform List<scalar> 
75962
(
99962.549882302191691
99659.407260098771076
99613.23910907881509
99753.596745853574248
99683.752775678804028
99577.515775626001414
99519.374402049303171
99519.320265684858896
99551.606015010955161
99571.644279634769191
99553.916985045507317
99506.582832313462859
99539.067861946445191
99669.970799593851552
99751.621656946721487
99676.409561279026093
99512.325753748227726
99415.520365757416585
99454.427505533982185
99534.368945099558914
99539.65509290562477
99517.679695332408301
99574.927600821742089
99683.273931234158226
99744.548516429378651
99735.73632663670287
99691.690794588430435
99622.251113755875849
99562.784756273758831
99575.943577171638026
99654.874150880525121
99717.211140130180866
99698.566988086691708
99633.094311694512726
99578.946264508747845
99551.500417173199821
99542.860843177608331
99556.880662751151249
99584.789160272528534
99600.375587653063121
99604.916734048296348
99626.681230985035654
99666.611279443735839
99691.606343389066751
99687.848106102639576
99674.089362692233408
99670.3439832477452
99666.238762484732433
99648.987842449510936
99629.461626875548973
99627.89996532148507
99644.494951486456557
99671.081209360345383
99702.465127121628029
99729.261744700866984
99734.97690251552558
99709.248867228307063
99667.690707223198842
99637.726478514858172
99630.958656120346859
99640.922204150308971
99649.129522656192421
99640.232708433264634
99615.548849746352062
99590.208830682502594
99585.399846242187778
99611.755591648528934
99665.706987816927722
99725.858400169177912
99759.628339904156746
99748.388089705622406
99710.155543643515557
99682.796536029170966
99687.61947692236572
99712.446184270214872
99725.854385843471391
99717.724616260660696
99697.033466534892796
99682.355985753587447
99682.457761881349143
99689.583969810599228
99685.516426186237368
99664.081626590734231
99637.161723285898915
99628.478707511414541
99648.677288069622591
99686.910663759583258
99710.840949448262108
99704.532121663636644
99678.012785103768692
99659.797298533871071
99673.615484397058026
99720.488664532342227
99774.508395866752835
99805.71567567634338
99805.970078192200162
99793.496247082410264
99792.597191596432822
99812.120951735370909
99839.130961887320154
99852.769162980766851
99845.438400181694306
99825.753674013787531
99808.773303765090532
99801.535028431448154
99803.87130471560522
99814.620441153107095
99834.512770669636666
99862.059195330570219
99890.637899412613478
99913.396859001979465
99927.717491469040397
99934.235055258337525
99933.871382461380563
99925.226947639486752
99908.497468792716973
99889.458556717960164
99873.31258372173761
99862.055134051828645
99855.670500872962293
99853.854339322118904
99859.657678001647582
99878.309489938721526
99911.212139031995321
99950.214238186308648
99980.041183068431565
99986.348590338733629
99968.256012955840561
99938.050203573046019
99911.005213305936195
99893.773197796414024
99881.37141206736851
99865.748776682914468
99846.898120282057789
99832.882773004152114
99829.715565312391846
99834.862509735568892
99839.063954819517676
99837.427535504859407
99833.308908618666464
99834.771089102359838
99846.492612007859861
99863.382866828003898
99873.880826681532199
99869.305839704131358
99852.520464219152927
99835.627106794461724
99832.826129855893669
99849.568502072768752
99880.102797863743035
99912.069925664516632
99933.795433174236678
99940.305432595894672
99932.505120854344568
99913.792941849707859
99887.048947926552501
99856.661105392617173
99827.199889896859531
99803.262731090362649
99788.341319558137911
99781.526812052048626
99778.249907310048002
99772.895442568420549
99762.800847118298407
99749.317239057956613
99735.850968291983008
99726.342865486760275
99724.535357701752218
99731.828886241142754
99746.593242821269087
99762.437890373053961
99772.029257045331178
99770.916738164567505
99760.45548266757396
99746.964726333870203
99738.389341068730573
99739.146035150246462
99746.408166511231684
99752.655457840141025
99749.525281805545092
99733.72598398392438
99710.358599658808089
99690.080932185577694
99683.374445823748829
99694.506681104190648
99719.219533463998232
99747.237922907472239
99768.991482551427907
99988.180356271739583
99983.616799130279105
99980.583160993250203
99976.4775318842876
99968.30301057791803
99953.719794931676006
99931.720372420881176
99903.208509607531596
99869.942630941484822
99834.006087929636124
99797.287347865581978
99761.953690255322726
99730.152307797019603
99704.427059659603401
99687.500436228030594
99680.650541503579007
99682.961529263338889
99692.084147261382896
99705.142631960756262
99720.093083632033085
99736.608460390663822
99754.876050990322256
99773.860668173947488
99790.821031871586456
99802.491912159297499
99807.163749398678192
99806.282860872946912
99804.009331265449873
99804.901729127872386
99811.718047832968296
99824.656465085747186
99842.125157756367116
99862.254126156913117
99883.984829760229331
99907.118564773641992
99930.732883548276732
99952.044672653137241
99967.24598825207795
99973.534793585407897
99971.415806375123793
99965.246704250501352
99961.123478672932833
99963.584585028176662
99973.27472868480254
99986.740930924614077
99998.50859687422053
100004.48771065822802
100004.14501684588322
100000.30130169334006
99997.474612880483619
99999.411041726329131
100007.48396844336821
100020.42825972833089
100035.18443028925685
100048.09021152180503
100056.07019452638633
100057.2490658453753
100051.44501044563367
100040.32432589051314
100026.76586912105267
100013.59041558462195
100002.50238411210012
99993.747388311516261
99986.564427739416715
99980.304094445891678
99975.759388962003868
99975.657458502653753
99983.697470356564736
100002.60556272557005
100031.87111637923226
100066.84522218292113
100099.65797682697303
100122.2203874692641
100129.35027800030366
100120.66407648327004
100100.11073376062268
100073.79701099528756
100047.33278113116103
100023.91686551952444
100004.3097890461213
99988.047329709472251
99974.942652487428859
99965.935212379205041
99962.802447881826083
99967.126363068367937
99979.080123309307965
99996.694397523533553
100016.18396371754352
100033.17225296646939
100044.27556520544749
100048.18562983046286
100045.83698012771492
100039.67313154655858
100032.56927567363891
100026.84144444271806
100023.6297564979759
100023.14243876897672
100025.02586036003777
100028.79436207740218
100033.94799413783767
100039.9498163300741
100046.18295256794954
100051.98601198427787
100056.77203537916648
100060.15660433589073
100062.09761812047509
100062.67186182166915
100061.90212764032185
100059.66780282178661
100055.93437747796997
100050.94987379189115
100045.40585725118581
100040.39127503114287
100037.16956689943618
100036.79378526969231
100039.80595304864983
100046.12133313405502
100055.11491442818078
100065.8348389344319
100077.33730547118466
100088.91584574687295
100100.03217005012266
100110.13988538832928
100118.49731341643201
100124.05257519138104
100125.63831358813331
100122.31254774962144
100113.8559394695767
100101.16201961159823
100086.3070711298933
100072.23624983288755
100061.92208476881206
100057.30236509318638
100058.6926609876391
100064.73948674889107
100072.87633275630651
100080.38436986782472
100085.51998430966341
100088.14004742777615
100089.65856564266142
100092.23406032162893
100097.6281215694471
100106.36999214775278
100117.40091964177554
100128.59901376362541
100137.7041235165525
100143.34134657020331
100145.56715826159052
100145.75279983681685
100145.77883777106763
100147.03523402306018
100149.69948857354757
100152.70091030281037
100154.20237138774246
100152.6077315108414
100147.40845872141654
100139.62340271974972
100131.51430736693146
100125.72268688192707
100124.26011380784621
100127.67885420002858
100134.83300070122641
100143.36071050983446
100150.66166343889199
100154.95140161087329
100155.94681762963592
100154.74269806285156
100153.22244226775365
100153.00565268057107
100154.76566047580855
100158.03174172490253
100161.36365936088259
100163.11205125888227
100162.08669323283539
100157.75071011776163
100150.35727066014078
100140.44121718942188
100128.80577628986794
100115.88555690100475
100102.53454136707296
100089.01388808658521
100076.05375437672774
100064.18493891856633
100054.14083159621805
100046.42247584696452
100041.28093357742182
100038.48664599897165
100037.38392976042815
100037.05225712250103
100036.56800926523283
100035.14201191430038
100032.48211058154993
100028.64165570355544
100024.12421202026599
100019.57194422830071
100015.51647187335766
100012.38944467535475
100010.35507907916326
100009.31405241544417
100009.14736338009243
100009.64710261722212
100010.77760954666883
100012.65246486343676
100015.24538112532173
100018.29215407771699
100021.47435131912061
100024.36024595877097
100026.54672523171757
100027.92548876674846
100028.99685828352813
100030.87331534117402
100035.02283638213703
100042.66494162703748
100054.21359299040341
100068.97679493884789
100085.24465687936754
100100.67664081296243
100112.7496129101055
100119.39744388396502
100119.68078761952347
100114.1601755880256
100104.67353199589706
100093.72749329342332
100083.80038854415761
100076.840232421775
100073.91303272782534
100075.15877671868657
100079.86141522576509
100086.70528594354982
100094.20934063076857
100101.10974200848432
100106.65442102082307
100110.61009310289228
100113.07189214816026
100114.21154335817846
100113.99962602228334
100112.18324519907765
100108.39974195996183
100102.3377639487735
100093.90895879246818
100083.35666525147099
100071.37365231721196
100059.03265725015081
100047.58866546889476
100038.1856836193183
100031.53373024883331
100027.76377638133999
100026.40273008296208
100026.55625882040476
100027.24827223285683
100027.70007713107043
100027.43967642499774
100026.25468868578901
100024.0873115798604
99584.440298390662065
99670.936349516385235
99829.84152962040389
100072.23583525216964
99854.62802451227617
99439.176381826633587
99301.530280788050732
99428.190319892848493
99519.912781905833981
99544.769904103857698
99565.698700151886442
99565.423630049903295
99611.223078665920184
99722.648893392208265
99772.809482341152034
99671.915448412575643
99501.381592437479412
99415.033147824651678
99470.57924340495083
99558.219735321035841
99568.6196739897714
99544.738274441726389
99594.374424649111461
99697.686564037576318
99753.360851952646044
99732.571276981980191
99690.969200539941085
99646.982379738154123
99597.517954899449251
99593.86509535316145
99660.94231729740568
99730.215914752858225
99717.559454379690578
99636.583983932083356
99559.479132219697931
99520.486419130247668
99517.049556957441382
99545.549473230814328
99591.801499670778867
99614.752427142317174
99603.48527309455676
99599.837461746239569
99631.992659484953037
99672.107098454929655
99690.834018832523725
99693.604858774939203
99696.210434400549275
99689.49005154146289
99665.021926240180619
99655.540260067762574
99672.965500554346363
99702.502435126167256
99720.999856916401768
99727.634455537365284
99733.316688059523585
99734.275017374617164
99714.289356399691314
99682.781784909413545
99661.206339020747691
99658.440318934503011
99666.364648549075355
99671.236632201471366
99663.085726779463585
99645.42905545742542
99630.42988610919565
99634.147500279024825
99658.981575648998842
99702.408992890297668
99745.534656171614188
99766.374400836779387
99757.513329088324099
99732.767756038796506
99714.856614030286437
99712.570535221413593
99720.4801527558011
99730.025502328920993
99732.32184184648213
99724.804185899047297
99713.827878961499664
99707.914141393019236
99707.353659647968016
99703.582195732291439
99688.651680612325436
99668.278611128873308
99654.714997336210217
99663.739475399663206
99684.070143475779332
99704.63492554872937
99715.922319366814918
99713.65018164247158
99709.663500401074998
99724.501721449138131
99765.622729430411709
99814.788969893954345
99843.428835834682104
99840.798353669728385
99821.234337706759106
99809.776291298738215
99817.275033136567799
99833.095975509117125
99839.470936125566368
99829.882324177116971
99812.706450051351567
99798.409959307857207
99791.670258709404152
99793.112654931159341
99804.97691366833169
99830.461957440027618
99867.38331208677846
99903.971743450791109
99927.481534714213922
99934.627838932749
99931.615081563868443
99926.488439321910846
99921.011143368537887
99914.55949782145035
99906.811668021124206
99899.316341036916128
99891.492940381693188
99883.262789280008292
99876.830568108009174
99877.196190021204529
99890.483877007121919
99917.235562468136777
99951.043403146177297
99978.146667166467523
99986.711604368916596
99972.855968364834553
99945.969624904799275
99920.927972329722252
99905.586052933591418
99896.209499777702149
99884.960251408920158
99870.509427625642275
99859.224257202280569
99858.134453854421736
99864.654846910343622
99868.829190467818989
99863.930706383252982
99852.592262278689304
99844.741426924723783
99849.605631480197189
99864.36308326323342
99878.722071013457025
99881.108246399147902
99870.379516932996921
99855.46789617628383
99849.986631019695778
99861.918027165564126
99888.376578066134243
99919.84599106789392
99944.324728958134074
99953.405586663488066
99944.539152956742328
99920.409504838258727
99887.471720070185256
99854.83608456060756
99829.486294950940646
99814.645541483710986
99808.113782321364852
99803.817862721611164
99794.912100323010236
99777.493589212957886
99753.717968148368527
99731.406604301679181
99716.570234021637589
99711.224725510372082
99713.948744697394432
99722.933706962110591
99737.104227068834007
99754.240556468561408
99770.20832537933893
99779.126031212392263
99777.52802720409818
99767.285888533559046
99754.364951481955359
99744.941895357900648
99740.846555727737723
99739.008580445908592
99733.462125442776596
99720.645212682778947
99702.530962764736614
99685.99094302507001
99679.204487581126159
99687.24416571992333
99709.987421325044124
99741.043517384139705
99771.973675112982164
99795.82113662759366
100013.42527007493482
100006.99305595323676
99999.615739765387843
99991.531361474582809
99981.537195877448539
99968.035361864473089
99949.629863533438765
99925.861818969671731
99897.280867353416397
99865.213645847587031
99830.722632412609528
99794.854603711530217
99759.01998823932081
99725.462791999612818
99697.683563592057908
99679.111756027516094
99671.938852321531158
99676.19494639444747
99689.242481676556054
99706.968490531944553
99725.758901913868613
99743.504614676334313
99759.321134895712021
99772.744056998591986
99783.119175453408388
99789.838631069724215
99793.295999887763173
99795.328712875052588
99798.677097717139986
99805.750231094731134
99817.340956995278248
99832.192583743933938
99848.033933790589799
99863.527011439291527
99879.272117120039184
99896.822098079195712
99916.770830424226006
99937.22037240935606
99954.128110024423222
99963.639533356501488
99964.915721193363424
99961.065095324709546
99957.418927039412665
99958.681064980090014
99966.609228558954783
99979.268246938023367
99992.363832314804313
100002.14905556369922
100007.166307964726
100008.361499020888
100007.94744148568134
100007.83338686566276
100009.13835906577879
100012.14997853775276
100016.33817265111429
100020.60430852361606
100023.33137981347681
100022.93343312233628
100018.36972874029016
100009.89135669352254
99999.118645813519834
99988.230928606542875
99978.79406331932114
99971.140929668661556
99964.857229548768373
99959.678579348284984
99956.657349020912079
99958.492179708366166
99968.26359639558359
99987.770465939422138
100015.72057048499119
100047.03307976503856
100074.67571152828168
100092.18303421823657
100095.93819511849142
100086.52496826273273
100067.79175030000624
100044.69252244802192
100021.00388320155616
99998.652902374407859
99978.381028861447703
99960.638778175372863
99946.446085132236476
99937.615384503034875
99936.37212305511639
99943.997335966443643
99959.59022786092828
99979.898208763959701
100000.27898558178276
100016.31310694853892
100025.1723008773406
100026.37442485406063
100021.67889017130074
100014.19698696734849
100007.17469564423664
100002.89705797222268
100002.14823747931223
100004.46796875075961
100008.94240078466828
100014.77813066962699
100021.50056512988522
100028.86833761791058
100036.4943400187185
100043.58756163289945
100049.10074798075948
100052.13734508851485
100052.2967642947915
100049.83048090613738
100045.45725237087754
100040.07174272697011
100034.52758872875711
100029.52448211467708
100025.5907319298276
100023.13242987279955
100022.611673558451
100024.43067378770502
100028.84767336212099
100035.83782550666365
100045.0898061007174
100056.04516910403618
100067.93440791570174
100079.88136799412314
100091.03151926041755
100100.50245858798735
100107.32332875492284
100110.53571808460401
100109.44157709313731
100103.89531740597158
100094.55522447910334
100083.01818629053014
100071.63128884589241
100063.00586722837761
100059.13062985819124
100060.61563957958424
100066.55714259641536
100074.67346020703553
100082.10714792487852
100086.60402300648275
100087.42165610047232
100085.60921496017545
100083.50806245720014
100083.72419238909788
100087.96554763753375
100096.26396774762543
100106.97197788792255
100117.57762567955069
100125.79796485055704
100130.62520566977037
100132.65632617184019
100133.65466421862948
100135.55261699350376
100139.41945845987357
100144.84306287928484
100150.08289202414744
100152.81399054147187
100151.23982918506954
100145.04747628726182
100135.73908125777962
100126.19033101160312
100119.5216914426419
100117.90460148410057
100121.84305324760498
100129.94521109900961
100139.56846557978133
100147.86729691713117
100153.01340161575354
100154.84055636332778
100154.82307699021476
100155.15710933560331
100157.6425640975358
100162.85084049281431
100169.81764372478938
100176.46028441334784
100180.43442130826588
100180.00363488226139
100174.53274182282621
100164.54388802051835
100151.12219066578837
100135.57876917246904
100119.1126340507908
100102.57228340420988
100086.8120679959975
100072.30121272106771
100059.60822707273473
100049.11591945753025
100041.04461415101832
100035.25142427714309
100031.25986783402914
100028.64313633870916
100026.79017743151053
100025.3347602069407
100023.94447890747688
100022.55733105386025
100021.2669318880362
100020.18129079899518
100019.37785453793185
100018.77001846546773
100018.16321660432732
100017.41740992192354
100016.49348842122708
100015.62481877139362
100015.18378812246374
100015.49963745794958
100016.90769393804658
100019.47089566808427
100022.8506343527697
100026.45789895176131
100029.53049903077772
100031.45498099349788
100032.17766974726692
100032.37876610195963
100033.37933332238754
100036.82740343862679
100044.18192389683099
100056.00372420880012
100071.55900795702473
100088.8963260143355
100105.26166049807216
100117.72813924925867
100123.90865585154097
100122.7502020503598
100114.80818181281211
100102.14249659705092
100087.66902730736183
100074.35873634119343
100064.58404050373065
100059.62223364239617
100059.61843194605899
100063.7340392179467
100070.55515995298629
100078.45729205070529
100086.05937728862045
100092.49869700233103
100097.48304246633779
100101.11696262007172
100103.57263398662326
100104.81055140687386
100104.48282913102594
100102.05438557980233
100097.06707899323374
100089.36874943570001
100079.25820127518091
100067.49819066109194
100055.20496106796782
100043.64157866274763
100033.88151467386342
100026.61202962268726
100021.97967499411607
100019.65390224306611
100018.94118044874631
100019.05264261017146
100019.34933780327265
100019.5181663811527
100019.47231744635792
100019.19499717347207
99799.828275652354932
99772.149930453990237
99575.412332844061893
99571.646369312104071
99607.379217292414978
99533.66673782482394
99486.252848130941857
99584.245191599460668
99672.005268935419735
99634.777048576332163
99575.763702930460568
99596.515204884897685
99666.925635554274777
99757.59473627396801
99786.419706438056892
99691.710483229035162
99538.757631034328369
99462.983446600890602
99510.046981368970592
99597.27605908633268
99618.366871790814912
99582.236721756329644
99595.552204399646143
99674.009300887424615
99725.971847201435594
99720.836160990817007
99706.302974717167672
99690.513333203954971
99648.46446211366856
99615.884003166327602
99649.335920299621648
99703.678043906751554
99696.360926774927066
99627.539292715810006
99561.356362586040632
99524.055993719855906
99510.314482794550713
99532.837801428453531
99589.480749996655504
99626.200402220536489
99615.168264835039736
99601.62977524579037
99628.92052442386921
99671.192893961793743
99692.493875037675025
99697.464721013355302
99702.265886967463302
99701.106896134035196
99694.602668024002924
99701.145702163150418
99730.930076948032365
99759.371494967999752
99757.251352221966954
99734.13292474175978
99717.339901463696151
99714.335429072598345
99706.657025484906626
99687.322115144896088
99671.010383702814579
99671.399481380765792
99684.845619993371656
99699.818015586162801
99705.598235357174417
99702.412040608091047
99696.674306458662613
99693.611378621557378
99698.711504482867895
99709.267738691080012
99721.261395260458812
99730.645274868991692
99736.878680751207867
99741.57817332878767
99743.368005719516077
99740.464969461463625
99737.144074091716902
99741.114798326045275
99744.915778293681797
99738.639251454966143
99723.642716905698762
99711.130473011537106
99709.30721201596316
99712.406483699684031
99706.845055697267526
99689.755156186234672
99668.410705461865291
99661.724708134235698
99673.891191942078876
99710.395792340888875
99750.389707176043885
99772.233178606926231
99777.764761570317205
99783.880935248234891
99804.117321478188387
99835.166757203667657
99857.26581677973445
99856.028113015447161
99838.33250737504568
99820.419974112402997
99811.224196113311336
99809.423973220094922
99807.70471121679293
99801.376440077248844
99793.009691525439848
99787.279914997037849
99787.163981208854239
99792.951946816247073
99807.905221162654925
99834.986569885237259
99870.450938836831483
99902.25442799332086
99919.358003126311814
99921.186175189330243
99916.258571059093811
99913.287505189568037
99915.6634988928854
99920.916784838424064
99925.096589846827555
99925.310677011613734
99921.393582598568173
99913.721352973981993
99906.795136446555262
99905.256202434335137
99911.586026105142082
99925.088623343006475
99943.32423720866791
99960.535307260142872
99969.121149535538279
99962.898359141734545
99944.314480241460842
99924.370095659527578
99911.140007752590463
99904.44401201265282
99899.267993544330238
99893.378074461317738
99890.817448909394443
99895.962803105881903
99905.580016402236652
99908.884032656933414
99898.366424626365188
99877.030697259513545
99858.086715107230702
99853.085644710896304
99863.40238097589463
99880.697126264960389
99892.096698685651063
99891.17616888313205
99882.730534880043706
99876.773826129632653
99882.388983508470119
99901.027207196602831
99925.650269138408476
99945.389312981860712
99950.323241022488219
99936.596485918431426
99908.46202693945088
99876.316443826988689
99851.005989401615807
99837.579566261847503
99833.761899528690265
99832.318198086068151
99824.222157934855204
99804.189883793442277
99773.886644804486423
99741.482174344884697
99717.363268151806551
99707.437362026961637
99709.119776860359707
99715.988709415876656
99724.394842039371724
99735.508270656413515
99752.552592111489503
99774.211265542777255
99793.209633558479254
99800.796632478857646
99793.438984906533733
99774.500411139248172
99751.940804212994408
99732.65818423582823
99719.460224170223228
99711.316815547237638
99705.24920365845901
99698.813745755702257
99692.447101590136299
99689.373826914656092
99693.994569849353866
99710.320521782705327
99737.98928086583328
99772.272965808675508
99804.678602892454364
100015.70717073387641
100010.11623428438907
99999.736925914621679
99986.071814008493675
99970.072888392402092
99952.051890699556679
99932.167520251532551
99910.640737149762572
99887.567032660037512
99862.694137267651968
99835.159311402559979
99804.122739018755965
99769.892953329806915
99735.305347605113639
99704.940312723323586
99683.655577442856156
99675.009235287085176
99679.475225817441242
99694.230829893873306
99714.536739370349096
99735.447591311356518
99753.265036834593047
99766.507551427697763
99775.616864783296478
99781.899807441237499
99786.715709043462994
99791.338044648044161
99797.208996715577086
99805.665747250590357
99817.22236082458403
99830.950649541351595
99844.734531145004439
99856.667693280047388
99866.536940835605492
99876.100927157269325
99887.845474203262711
99903.197432778630173
99921.057704701481271
99937.788752916778321
99949.228068914861069
99953.452557024967973
99952.206492431330844
99949.879052069562022
99951.073421580716968
99958.37313776879455
99971.30118011419836
99986.880261983707896
100001.45940928926575
100012.37485471919354
100018.28007296798751
100018.71085575206962
100014.22073161654407
100006.52133710018825
99997.970696216449142
99990.884635164460633
99986.468337051657727
99984.355666377246962
99982.885192857982474
99980.133302915084641
99974.975948308318038
99967.779119918588549
99959.918078032977064
99952.778626791157876
99946.905370880456758
99942.147346649508108
99938.7692766085529
99938.146729525076807
99942.422663505276432
99953.804507070104592
99972.679645435026032
99996.572536532956292
100020.80677460174775
100039.96736042491102
100049.81902348840958
100049.16819592023967
100039.85827840615821
100025.16619196654938
100007.87509343052807
99989.764921604684787
99971.618835168861551
99953.781406645764946
99937.164445210320991
99923.775655376972281
99916.393767393878079
99917.285879474045942
99926.934452627581777
99943.36603998701321
99962.775869735400192
99980.656026896627736
99993.181119422210031
99998.389411970114452
99996.68318015843397
99990.582386413007043
99983.651156692125369
99979.084078232728643
99978.548642657959135
99981.976303791481769
99988.127905270288466
99995.579256012730184
100003.41110912713339
100011.42935613948794
100019.7665920353902
100028.32641670070007
100036.28387806705723
100042.10753122701135
100044.30195259675384
100042.07470864590141
100035.87306031776825
100027.2613638673065
100018.36783619473863
100011.12710949436587
100006.6812638179108
100005.26064322168531
100006.39532420564501
100009.40523813075561
100013.82385278154106
100019.45765010078321
100026.41928303174791
100034.90934678284975
100044.95640234783059
100056.17804232741764
100067.72628540496225
100078.41026851114293
100086.95689474776736
100092.20997547241859
100093.40023869212018
100090.37942350612138
100083.81661836897547
100075.20486558513949
100066.58950031740824
100060.2308087094716
100057.95843817036075
100060.56495572494168
100067.46811899052409
100076.59875989414286
100084.94122216181131
100089.79674922845152
100089.79999516163662
100085.35432752307679
100078.63771602262568
100072.75098039006116
100070.49506439275865
100073.30556042847456
100080.66940144159889
100090.63333795289509
100100.69327953990432
100108.95313758638804
100114.79769764770754
100119.00968260566879
100123.21564742994087
100128.90357780503109
100136.49800452451746
100144.94705940860149
100151.9681081691233
100155.06646251305938
100152.67770767842012
100144.90353659960965
100133.74765330989612
100122.53512523332029
100114.60549969926069
100112.07289572957961
100115.09142690809676
100122.05465382331749
100130.30658264062367
100137.32952732815465
100141.75238515225647
100143.88733978338132
100145.42121577738726
100148.52754004059534
100154.75001960997179
100164.21758822955599
100175.37312239423045
100185.60115701054747
100192.08301855187165
100192.73897416432737
100186.8511252633034
100175.0967221637402
100159.04038898464933
100140.52459059419925
100121.23881189711392
100102.39329852283117
100084.83370526888757
100069.19603729902883
100055.87879699746554
100045.00994875529432
100036.47857981118432
100029.86653288974776
100024.72290525276912
100020.61674300550658
100017.41128384556214
100015.012097540166
100013.55138485690986
100013.1808590269211
100014.00249080808135
100015.92576624099456
100018.65146102005383
100021.68103749965667
100024.36815341326292
100026.30123358944547
100027.37265360399033
100027.75106942596904
100027.96140007209033
100028.60633331740974
100029.98144746085745
100032.07639178339741
100034.60171533697576
100036.91227918086224
100038.32333432637097
100038.42911769058264
100037.50077997792687
100036.50544032586913
100036.92271303021698
100040.41498641289945
100048.28558654125663
100060.88351143915497
100077.23507002342376
100095.12015780790534
100111.48202460366883
100123.21102875431825
100127.99976025013893
100124.91420093156921
100114.6191525443428
100099.1605460827268
100081.48176272171258
100064.7131960351835
100051.43167398247169
100043.14071425153816
100040.14775895939965
100041.73794133370393
100046.57727524259826
100053.19952564069536
100060.40843948171823
100067.46022553923831
100074.02602230409684
100080.03037700473214
100085.40319543167425
100089.81506388174603
100092.62681106303353
100093.05314701834868
100090.49193769592966
100084.74335428739141
100076.17720556042332
100065.65500062030333
100054.3267838039028
100043.35282875549456
100033.66235042313929
100025.80738577494049
100019.9164289082546
100015.75955734956369
100012.95454962046642
100011.1528986284975
100010.13148006415577
100009.8764652156533
100010.46563861772302
100011.83943596118479
100013.64619946994935
99947.450270535424352
99671.748452373445616
99653.877431353466818
99724.750689534281264
99856.260107675465406
99840.761354808826582
99747.624789772933582
99743.456735441461205