/*--------------------------------*- C++ -*----------------------------------*\
  =========                 |
  \\      /  F ield         | OpenFOAM: The Open Source CFD Toolbox
   \\    /   O peration     | Website:  https://openfoam.org
    \\  /    A nd           | Version:  12
     \\/     M anipulation  |
\*---------------------------------------------------------------------------*/
FoamFile
{
    format      ascii;
    class       volScalarField;
    location    "0.0075";
    object      pMean;
}
// * * * * * * * * * * * * * * * * * * * * * * * * * * * * * * * * * * * * * //

dimensions      [1 -1 -2 0 0 0 0];

internalField   nonuniform List<scalar> 
75962
(
98887.452011440516799
98887.952998098102398
98887.745839784474811
98887.582725511922035
98887.503593392902985
98887.404213558824267
98887.276896937779384
98887.119259843471809
98886.906529530853732
98886.629725493781734
98886.295127564153518
98885.938515099522192
98885.574447841165238
98885.16437234422483
98884.687390214312472
98884.194702311084257
98883.749583657961921
98883.354502097208751
98882.957975734039792
98882.519226072749007
98882.05560588237131
98881.603180140678887
98881.151301314064767
98880.664368351106532
98880.142419040916138
98879.614069778326666
98879.100525084257242
98878.61245951615274
98878.158697392122122
98877.723649922510958
98877.272593061410589
98876.791578180069337
98876.307415477916948
98875.850681437674211
98875.424555616045836
98875.018284712190507
98874.624826474639121
98874.239658645994496
98873.852513982899836
98873.461132078577066
98873.071279692085227
98872.681559072225355
98872.281886053882772
98871.871388509927783
98871.462484557880089
98871.064847147834371
98870.678226568183163
98870.299385530830477
98869.932604795292718
98869.584549110863009
98869.249421549786348
98868.917616631282726
98868.583302483457373
98868.244845270339283
98867.902405230837758
98867.561493772722315
98867.233891304582357
98866.930023190958309
98866.648481575670303
98866.3800213374343
98866.114143488739501
98865.84635228003026
98865.580140368634602
98865.3234292469715
98865.081332447749446
98864.850858106336091
98864.623316019002232
98864.385060087937745
98864.129112851122045
98863.859298352850601
98863.59088134689955
98863.340397789768758
98863.112508094694931
98862.895625847610063
98862.676986688587931
98862.454939666640712
98862.237514227410429
98862.033357260981575
98861.84506028991018
98861.667992493239581
98861.496597126184497
98861.330354871926829
98861.174112135573523
98861.032732841820689
98860.903047351865098
98860.775280218440457
98860.636606328960625
98860.485776916131726
98860.332588499906706
98860.188818427253864
98860.058639232229325
98859.935114546839031
98859.805018490194925
98859.659592897893162
98859.50244748260593
98859.345699279700057
98859.198716916696867
98859.061140263773268
98858.924762846145313
98858.783176692915731
98858.638334373288671
98858.498278721279348
98858.370345154864481
98858.256540131129441
98858.154267052683281
98858.059099412857904
98857.967823460523505
98857.877646454915521
98857.785663302114699
98857.690545020392165
98857.592710512530175
98857.493250322906533
98857.393031362793408
98857.29265599088103
98857.193889852962457
98857.100067152030533
98857.014150048955344
98856.937135690808645
98856.86777159612393
98856.80410970588855
98856.744180388122913
98856.684774130335427
98856.621461639093468
98856.549128162994748
98856.463547641717014
98856.365077284732251
98856.260120912018465
98856.158002107884386
98856.065972138938378
98855.98564400205214
98855.913665964020765
98855.846573175716912
98855.784214643630548
98855.728476895063068
98855.679443125307444
98855.633686359782587
98855.58674544095993
98855.537222375729471
98855.487473782457528
98855.440627099451376
98855.396726904349634
98855.352654868635
98855.305084008854465
98855.253573727619369
98855.202130605553975
98855.156604015603079
98855.11963583859324
98855.088747752684867
98855.056978599372087
98855.017644857871346
98854.96714389391127
98854.907167427765671
98854.842515289550647
98854.778210254458827
98854.718522889728774
98854.666310322441859
98854.622862649819581
98854.588687445284449
98854.563267702440498
98854.544346160400892
98854.528539601989905
98854.513553350610891
98854.498986860577133
98854.485790332400938
98854.475367520251893
98854.468207917379914
98854.463484662104747
98854.459272764928755
98854.452888785599498
98854.441840110957855
98854.425070599972969
98854.404033414044534
98854.382567762993858
98854.365374171597068
98854.355398865649477
98854.352736758679384
98854.354588479051017
98854.357676514715422
98854.36055511207087
98854.364575679021073
98854.373246780349291
98854.390399530224386
98854.416995489867986
98854.450081763570779
98854.483860100765014
98854.512532161170384
98854.533097858220572
98854.54628495995712
98855.765109097963432
98855.786416887975065
98855.804693728889106
98855.81959303462645
98855.831870927417185
98855.843207202284248
98855.855832799163181
98855.872078156258794
98855.893924458665424
98855.922835007106187
98855.959837055124808
98856.0055925360939
98856.060279083161731
98856.12333810965356
98856.193290953786345
98856.267921951512108
98856.344910043801065
98856.422287200810388
98856.498653698043199
98856.573190113165765
98856.645372562299599
98856.714537403269787
98856.780215271268389
98856.84277047161595
98856.903813239798183
98856.966123254576814
98857.032838496612385
98857.106164342694683
98857.186566971096909
98857.272989080840489
98857.363681600705604
98857.457038656546501
98857.551936660966021
98857.647695337058394
98857.743860876522376
98857.840034626700799
98857.936153169692261
98858.032987724945997
98858.132244298685691
98858.235985519262613
98858.345451401575701
98858.460059611228644
98858.577543034320115
98858.694834024849115
98858.809381264698459
98858.920272501549334
98859.02845281593909
98859.136013164941687
98859.244856048928341
98859.35562305196072
98859.467414312646724
98859.578228041529655
98859.685884145728778
98859.788850496450323
98859.886577080818824
98859.979499935070635
98860.068887108878698
98860.156523955229204
98860.244195442268392
98860.333114614259102
98860.423574488915619
98860.515130824060179
98860.607059549307451
98860.698919116490288
98860.790616958634928
98860.882135463019949
98860.972982235354721
98861.061779934068909
98861.146102426195284
98861.223064503399655
98861.290406619315036
98861.347583495924482
98861.396348840396968
98861.440432386021712
98861.484494997028378
98861.532744832686149
98861.58792020677356
98861.651063429264468
98861.721972318031476
98861.799868445334141
98861.884002999024233
98861.973802187581896
98862.068521616020007
98862.166875869661453
98862.26690907801094
98862.366275969267008
98862.462862536878674
98862.555427588362363
98862.643974742168211
98862.729765859767213
98862.814839059341466
98862.901379100265331
98862.991036016726866
98863.084601821246906
98863.182004095229786
98863.282490611993126
98863.385034694918431
98863.488649013976101
98863.592604691089946
98863.696511152244057
98863.800330293903244
98863.90434116977849
98864.009027233361849
98864.114975783828413
98864.222688401467167
98864.332473088201368
98864.44442507129861
98864.558511659997748
98864.674673296671244
98864.792882411580649
98864.913209490361623
98865.035823709564283
98865.160872869775631
98865.288335686083883
98865.417953193507856
98865.549221058536205
98865.681395773790427
98865.813598395936424
98865.945026604909799
98866.075090672631632
98866.203374753327807
98866.329602604455431
98866.453673180338228
98866.575620255825925
98866.69569645509182
98866.81446025891637
98866.93281663232483
98867.051927771666669
98867.173025057214545
98867.29709857814305
98867.424588832858717
98867.555236985659576
98867.6880762118235
98867.821701498003677
98867.954716951193404
98868.086173161223996
98868.215751055191504
98868.343659456906607
98868.470295607927255
98868.595870551085682
98868.720164054306224
98868.842411420089775
98868.961540936637903
98869.076561165595194
98869.186944387998665
98869.29283596019377
98869.394963100319728
98869.494316182957846
98869.591737825612654
98869.6875898703438
98869.781694640783826
98869.87354688718915
98869.962742948002415
98870.049307190041873
98870.13379153572896
98870.21710337116383
98870.300136550227762
98870.383338358442415
98870.466462946598767
98870.548563513671979
98870.628263447928475
98870.70421189366607
98870.775510368781397
98870.841963220082107
98870.904019541470916
98870.962446036020992
98871.017995381873334
98871.071178761863848
98871.12209353223443
98871.170525171415647
98871.216188413251075
98871.258993729483336
98871.299177933717147
98871.337299478167552
98871.374081171001308
98871.410242537502199
98871.446325290919049
98871.482683457623352
98871.519501332368236
98871.556931618892122
98871.595111879869364
98871.634115772118093
98871.67397400396294
98871.714497384440619
98871.755215703160502
98871.795518371553044
98871.834753754723351
98871.872416370591964
98871.90826061712869
98871.942300537513802
98871.974781762764906
98872.006113384995842
98872.036793806095375
98872.067334617968299
98872.098111281564343
98872.129415664079715
98872.161434801790165
98872.194262627061107
98872.227932360183331
98872.26241845721961
98872.297626412546379
98872.333412018357194
98872.369523311048397
98872.405636755618616
98872.441429119149689
98872.476691224816022
98872.511383977747755
98872.545656245652935
98872.579824913409539
98872.614285010800813
98872.649343836485059
98872.685092159634223
98872.721351801199489
98872.757718836190179
98872.793721838126658
98872.829049603096792
98872.863770797266625
98872.898505094533903
98872.934404515239294
98872.972985737244016
98873.015862938947976
98873.064490593969822
98873.119935341848759
98873.182677890668856
98873.252532011276344
98873.328811908271746
98873.410592777305283
98873.496957000214024
98873.58717463852372
98873.680837556254119
98873.777826325327624
98873.878334692053613
98873.982857179624261
98874.092065720455139
98874.20671363393194
98874.327602081000805
98874.455619341693819
98874.591752458145493
98874.737082599473069
98874.89273676169978
98875.059851569618331
98875.239470598346088
98875.432410995985265
98875.639179801364662
98875.860006813527434
98876.094959829686559
98876.344079580958351
98876.607472002200666
98876.885417038196465
98877.17836378015636
98877.486916311245295
98877.811821127761505
98878.153926846076502
98878.514138852988253
98888.519616532459622
98888.729925267296494
98887.693409989180509
98887.508439234545222
98887.393347444434767
98887.254128975502681
98887.152620405409834
98887.016671876699547
98886.797965041303542
98886.522558609038242
98886.201589922158746
98885.85562846706307
98885.495855504646897
98885.092178687715204
98884.628790647344431
98884.158381701461622
98883.738300861470634
98883.368660777807236
98882.993682919070125
98882.567450840448146
98882.112665757653303
98881.669829473583377
98881.231266350892838
98880.75676217507862
98880.243639795298805
98879.724806608151994
98879.223705185708241
98878.742114761931589
98878.283535714377649
98877.841876435617451
98877.388318300145329
98876.904132662908523
98876.411306495821918
98875.948691316560144
98875.527495829490363
98875.134065072546946
98874.753291888264357
98874.372877443034668
98873.982352773658931
98873.582257496687816
98873.18717703713628
98872.803000689586042
98872.415161467419239
98872.011561906285351
98871.601619114691857
98871.198590630840044
98870.804857692754013
98870.418823089567013
98870.046518958304659
98869.690145043467055
98869.339113897731295
98868.985580314940307
98868.629581314031384
98868.278584130195668
98867.934862302470719
98867.597643371045706
98867.27188024854695
98866.966382018683362
98866.681774749173201
98866.410004496879992
98866.141869701925316
98865.872886776603991
98865.605760402962915
98865.346823129060795
98865.09973073436413
98864.862323705528979
98864.626913558182423
98864.384830340190092
98864.13021749559266
98863.86742877321376
98863.607979047694243
98863.362140091965557
98863.132320914039155
98862.912608552505844
98862.695937670345302
98862.480587218815344
98862.268698494997807
98862.065224205231061
98861.874178500846028
98861.694847143357038
98861.523509839273174
98861.358289164563757
98861.200907110207481
98861.055067150693503
98860.91986340029689
98860.789438561318093
98860.653862586055766
98860.510528038692428
98860.361809099951643
98860.214319985214388
98860.074634098345996
98859.940186881824047
98859.801291455383762
98859.650254795880755
98859.489180360003957
98859.32930775222485
98859.180153532623081
98859.042140809906414
98858.9083152871317
98858.772623864206253
98858.635779941207147
98858.503860224896926
98858.382769811447361
98858.27417379526014
98858.176365109480685
98858.085702743817819
98857.99882267684734
98857.911686050327262
98857.81990290065005
98857.721271604983485
98857.618042249261634
98857.514885392607539
98857.415484735596692
98857.320409985462902
98857.228793105794466
98857.140358685894171
98857.056499473721487
98856.978222665391513
98856.905593839721405
98856.838417344115442
98856.775827737379586
98856.715409702912439
98856.653063350939192
98856.583772771686199
98856.503901323274476
98856.413219282840146
98856.315893806080567
98856.219786975721945
98856.132051983760903
98856.054912316190894
98855.985780702685588
98855.921295446765726
98855.861120576111716
98855.806645295757335
98855.758105410757707
98855.712253402351053
98855.664506967979833
98855.613413716913783
98855.561588166703586
98855.513285972934682
98855.470164432379534
98855.429595568479272
98855.386834250937682
98855.339392662091996
98855.289538537559565
98855.242567169319955
98855.202125853975303
98855.167323804314947
98855.132373434942565
98855.090717799554113
98855.038577552972129
98854.975953959175968
98854.906551371022942
98854.836459967511473
98854.771646944078384
98854.71590586831735
98854.67027269177197
98854.633339833439095
98854.602021223312477
98854.5729138138704
98854.544021714595146
98854.515998339033104
98854.491406107117655
98854.472852887018234
98854.461216504627373
98854.454900733428076
98854.450381721137092
98854.444614378138795
98854.43572805931035
98854.422527943141176
98854.404155363648897
98854.381004196024151
98854.355149853596231
98854.330216905713314
98854.310057813330786
98854.29713621159317
98854.291291270405054
98854.290666639280971
98854.293535696560866
98854.299514761034516
98854.310402534378227
98854.328878066255129
98854.355877590787713
98854.389296484005172
98854.424574938122532
98854.45633540066774
98854.480517673378927
98854.495828155821073
98854.503931629500585
98855.696160433610203
98855.713319153132034
98855.72915914200712
98855.743298273955588
98855.755810579677927
98855.767346341701341
98855.779112731353962
98855.792825454671402
98855.810289870743873
98855.833039281496895
98855.862286063842475
98855.899088793041301
98855.944379903419758
98855.998845544614596
98856.062373474298511
98856.133610092379968
98856.210151069346466
98856.289050562496413
98856.367472088037175
98856.443327235479956
98856.51559891072975
98856.584238515875768
98856.649832663970301
98856.713203073173645
98856.77543088098173
98856.838074811006663
98856.903056759867468
98856.972105341032147
98857.046177906071534
98857.125211825361475
98857.208393461303785
98857.294620107728406
98857.38309814153763
98857.473602959173149
98857.566122758405982
98857.660344735093531
98857.755536923825275
98857.850959169489215
98857.946585829427931
98858.043518801350729
98858.143555330228992
98858.248066962769371
98858.357051173530635
98858.468861896137241
98858.580809815655812
98858.69026436402055
98858.795816654528608
98858.897701686961227
98858.997260263276985
98859.096022907062434
98859.194956887920853
98859.294230976738618
98859.393430120428093
98859.491816928508342
98859.588513745751698
98859.682829081575619
98859.774514664139133
98859.863917175520328
98859.951892423618119
98860.039494682074292
98860.127512353268685
98860.216134715941735
98860.305006318143569
98860.393688193347771
98860.481949731940404
98860.569832617940847
98860.657434368185932
98860.744382314034738
98860.829315586743178
98860.909946367464727
98860.98376471256779
98861.049068533800892
98861.105861345422454
98861.156095434664167
98861.20323534552881
98861.251238052631379
98861.303428586470545
98861.361918849957874
98861.427595166998799
98861.500577971542953
98861.580700178412371
98861.667690610775026
98861.761115238638013
98861.860018807608867
98861.96269704727456
98862.066755202758941
98862.16958279350365
98862.269080564554315
98862.364343063061824
98862.455903246882372
98862.545505177593441
98862.635504579156986
98862.728044638613937
98862.824517454908346
98862.925315360989771
98863.029935306680272
98863.137357216081
98863.246436324785464
98863.356209316727472
98863.466023527289508
98863.575540904770605
98863.684701856487663
98863.793669603721355
98863.902883908100193
98864.01300993784389
98864.124798199889483
98864.238934693625197
98864.355918224842753
98864.475962311218609
98864.598973340194789
98864.724563946045237
98864.852251129530487
98864.981649699766422
98865.112534569532727
98865.244805731272209
98865.378337354151881
98865.51282825920498
98865.647757147336961
98865.782448173049488
98865.916196866004611
98866.048399541265098
98866.178649587731343
98866.306788319969201
98866.432877121798811
98866.557231729311752
98866.680389122280758
98866.803075047209859
98866.926182073351811
98867.050652948746574
98867.177285703757661
98867.306473115779227
98867.438125486500212
98867.571598647322389
98867.705857617940637
98867.839789607693092
98867.97255478813895
98868.103894197658519
98868.234194724398549
98868.36418695912289
98868.494515357422642
98868.625323571104673
98868.75603123610199
98868.885475975708687
98869.012240252821357
98869.135163045866648
98869.253732843790203
98869.368146111039096
98869.479161754075903
98869.587689036226948
98869.694349635872641
98869.799213797130506
98869.901852304901695
98870.001669578588917
98870.098363216224243
98870.192283638520166
98870.284419161063852
98870.376079444526113
98870.468409400840756
98870.561913928409922
98870.656201585006784
98870.75007346640632
98870.841887307149591
98870.930074723626603
98871.013626943633426
98871.092329687191523
98871.166708252712851
98871.237655275865109
98871.305996590861469
98871.37211731892603
98871.435888439329574
98871.496847887930926
98871.554542040932574
98871.608846067436389
98871.660151200980181
98871.709345687413588
98871.7575904904661
98871.80603157261794
98871.855544776364695
98871.906633034261176
98871.959545652556699
98872.014328699166072
98872.070955188275548
98872.129277162996004
98872.188984818421886
98872.24962616157427
98872.310627276005107
98872.371383887526463
98872.43133239679446
98872.490076951537048
98872.547416901012184
98872.603332617742126
98872.65790463196754
98872.711337822838686
98872.763877801495255
98872.815808757048217
98872.867431802442297
98872.919058933010092
98872.97105941393238
98873.023816762579372
98873.077689642013866
98873.132944131459226
98873.189677846967243
98873.247787838132353
98873.306981614834513
98873.366838554429705
98873.427002308191732
98873.487270889017964
98873.547632087866077
98873.60828321063309
98873.669571607882972
98873.731858294180711
98873.795356420916505
98873.860000101500191
98873.925399208193994
98873.990948548307642
98874.056061150375172
98874.120431824601837
98874.184282764486852
98874.248403560530278
98874.314125006174436
98874.38321812763752
98874.457579902285943
98874.538873325480381
98874.628216758952476
98874.72606640199956
98874.832231766587938
98874.946012490530848
98875.066451418882934
98875.192585014854558
98875.323630429862533
98875.45908120473905
98875.598736136336811
98875.742696781919221
98875.891358693712391
98876.045310811256059
98876.205229224127834
98876.371872119998443
98876.546101012485451
98876.728920105131692
98876.921473744892864
98877.124982636683853
98877.340621802635724
98877.56941503129201
98877.81215114556835
98878.069358194697998
98878.341311815354857
98878.628100196321611
98878.929766357381595
98879.24644326796988
98879.578400674348813
98879.926052113587502
98880.289927954319865
98880.670597789081512
98881.068645839346573
98881.48466714474489
98884.969829479043256
98886.373604303400498
98886.380508671732969
98886.525678562116809
98886.682109745204798
98886.664368096928229
98886.592540255063795
98886.497061006099102
98886.329440027082455
98886.109189359587617
98885.867585180792958
98885.590494371819659
98885.254783119657077
98884.857445106841624
98884.416132704267511
98883.97726885600423
98883.587339560079272
98883.238933386091958
98882.878695758248796
98882.469823533188901
98882.025180178679875
98881.586758690566057
98881.160333402847755
98880.709968341339845
98880.224619259577594
98879.729468939447543
98879.244070797620225
98878.768626668286743
98878.311012557271169
98877.879752242544782
98877.450243624305585
98876.993018612338346
98876.519517761364114
98876.064864623112953
98875.644785594995483
98875.249587856582366
98874.87012743295054
98874.496624228719156
98874.110729661435471
98873.70448093287996
98873.296807499602437
98872.903971498046303
98872.517516595500638
98872.123452908286708
98871.723777915060055
98871.328479604286258
98870.93759516152204
98870.549026306020096
98870.169389049027814
98869.7999460537103
98869.433901889016852
98869.063409612150281
98868.692988887327374
98868.33499649555597
98867.99232201706036
98867.658906876764377
98867.334423944834271
98867.025626719594584
98866.736821821818012
98866.461044939278509
98866.189137616092921
98865.915905670364737
98865.643072823731927
98865.375480938135297
98865.118116002500756
98864.87025222023658
98864.629098440826056
98864.389282460513641
98864.147684948460665
98863.904637358034961
98863.66235594455793
98863.42263502755668
98863.187506332760677
98862.959942871893873
98862.741205368700321
98862.528611171364901
98862.319434014614671
98862.116141738806618
98861.924862335072248
98861.747649755823659
98861.581255152865197
98861.41996504169947
98861.263316023134394
98861.114936489801039
98860.977618823031662
98860.847792684275191
98860.719445972339599
98860.583596391225001
98860.434712359710829
98860.278073192210286
98860.122935305756982
98859.97326522487856
98859.825511971808737
98859.67295343040314
98859.514151363895508
98859.355149548762711
98859.203888026284403
98859.06307124873274
98858.930183958364069
98858.801814820151776
98858.677539141601301
98858.559553042912739
98858.449783984513488
98858.348245202636463
98858.252432445398881
98858.160352767270524
98858.070726533856941
98857.980715371682891
98857.887153164236224
98857.788544407638256
98857.687518526043277
98857.588556425878778
98857.494092820692458
98857.403684415330645
98857.315474163347972
98857.228485632716911
98857.143240942736156
98857.061544335563667
98856.985100999518181
98856.914446923925425
98856.848635079411906
98856.7848721852788
98856.72011519735679
98856.651536278252024
98856.577275010029553
98856.49692484010302
98856.412462651554961
98856.32859102486691
98856.250663876708131
98856.181214483527583
98856.118800753029063
98856.060263568433584
98856.003773751581321
98855.949893246375723
98855.898825960452086
98855.84765858251194
98855.792943304928485
98855.734636901324848
98855.676875669669244
98855.625174778309884
98855.582400932835299
98855.545894590730313
98855.509265016880818
98855.467997272033244
98855.421756292678765
98855.373886538014631
98855.328311352815945
98855.28640866978094
98855.244885742635233
98855.198482387146214
98855.14315255843394
98855.077908382183523
98855.005904504083446
98854.933386482822243
98854.866833860985935
98854.809588059812086
98854.761038524797186
98854.71754513210908
98854.675400365915266
98854.632669926504605
98854.590347522607772
98854.551869418035494
98854.521141928853467
98854.500173154243384
98854.487824813302723
98854.480382577108685
98854.472691050745198
98854.461935526866
98854.447943509221659
98854.430894157820148
98854.40979769405385
98854.383369174887775
98854.35162835335359
98854.317271637075464
98854.285325424250914
98854.260814215027494
98854.246557444290374
98854.242671287836856
98854.247368393102079
98854.258327191142598
98854.274192047843826
98854.294946698675631
98854.320630719565088
98854.35057150121429
98854.382875981769757
98854.414129081123974
98854.440334967541276
98854.458407451209496
98854.467542304366361
98855.650270132857258
98855.664418377797119
98855.67790802755917
98855.691441405069781
98855.705369560848339
98855.720042936940445
98855.735990060653421
98855.753898127673892
98855.774499513805495
98855.798530577099882
98855.827029589519952
98855.861457797233015
98855.903601684389287
98855.955024717201013
98856.016197042656131
98856.086062776565086
98856.162026490783319
98856.240466957358876
98856.317822752040229
98856.39161301770946
98856.460960012773285
98856.526445881550899
98856.589447640275466
98856.651442030604812
98856.713698853534879
98856.777246040917817
98856.843021313135978
98856.91176783638366
98856.98380952180014
98857.059010871613282
98857.136896649884875
98857.217130279677804
98857.299834621502669
98857.3854756734072
98857.474446558015188
98857.566529668751173
98857.660659146204125
98857.755430205303128
98857.850029005086981
98857.944900237387628
98858.041491008989397
98858.141263576617348
98858.244656351816957
98858.350599091078038
98858.45683670512517
98858.560796607183875
98858.660589677412645
98858.755583565900452
98858.84632776521903
98858.934049871953903
98859.020333534368547
98859.106834698715829
98859.194839280171436
98859.284841070286348
98859.376433601733879
98859.468601215747185
98859.560208425609744
98859.650503408818622
98859.73929932845931
98859.826899684645468
98859.913725302452804
98860.000026055466151
98860.08580420234648
98860.170938450784888
98860.25540503206139
98860.339390170920524
98860.422958461320377
98860.505653429019731
98860.586134854791453
98860.662477383637452
98860.732928295590682
98860.796723595587537
98860.854558580962475
98860.908516663897899
98860.961483157108887
98861.016271491898806
98861.074955389180104
98861.138731809754972
98861.208217317966046
98861.283776930969907
98861.365757457737345
98861.454431509017013
98861.549664073565509
98861.650528172947816
98861.755132310281624
98861.861000864737434
98861.965703871261212
98862.067540877440479
98862.166020332806511
98862.261981982112047
98862.357316925277701
98862.45425089665514
98862.554607504076557
98862.659280892868992
98862.768143123641494
98862.880327851409675
98862.994636293937219
98863.109930311140488
98863.225373444627621
98863.340470197290415
98863.455023224261822
98863.569036755725392
98863.682660449179821
98863.796239587740274
98863.910467572626658
98864.026363142504124
98864.145027522463351
98864.267323367865174
98864.39364468412532
98864.523760190073517
98864.656889699195744
98864.79192898607289
98864.927851386906696
98865.064010173577117
98865.20017826827825
98865.336404712143121
98865.472794039334985
98865.609278883493971
98865.745500666656881
98865.880884063561098
98866.01483723387355
98866.146898073144257
98866.276897825679043
98866.405032146343729
98866.531819977244595
98866.658004600350978
98866.784475918131648
98866.912150574949919
98867.041738166764844
98867.173504837483051
98867.307224859498092
98867.442214471957413
98867.577533340750961
98867.712200878828298
98867.845482924138196
98867.977245336631313
98868.108059652542579
98868.239003354130546
98868.371234929261846
98868.505510209899512
98868.641834046691656
98868.779343533868087
98868.916572602160159
98869.051893638461479
98869.184003422749811
98869.312236951984232
98869.436604170055944
98869.557585841597756
98869.675757181306835
98869.791407662443817
98869.904387940798188
98870.014265272911871
98870.120674124002107
98870.223697613924742
98870.324113566050073
98870.423321617083275
98870.522926612276933
98870.62420948689396
98870.727684378085542
98870.832853906642413
98870.938349387826747
98871.042423589155078
98871.143487194436602
98871.240532729701954
98871.333349777836702
98871.422427153680474
98871.508562479299144
98871.592367795019527
98871.673955766993458
98871.752934910182375
98871.828620311818668
98871.90043518137827
98871.968293149984675
98872.032767471464467
98872.095016646751901
98872.156535792368231
98872.218828033364844
98872.283092047422542
98872.350065813763649
98872.420066149308695
98872.493068215000676
98872.568816651721136
98872.646908747497946
98872.726865835429635
98872.808168287068838
98872.890253848876455
98872.972507500046049
98873.054378071945393
98873.135474741822691
98873.215613179840147
98873.294738590251654
98873.372867403159034
98873.45000383068691
98873.526130802260013
98873.601260342620662
98873.675524930949905
98873.749233147958876
98873.82285751629388
98873.896982378486427
98873.972145641208044
98874.048751781971077
98874.127025024426985
98874.206986983001116
98874.288519565088791
98874.371437697496731
98874.455524684410193
98874.540652681214851
98874.62692508570035
98874.714647438304382
98874.804144634588738
98874.895595817986759
98874.988950849292451
98875.083873615527409
98875.179741773652495
98875.275754350004718
98875.371183279436082
98875.465695540886372
98875.559600278182188
98875.653908391934237
98875.750235509709455
98875.850584793835878
98875.957065271402826
98876.071457021011156
98876.194931156991515
98876.327977524822927
98876.470460571421427
98876.621750069069094
98876.780943684527301
98876.947086047483026
98877.119382606644649
98877.297302913750173
98877.480592074090964
98877.669216313966899
98877.863279987825081
98878.063046055656741
98878.269030833413126
98878.481970107139205
98878.702742509354721
98878.932341813386302
98879.171894645740394
98879.422610954818083
98879.685686791359331
98879.96218964131549
98880.252964255720144
98880.558589906620909
98880.879403257218655
98881.215572107830667
98881.567216218172689
98881.934525467528147
98882.317799198499415
98882.71741261628631
98883.13375096564414
98883.567176600685343
98884.017994007546804
98884.486494622309692
98884.97304361841816
98886.17174016701756
98887.184487155725947
98887.005293146386975
98886.895176452657324
98886.875824903458124
98886.80458827278926
98886.665999203192769
98886.488480818050448
98886.255351555271773