/*--------------------------------*- C++ -*----------------------------------*\
  =========                 |
  \\      /  F ield         | OpenFOAM: The Open Source CFD Toolbox
   \\    /   O peration     | Website:  https://openfoam.org
    \\  /    A nd           | Version:  12
     \\/     M anipulation  |
\*---------------------------------------------------------------------------*/
FoamFile
{
    format      ascii;
    class       volScalarField;
    location    "0.0075";
    object      pPrime2Mean;
}
// * * * * * * * * * * * * * * * * * * * * * * * * * * * * * * * * * * * * * //

dimensions      [2 -2 -4 0 0 0 0];

internalField   nonuniform List<scalar> 
75962
(
856293.85110664367676
836803.52495956420898
828605.53932189941406
822889.9219799041748
818352.94393348693848
814388.38082504272461
810575.80435943603516
806792.11981964111328
802988.22432899475098
799188.82345199584961
795419.02334976196289
791744.12807083129883
788171.53975105285645
784633.59568405151367
781147.45240783691406
777826.66209602355957
774729.31295013427734
771822.22670936584473
768999.68442726135254
766157.79685592651367
763286.6501350402832
760444.25606727600098
757665.56025314331055
754940.8874568939209
752317.90280532836914
749884.5001220703125
747697.34379005432129
745786.47734451293945
744169.2977237701416
742786.93533706665039
741544.42815017700195
740381.97944831848145
739305.55724716186523
738328.07607269287109
737419.89744186401367
736535.38521385192871
735656.2440242767334
734773.75557899475098
733872.91432762145996
732945.35973739624023
731998.26751899719238
731024.27468490600586
729993.03053283691406
728885.03251075744629
727706.44941139221191
726460.83452987670898
725142.32042121887207
723742.50216865539551
722273.92845153808594
720744.65655517578125
719136.11382484436035
717436.21639060974121
715632.15248870849609
713712.83052825927734
711689.97173118591309
709592.5800952911377
707458.93033981323242
705320.54204940795898
703191.34017181396484
701079.61110496520996
698999.85870742797852
696969.65309143066406
695007.15342140197754
693123.73943138122559
691317.16418838500977
689573.48746299743652
687870.5828857421875
686181.39008522033691
684489.79794311523438
682795.91633415222168
681122.05605316162109
679487.60161399841309
677883.20890235900879
676279.47081184387207
674655.81758308410645
673011.13463020324707
671357.21395111083984
669705.21895408630371
668057.14549446105957
666400.22800254821777
664725.30962944030762
663041.80633544921875
661373.20479774475098
659739.64311408996582
658139.86398887634277
656557.75421142578125
654971.11800575256348
653375.4973258972168
651790.53843688964844
650247.2260570526123
648764.34384155273438
647335.8178653717041
645938.36933326721191
644551.51223945617676
643181.66885757446289
641859.07177543640137
640604.86197471618652
639411.20345115661621
638249.10803413391113
637087.77312278747559
635916.24153900146484
634747.78343200683594
633603.98989868164062
632495.07397270202637
631413.65303611755371
630345.08218955993652
629277.24857330322266
628196.58377838134766
627085.0870246887207
625924.58156776428223
624704.98535537719727
623427.74282455444336
622100.81561470031738
620731.23633766174316
619323.93191337585449
617881.72554016113281
616408.36704254150391
614905.66923332214355
613368.21624565124512
611783.96734046936035
610139.94863128662109
608427.53751754760742
606645.71997451782227
604798.61311149597168
602890.19060516357422
600928.73013305664062
598935.24989128112793
596939.73583984375
594967.91128158569336
593032.50419044494629
591136.48165130615234
589282.61551856994629
587477.68521881103516
585728.22998237609863
584033.87650108337402
582387.97790336608887
580783.9273681640625
579221.39106369018555
577707.06723785400391
576249.14544486999512
574847.43963813781738
573491.57600975036621
572167.10623168945312
570862.58200073242188
569575.82485961914062
568312.23294448852539
567075.36356735229492
565859.7542552947998
564648.14448165893555
563416.89141654968262
562142.39448547363281
560810.44863700866699
559419.5137939453125
557978.90442276000977
556504.56259918212891
555011.75534057617188
553512.02897644042969
552012.89283180236816
550517.48849105834961
549022.12942504882812
547512.71268081665039
545970.25957107543945
544383.9691162109375
542759.93112373352051
541115.63487434387207
539465.27885627746582
537811.11666488647461
536145.82209205627441
534462.94329452514648
532765.77768135070801
531065.15898513793945
529371.85247230529785
527694.09822654724121
526040.4852123260498
524417.63642501831055
522827.63212966918945
521267.88299942016602
519735.16697692871094
518228.65019989013672
516751.86119842529297
515312.85847854614258
513922.08965873718262
512587.10760688781738
511309.0778636932373
510079.80476379394531
508883.23797988891602
507703.14029693603516
506531.22016716003418
465601.48612022399902
464641.91509246826172
463660.5362606048584
462656.65416145324707
461633.16644287109375
460595.53341865539551
459549.04314613342285
458496.10030364990234
457436.86564064025879
456372.51957702636719
455307.5269832611084
454248.09894561767578
453199.08065795898438
452161.75801086425781
451132.6440601348877
450103.5272274017334
449063.6732120513916
448003.89463996887207
446920.32345199584961
445815.11709785461426
444693.79920196533203
443561.35134506225586
442419.52856063842773
441267.06630516052246
440103.49893951416016
438933.56383895874023
437767.17303276062012
436614.36886978149414
435481.05045127868652
434369.19634056091309
433279.58120918273926
432213.19225120544434
431171.31643867492676
430156.49480628967285
429173.27033615112305
428227.02337074279785
427321.92441558837891
426459.76378440856934
425638.97571182250977
424854.03264617919922
424096.27350616455078
423356.59064102172852
422628.43399620056152
421908.91204071044922
421198.47301292419434
420499.72604560852051
419815.55265235900879
419147.63438606262207
418496.32927894592285
417861.36528015136719
417241.5625114440918
416633.72834968566895
416032.54996681213379
415431.9452075958252
414826.81198310852051
414213.54422950744629
413589.85620498657227
412955.31499099731445
412311.86484336853027
411663.22192001342773
411012.82440185546875
410361.67041206359863
409707.46417808532715
409045.40193939208984
408370.36711692810059
407679.19497489929199
406971.08798408508301
406245.83345222473145
405500.97195434570312
404731.27940559387207
403931.62901496887207
403100.33526611328125
402240.2902660369873
401357.94179534912109
400461.75395202636719
399560.89273834228516
398663.42318153381348
397774.01470947265625
396892.77690887451172
396016.66747665405273
395142.44392776489258
394267.93955230712891
393390.4174633026123
392504.32464027404785
391601.54008865356445
390674.2605152130127
389717.95844841003418
388732.82980346679688
387723.6554012298584
386698.22806930541992
385664.8391284942627
384630.19621467590332
383598.73440170288086
382573.07990646362305
381554.37380409240723
380542.32902717590332
379535.12555694580078
378530.03482055664062
377525.35371589660645
376522.82563972473145
375528.23702621459961
374549.30083656311035
373592.72174835205078
372662.57849884033203
371759.8631477355957
370882.41430282592773
370025.90527725219727
369186.1583423614502
368360.98053741455078
367549.96727180480957
366753.16043281555176
365970.96382522583008
365205.07583618164062
364458.42255210876465
363733.09678649902344
363028.30923652648926
362340.35088729858398
361664.60788536071777
360998.37765884399414
360342.11515235900879
359697.79827690124512
359065.85636711120605
358443.73873519897461
357827.17082977294922
357212.71407318115234
356599.16307067871094
355987.10410118103027
355377.7040843963623
354771.95943260192871
354170.65574645996094
353574.66329956054688
352984.38469696044922
352398.26876449584961
351811.83179473876953
351218.36873245239258
350611.07653999328613
349984.89791488647461
349336.77214241027832
348664.32960891723633
347964.86035537719727
347235.89640235900879
346476.83611106872559
345690.34514999389648
344882.05220794677734
344058.38145065307617
343223.77875518798828
342379.24266242980957
341523.25762939453125
340653.86272239685059
339769.54521179199219
338868.6032543182373
337948.43252182006836
337006.49639129638672
336042.60462951660156
335060.4078197479248
334066.68871688842773
333068.76300239562988
332071.9857234954834
331078.70439529418945
330088.80092239379883
329101.27876472473145
328115.83169746398926
327133.54742622375488
326156.3641242980957
325186.13938331604004
324224.14694976806641
323271.32560920715332
322328.63007926940918
321396.90633773803711
320476.45209693908691
319566.66608238220215
318666.48815155029297
317775.39605522155762
316894.35301399230957
316026.08687591552734
315174.66533660888672
314344.24418830871582
313537.60983657836914
312755.23645401000977
311995.93177223205566
311258.44034385681152
310542.4769172668457
309848.27714157104492
309174.61443901062012
308517.37701606750488
307870.09054183959961
307225.97838401794434
306580.60526275634766
305933.2172737121582
305285.9296932220459
304641.57449340820312
304001.66165733337402
303366.00132751464844
302733.6707649230957
302104.2275218963623
301478.42360877990723
300857.85733985900879
300244.19866943359375
299638.68547058105469
299041.79244804382324
298453.11550521850586
297871.44168853759766
297294.79145431518555
296720.68270683288574
296146.44616317749023
295569.35183334350586
294986.72689247131348
294396.36788749694824
293796.90760803222656
293187.55570030212402
292567.16808128356934
291933.85681343078613
291285.88046264648438
290623.07745742797852
289947.31800079345703
289261.20004463195801
288566.1455192565918
287861.75848388671875
287146.90007591247559
286421.54389190673828
285687.91886711120605
284950.35893440246582
284214.19797515869141
283484.47070503234863
282765.00494384765625
282057.98226928710938
281363.95214080810547
280681.86576080322266
280009.00559234619141
279341.08086776733398
278672.93669700622559
278000.14128875732422
277320.8449878692627
276636.70802879333496
275952.02246475219727
275271.71881103515625
274599.61294364929199
273937.97247314453125
273288.18167304992676
272651.36796760559082
272028.34084320068359
271419.17588233947754
270823.40846252441406
270240.90735054016113
269672.65146827697754
269120.48968887329102
268586.27151107788086
268071.06176948547363
267575.13361930847168
267098.39154243469238
266640.67019271850586
266201.58191299438477
265780.29576301574707
265375.2813606262207
877519.94771766662598
850844.65166473388672
839177.8120059967041
830539.35390281677246
823957.64852333068848
818861.69355773925781
814487.01095581054688
810334.76037406921387
806185.00003433227539
802014.05414009094238
797802.90911102294922
793600.09084701538086
789463.5262393951416
785414.75820350646973
781497.78377151489258
777830.28715324401855
774494.22425270080566
771436.44780540466309
768582.74930953979492
765844.87356376647949
763191.88010787963867
760626.15859222412109
758122.61252593994141
755621.76142501831055
753116.71958160400391
750695.32270050048828
748433.34446334838867
746359.11856460571289
744522.18429374694824
742931.08411979675293
741540.44778251647949
740295.26814460754395
739188.59951972961426
738240.00954627990723
737417.33246040344238
736661.12433242797852
735917.34950637817383
735143.48925971984863
734301.7190055847168
733379.79896354675293
732390.79363441467285
731343.07991218566895
730215.59529495239258
728991.25260353088379
727679.96226692199707
726295.45252227783203
724840.39697456359863
723314.43993186950684
721730.70453071594238
720096.83472061157227
718395.24220085144043
716605.16455268859863
714726.52034950256348
712767.44858932495117
710732.68981170654297
708627.68682861328125
706476.35111618041992
704308.58831405639648
702139.76740646362305
699983.01519012451172
697863.59656524658203
695814.28687858581543
693861.38494300842285
692012.78840065002441
690261.7491283416748
688587.29737091064453
686963.31682205200195
685363.73929023742676
683768.41852569580078
682174.6811408996582
680597.29904556274414
679039.20200538635254
677487.14817428588867
675926.94333839416504
674355.14486122131348
672774.66477394104004
671186.1147632598877
669589.55305290222168
667984.56202697753906
666366.36040496826172
664727.68191528320312
663076.78902816772461
661436.93010711669922
659829.51248168945312
658252.27399826049805
656688.79277801513672
655122.7174015045166
653555.6346321105957
651998.81113243103027
650474.12360763549805
649000.40707588195801
647573.40748596191406
646170.37271690368652
644769.72342109680176
643373.85932731628418
642012.43032073974609
640713.16136932373047
639474.54608535766602
638271.4632396697998
637073.69344520568848
635865.83915519714355
634655.48107528686523
633462.76334190368652
632299.89762496948242
631165.39517593383789
630049.69222831726074
628941.89253616333008
627826.16036033630371
626680.60869026184082
625485.83328437805176
624235.8681640625
622937.86964225769043
621603.17582130432129
620236.91425704956055
618837.55169296264648
617405.74011421203613
615948.0666675567627
614467.50040626525879
612955.75496482849121
611398.25269317626953
609780.40050315856934
608093.38228988647461
606335.60681343078613
604511.43209266662598
602627.8096809387207
600692.17867088317871
598719.07649612426758
596733.63862609863281
594761.14759826660156
592816.35484886169434
590905.83247184753418
589035.15799331665039
587212.84497833251953
585443.96032333374023
583726.13877868652344
582051.55721282958984
580414.85318374633789
578817.96917533874512
577270.35068321228027
575783.21127319335938
574359.20101928710938
572990.1384449005127
571661.38546562194824
570356.94888687133789
569065.77783584594727
567787.67946434020996
566529.10053443908691
565293.458251953125
564070.84470176696777
562839.59820175170898
561575.1391658782959
560258.82293510437012
558885.58643913269043
557465.85129928588867
556017.150634765625
554553.99547386169434
553085.57479095458984
551616.9907341003418
550149.36843681335449
548677.49130821228027
547188.17962837219238
545667.09502792358398
544109.78481292724609
542525.29191780090332
540927.80122947692871
539325.91404724121094
537717.03029251098633
536091.3142032623291
534440.1961612701416
532764.50950050354004
531073.87274551391602
529380.43192863464355
527695.5328254699707
526031.06096649169922
524396.51980400085449
522794.44507026672363
521222.14450645446777
519677.68215751647949
518162.60175895690918
516681.09040069580078
515240.58978652954102
513849.41301345825195
512512.42943000793457
511228.65859794616699
509990.82147026062012
508785.47480964660645
507597.36787605285645
506416.48671913146973
505241.84979820251465
466506.52663803100586
465522.80566024780273
464525.15543937683105
463510.73939514160156
462477.84621047973633
461428.01763725280762
460366.33242225646973
459298.36178779602051
458226.28814506530762
457149.19191741943359
456067.37200736999512
454985.32856369018555
453910.34421157836914
452848.96017837524414
451803.62408638000488
450770.67384338378906
449740.3187198638916
448699.24302101135254
447635.91420745849609
446545.6826000213623
445431.6832332611084
444301.5216178894043
443162.8059024810791
442019.7222900390625
440872.26651000976562
439718.99834823608398
438561.33256149291992
437405.06410980224609
436257.25127410888672
435122.34065246582031
434002.12707138061523
432898.38520240783691
431814.08428192138672
430753.17900276184082
429721.12207794189453
428725.16803741455078
427771.94260406494141
426863.79644012451172
425997.75031661987305
425167.54187774658203
424365.96260070800781
423586.12128639221191
422822.50283050537109
422071.61007499694824
421331.72727966308594
420602.21733665466309
419882.98004913330078
419173.8109073638916
418473.96855735778809
417782.6833553314209
417100.0743293762207
416427.62888145446777
415767.66267585754395
415121.61425018310547
414488.22515678405762
413862.97372245788574
413239.00940895080566
412609.41254234313965
411969.52519226074219
411318.11550712585449
410656.30004119873047
409985.77694320678711
409307.53728675842285
408621.40168952941895
407925.63133239746094
407217.2916202545166
406493.79512786865234
405753.96222686767578
404997.52160835266113
404223.08358955383301
403427.26396560668945
402606.6056079864502
401760.928955078125
400894.11556625366211
400011.87520980834961
399119.7203426361084
398222.8326358795166
397326.51178359985352
396434.86861801147461
395549.19979286193848
394668.44561576843262
393791.27010726928711
392916.68546104431152
392041.71651458740234
391159.28611946105957
390259.4900016784668
389333.6274585723877
388377.65718078613281
387393.1583080291748
386386.56228446960449
385367.04563140869141
384343.63287162780762
383322.35076141357422
382305.7781810760498
381294.91038703918457
380291.06776237487793
379295.63067436218262
378308.14424896240234
377325.55329704284668
376344.33175277709961
375364.10420989990234
374389.35962295532227
373427.83604431152344
372487.35375022888184
371573.32611465454102
370687.49641799926758
369828.12131309509277
368991.75220489501953
368175.86470794677734
367379.90370941162109
366603.64888381958008
365845.40274429321289
365102.38730430603027
364373.08583641052246
363658.45957565307617
362960.62453269958496
362280.38073348999023
361615.91101264953613
360963.89643859863281
360322.06375694274902
359690.73971748352051
359071.62451553344727
358464.95936965942383
357868.17440032958984
357277.32015037536621
356689.39188766479492
356103.27181053161621
355518.799072265625
354935.51806449890137
354352.60587120056152
353769.82540512084961
353188.07542610168457
352608.3625545501709
352029.98304748535156
351449.36837196350098
350860.78678512573242
350258.31709671020508
349637.57924461364746
348996.01819229125977
348331.76059150695801
347642.53195762634277
346925.78862953186035
346180.18893432617188
345407.03354263305664
344610.39145088195801
343795.42534446716309
342965.89676284790039
342123.01190185546875
341266.26027679443359
340394.94281196594238
339508.41996192932129
338605.09407997131348
337682.04885482788086
336736.72628593444824
335769.58868789672852
334785.36145782470703
333791.63607406616211
332795.92003631591797
331803.27030372619629
330815.60215187072754
329832.32942771911621
328851.7785701751709
327872.67665863037109
326895.03573226928711
325920.13677978515625
324950.0941219329834
323987.4749813079834
323034.88342475891113
322094.24895477294922
321166.10240745544434
320249.35276412963867
319341.98645210266113
318442.37135124206543
317550.49398422241211
316668.43633460998535
315799.94633293151855
314949.59136009216309
314121.64416313171387
313318.92648315429688
312542.25337219238281
311790.7263069152832
311063.19613265991211
310359.08926200866699
309678.01565551757812
309018.3398323059082
308375.79656791687012
307743.72558403015137
307114.94178199768066
306484.33180999755859
305850.52335166931152
305215.57454681396484
304582.69005393981934
303953.98694610595703
303329.46461486816406
302707.87149810791016
302088.16639518737793
301470.65738296508789
300857.1082763671875
300249.81662368774414
299650.49216079711914
299059.6927490234375
298476.9229564666748
297901.04710578918457
297330.58342170715332
296763.69137573242188
296197.93201065063477
295630.00597953796387
295056.03458595275879
294472.63756942749023
293877.83642387390137
293270.93642044067383
292651.37553215026855
292017.7501106262207
291368.26712226867676
290702.29275321960449
290021.1697883605957
289327.30912017822266
288622.33572959899902
287906.27155303955078
287178.47937965393066
286439.38780212402344
285691.69764137268066
284940.06287574768066
284189.62857437133789
283444.64016342163086
282708.0608959197998
281982.2107982635498
281269.29162406921387
280570.86559867858887
279886.14566802978516
279210.77556228637695
278537.74810600280762
277860.37411689758301
277175.19433975219727
276483.02957725524902
275787.86544799804688
275094.73049926757812
274408.1646900177002
273731.80939674377441
273068.58963203430176
272420.64797782897949
271788.74660301208496
271171.81664276123047
270567.53486824035645
269974.00571823120117
269391.28182601928711
268821.62617111206055
268268.28285789489746
267734.09510803222656
267220.97338104248047
266730.21847724914551
266262.78120994567871
265819.0356616973877
265398.05800437927246
264997.11694145202637
849483.56679916381836
834886.58788871765137
828274.16345024108887
822476.13871383666992
817427.83890724182129
813094.85220718383789
809408.17353439331055
806075.63869857788086
802794.5999641418457
799455.7935848236084
796012.97003936767578
792389.99676322937012
788573.01058197021484
784636.23306274414062
780676.79776382446289
776869.75372123718262
773378.76455879211426
770220.22204971313477
767314.31815338134766
764579.63815116882324
761999.78672981262207
759583.3203239440918
757287.12518882751465
755045.1115550994873
752809.25194358825684
750617.95294952392578
748512.98233985900879
746507.5184440612793
744644.52546691894531
742973.52008438110352
741492.33761215209961
740163.53640937805176
738992.09710311889648
737991.19070243835449
737133.86923217773438
736373.52878570556641
735670.23496627807617
734976.22807502746582
734229.96192932128906
733386.01215553283691
732448.12160682678223
731431.75319862365723
730317.61283493041992
729082.29789733886719
727733.44285011291504
726291.40048027038574
724759.77637100219727
723147.2592716217041
721468.30404853820801
719719.84846115112305
717893.44333457946777
715980.06630516052246
713994.08700370788574
711962.33272743225098
709892.58951568603516
707773.2689208984375
705605.31697463989258
703409.14258003234863
701207.50566864013672
699020.82345390319824
696871.7201099395752
694787.68112564086914
692794.08241271972656
690905.00050354003906
689119.43406677246094
687420.58901596069336
685791.18478775024414
684215.24938011169434
682677.28413963317871
681163.76868057250977
679667.74019813537598
678175.81421279907227
676676.49057388305664
675171.4599609375
673671.75723266601562
672183.90327644348145
670698.90602874755859
669207.9077205657959
667703.85929679870605
666179.05246162414551
664622.72936820983887
663037.11095809936523
661445.15029716491699
659868.28498077392578
658309.15094757080078
656755.22373962402344
655197.93199157714844
653636.43326187133789
652074.90629959106445
650528.9198112487793
649018.11738586425781
647550.79627227783203
646114.17370414733887
644687.83439064025879
643266.55979537963867
641870.0035285949707
640523.84465217590332
639231.90616416931152
637978.8526668548584
636741.53580093383789
635503.99871826171875
634266.37883758544922
633040.39226722717285
631838.20422172546387
630660.40410232543945
629499.07339096069336
628344.05342674255371
627182.34674835205078
625999.14896965026855
624782.30953979492188
623527.38825035095215
622238.47050666809082
620922.22922325134277
619579.46442222595215
618206.27007484436035
616804.13763427734375
615381.4765796661377
613941.73357391357422
612474.65031242370605
610961.29264831542969
609385.54707145690918
607738.18339347839355
606018.50374984741211
604233.01072692871094
602392.09884452819824
600504.79749870300293
598579.75588035583496
596631.65876197814941
594680.30477523803711
592742.96963882446289
590832.05244445800781
588958.15190505981445
587129.87335777282715
585349.39119148254395
583611.68787956237793
581907.91623115539551
580233.72455024719238
578594.34995079040527
577004.54408264160156
575479.81722259521484
574026.08822822570801
572636.60759925842285
571295.79235076904297
569983.84384727478027
568681.28584480285645
567380.17244338989258
566087.71882057189941
564815.74503707885742
563563.10554885864258
562312.62263870239258
561040.19958686828613
559725.83393478393555
558364.66158485412598
556967.00439453125
555548.55591011047363
554119.83506011962891
552685.67047309875488
551247.46305847167969
549804.20003509521484
548351.55854415893555
546882.45313262939453
545391.81505012512207
543882.07395172119141
542361.42891311645508
540836.50423049926758
539307.02568054199219
537764.45676612854004
536198.03540420532227
534600.255859375
532971.40102005004883
531319.71514892578125
529656.67941284179688
527993.29680061340332
526340.60443496704102
524708.07393836975098
523100.0434741973877
521517.60807609558105
519963.51947021484375
518443.07977294921875
516961.70277404785156
515524.07204437255859
514132.99268913269043
512786.99323844909668
511481.62812423706055
510212.01127815246582
508971.81505012512207
507751.87001419067383
506543.34185218811035
505342.55008697509766
466479.52831077575684
465455.25910758972168
464421.22568321228027
463374.81174659729004
462312.77106857299805
461235.25360488891602
460147.47306823730469
459055.47572326660156
457961.17616081237793
456862.57577514648438
455758.87396049499512
454653.96057510375977
453555.54961967468262
452471.64789772033691
451406.37800788879395
450356.83008193969727
449312.42613792419434
448258.72135353088379
447183.69460105895996
446082.53677368164062
444958.5851993560791
443820.55614852905273
442678.19467353820801
441538.04507446289062
440401.21853637695312
439264.82940673828125
438126.74614143371582
436988.80526733398438
435855.15520858764648
434728.76323890686035
433611.22789001464844
432505.32550621032715
431416.04674911499023
430349.61395835876465
429313.19201469421387
428314.6944694519043
427359.93486976623535
426448.51378440856934
425573.42468070983887
424725.35383605957031
423897.47469902038574
423086.84314727783203
422292.55248260498047
421513.74112701416016
420748.87247848510742
419995.49632835388184
419250.17333030700684
418509.24702262878418
417770.04259490966797
417032.11126327514648
416297.75477027893066
415571.87192916870117
414861.25052452087402
414172.21078681945801
413506.58193397521973
412859.30329895019531
412220.36333084106445
411579.66086387634277
410930.22958755493164
410268.13581657409668
409591.33286476135254
408899.56783294677734
408194.49541473388672
407478.44218826293945
406752.21452903747559
406014.19177627563477
405261.52275085449219
404492.18402671813965
403705.54443550109863
402901.27681541442871
402078.49250984191895
401237.06217956542969
400379.61675071716309
399511.03431129455566
398635.4498405456543
397754.25362396240234
396867.6863842010498
395977.62003517150879
395087.23434257507324
394198.72308540344238
393312.84997749328613
392430.45254707336426
391552.3308277130127
390676.39366912841797
389795.36658096313477
388898.90458488464355
387978.36458015441895
387030.3139533996582
386057.10097122192383
385065.57030868530273
384064.87486457824707
383063.46870613098145
382066.29416084289551
381074.34366798400879
380087.18119049072266
379105.80574607849121
378132.70638465881348
377169.18330192565918
376213.23558616638184
375260.86950492858887
374309.93435096740723
373362.82377433776855
372425.94855117797852
371506.9951343536377
370611.96453666687012
369743.37432861328125
368900.61239814758301
368082.17215347290039
367287.82073020935059
366518.32481956481934
365773.11863899230957
365048.6390323638916
364339.69787979125977
363642.6870059967041
362957.4178352355957
362286.15822410583496
361630.91336822509766
360991.43600082397461
360365.48112106323242
359750.92651748657227
359147.2589282989502
358554.8304557800293
357972.98050117492676
357399.43585777282715
356831.48712348937988
356267.24480438232422
355705.41643524169922
355144.11366844177246
354580.49200630187988
354012.01808547973633
353438.20032119750977
352860.70938110351562
352281.67739868164062
351701.54703521728516
351118.16250610351562
350527.38390350341797
349924.55784225463867
349305.95806503295898
348669.30266761779785
348012.99856185913086
347335.05919647216797
346632.86824798583984
345904.40435791015625
345149.71747398376465
344371.19643211364746
343572.14872741699219
342754.89595985412598
341920.03015327453613
341067.22344398498535
340196.29015731811523
339307.09833717346191
338398.52321243286133
337468.47115135192871
336515.90013122558594
335543.35744094848633
334557.51047325134277
333566.82310104370117
332578.26751327514648
331595.54568099975586
330619.19134902954102
329647.70066452026367
328678.78850746154785
327710.61992835998535
326742.66831016540527
325775.9556999206543
324812.68156814575195
323855.66783905029297
322907.66103553771973
321970.48436164855957
321044.3984375
320128.12077140808105
319219.7022590637207
318317.90072631835938
317423.29464530944824
316538.56441307067871
315667.91227340698242
314815.97881698608398
313986.75126075744629
313182.81941604614258
312405.22940444946289
311653.89695739746094
310928.20271873474121
310227.49117660522461
309550.82881546020508
308896.31325340270996
308260.24233627319336
307636.72958755493164
307018.91676712036133
306401.31230735778809
305781.71067810058594
305161.31694030761719
304542.98228454589844
303928.7396411895752
303318.48977661132812
302710.55436706542969
302103.45125579833984
301497.3626880645752
300894.05722427368164
300295.74751091003418
299703.7148265838623
299117.94388580322266
298537.67901992797852
297962.1974983215332
297391.16136932373047
296824.13222694396973
296259.70366859436035
295694.95539474487305
295125.95477104187012
294548.99582481384277
293961.73010444641113
293362.95966529846191
292751.3846607208252
292124.62550926208496
291479.88532257080078
290815.68331527709961
290132.86893844604492
289433.8294677734375
288720.62638092041016
287993.92023658752441
287253.64906883239746
286500.76050186157227
285738.46116065979004
284971.97081756591797
284206.78878974914551
283446.91899490356445
282694.53897666931152
281951.39328384399414
281220.31941986083984
280504.78398704528809
279806.24848747253418
279121.67213439941406
278443.87630271911621
277764.7745189666748
277079.07633209228516
276385.91252326965332
275687.88595962524414
274989.05629539489746
274293.49092483520508
273604.91680145263672
272926.94371604919434
272262.96687507629395
271615.26275825500488
270984.02880859375
270367.49548149108887
269763.35923767089844
269170.62972259521484
268590.52266502380371
268025.69911193847656
267478.83617782592773
266951.79051780700684
266445.9116039276123
265962.76728439331055
265504.18278503417969
265071.12810897827148
264662.37178230285645
264273.9356746673584
866027.87026214599609
843484.77300453186035
833039.21846199035645
824711.57855033874512
817651.53376007080078
811691.07795524597168
806808.9312915802002
802735.5347957611084
799156.89383316040039