/*--------------------------------*- C++ -*----------------------------------*\
  =========                 |
  \\      /  F ield         | OpenFOAM: The Open Source CFD Toolbox
   \\    /   O peration     | Website:  https://openfoam.org
    \\  /    A nd           | Version:  12
     \\/     M anipulation  |
\*---------------------------------------------------------------------------*/
FoamFile
{
    format      ascii;
    class       volScalarField;
    location    "0.0075";
    object      rho_0;
}
// * * * * * * * * * * * * * * * * * * * * * * * * * * * * * * * * * * * * * //

dimensions      [1 -3 0 0 0 0 0];

internalField   nonuniform List<scalar> 
75962
(
1.1573689402132587567
1.154146956542335456
1.1533820395723730634
1.154709689058327049
1.1545439917571658217
1.15390533428439368
1.153438946010105326
1.1534077633777688465
1.1536835182974838343
1.1538224731177555427
1.1535226971705114796
1.1528754483330798664
1.1528894546491021966
1.1538016779738060613
1.1544201178916690953
1.1538596703401997612
1.1526824874833483392
1.152137363663409797
1.1526629150073055552
1.1533122568927818286
1.153075516555719382
1.1525031270977623699
1.1527592987323744822
1.1537981966273422874
1.1547323301001279905
1.1550773114319334844
1.1548295636473926429
1.1539835242045666241
1.1529851153169696776
1.152620347992718175
1.1530496020672240665
1.1536562313084526288
1.153812968435286912
1.1536144608380083376
1.1533618617554948216
1.1530914625702302079
1.1527629896828892608
1.152517820684776817
1.152412811191839026
1.1523270398342024823
1.152312872380420572
1.15260132340012178
1.1531670704433363284
1.1536740942945471478
1.1539166892822196875
1.1539529822938303649
1.1538926027094129623
1.1536700485307478381
1.1532669941734514651
1.1528764014675869642
1.1527235339821293447
1.1527958741093302653
1.152956154216522755
1.1530881926824347872
1.1530904246847539785
1.1528732965645420716
1.1524458628767439983
1.1520290836101740872
1.1518921523051273148
1.152103157719281068
1.1525194821827224878
1.1528714472277070691
1.1529312931975941314
1.1526617388803872544
1.152209696641914638
1.1518317106879141232
1.151723530043688104
1.151946274844150464
1.1523625077558568019
1.1526746325588712594
1.1526432192230240403
1.1523103861974008932
1.1519130220577427082
1.1516247752154487038
1.1514249885970326837
1.1511822885237144032
1.1509295247384869754
1.1507924565686171725
1.1508901383142879915
1.1511917052811591056
1.1515055348381242339
1.1515809337795355205
1.1513325579110540442
1.1508990759254094094
1.1505671224284366172
1.1505213478843587804
1.1507314503636432157
1.1509304453468600649
1.1509294662116675845
1.1507227325573556875
1.1504627515093381884
1.150303605521800554
1.1502756132309330805
1.1502507320328023699
1.1501042889327210972
1.1498806599109667737
1.1497838715811199428
1.149985961548775748
1.150458930731756535
1.1509624311091979365
1.1512143996219550424
1.151115113861885586
1.150788665939436628
1.1504742430839540734
1.1503455524147103706
1.1504547915339491393
1.1507530208224316937
1.1511310834984596063
1.1514424781620982152
1.1515489567314300956
1.1514082179038860332
1.1511090846723122105
1.1508114182010318327
1.1506464163966612091
1.1506375935423531764
1.150721796899888183
1.1508202356302936753
1.1508531506961101609
1.1507775717248476255
1.1506225259039533082
1.1504826541153052588
1.1504924104340141788
1.1507561567575801398
1.1512674406930170079
1.1518738661756982022
1.152340937655406794
1.1524681258050013533
1.1522238349794913237
1.151746334098568525
1.1512376575625276054
1.1508338278440088942
1.1505499399059921917
1.1503364717813850948
1.1501755519600433963
1.150099443182160952
1.1501278859752102068
1.1502271351530781729
1.1503248128870635636
1.1503910075867316287
1.1504580085765645503
1.1505842582403316143
1.1507894184083327094
1.1510098681429359324
1.1511347288717821424
1.1510877423348147008
1.1508979682547726409
1.1506769156230909346
1.1505550638700579036
1.1505889792360202151
1.1507391514618365846
1.1509072299000189243
1.1509971634098863369
1.1509670101852620405
1.1508255861578713386
1.1506078479262833447
1.1503514385916973062
1.1501118604553164371
1.1499469954736345478
1.1499079250660422247
1.1500210302206890223
1.150254515038159564
1.1505234252745852874
1.1507180201463198532
1.1507516897963341318
1.1505888252851943498
1.1502449939938150791
1.1497813076791536524
1.14929282195418625
1.148874885558035519
1.1485970794394693151
1.1484717330273321867
1.1484762275761293271
1.1485832650214025108
1.148787205752668239
1.1490993965330846827
1.1495233627634888762
1.1500191905024288452
1.1504851642908295872
1.1507935062608556365
1.1508359477581397989
1.1505815558198768667
1.1501055160001163458
1.1495589213290053898
1.1491079731057132207
1.1488668580118008844
1.1488622687833114355
1.1490421044624756775
1.1493256480900857497
1.1591667462915926645
1.1591349383706932574
1.1591090449260479378
1.1590720044270028666
1.1590027190174589933
1.1588842462710156056
1.158709088713517632
1.1584839741624020082
1.1582214917602988713
1.1579362076028545392
1.1576409928622390932
1.1573515842485733174
1.1570846244073982323
1.1568613731011325729
1.1567058385915822694
1.1566310272823283611
1.1566322164556823715
1.1566926376157953271
1.1567904707630052297
1.1569097274116844076
1.1570474188996080489
1.1572037226365849971
1.1573679833488816904
1.1575151990270120539
1.1576162584351179508
1.1576554582721578779
1.1576438921837832741
1.157615811340663603
1.1576094436904038609
1.1576487379671465128
1.1577369441169755859
1.1578627597106383451
1.1580124949979151427
1.1581787247588386514
1.1583604397533227015
1.1585499136032157974
1.1587234837427253797
1.1588487342464339758
1.1589015028912079686
1.1588850161751189649
1.1588344045587448683
1.1587991958022894057
1.1588160646426237665
1.1588895348996097745
1.158990383930364132
1.1590728979744011617
1.1591030767110175326
1.1590766357523345498
1.1590173387482203271
1.1589632795316027192
1.1589464152043871259
1.158979227530141376
1.1590524075406158921
1.1591417077944612402
1.1592176865654746365
1.1592554916478974292
1.1592399343223682706
1.1591696183494342165
1.1590582601948664632
1.1589294725893630744
1.1588062959750766723
1.1587024899574795977
1.1586197365445416452
1.1585514326310992761
1.1584919766107588668
1.158447780001811811
1.1584412910617278847
1.1585030002518537096
1.1586553049947994065
1.1588938093121334827
1.1591799265312476841
1.1594485336894408967
1.1596328137567879502
1.1596900428254310889
1.1596171333372440326
1.1594467050392418539
1.1592290914274374636
1.1590104411227895032
1.1588169832231836054
1.158654869552622646
1.1585202404017043154
1.1584116165680442556
1.15833684614558452
1.1583106541594216932
1.1583460711106770002
1.1584444354196552496
1.1585893975203211959
1.1587496887545813973
1.158889264209948422
1.1589803634088013951
1.1590123709602524471
1.1589931364757513066
1.1589428735280313809
1.1588852468488513026
1.1588392105534064402
1.1588139600277544972
1.1588110048450501743
1.1588272824853056431
1.158858738159541657
1.1589013068236964088
1.1589506950551795583
1.1590019854215534156
1.1590498764950474264
1.1590896119007447762
1.1591180114465398088
1.1591346385960137333
1.1591399876601431451
1.1591341112140030045
1.159115923569434381
1.1590851155773229664
1.1590437703312317375
1.1589976611870322909
1.1589558372909876116
1.1589287586920429263
1.1589251222285377185
1.1589493949249840554
1.1590008862215612773
1.159074487128213482
1.1591624216921012636
1.1592569859978494318
1.1593524079446186903
1.1594442479346616093
1.1595279514882708138
1.1595973230176457314
1.1596436101622109582
1.1596571392787085042
1.1596301296379123436
1.1595607779202636856
1.1594564529182147528
1.1593342550864149665
1.1592184373511684736
1.1591334920064535474
1.1590954135844764306
1.1591068591225657247
1.1591567526955088852
1.1592240129042883368
1.1592862645614618877
1.1593291139919050803
1.1593513074151711173
1.159364407026200583
1.159386135414314678
1.1594309928751065364
1.1595033688159255281
1.1595945866821186776
1.1596871961066017587
1.1597625642999147555
1.1598092915796012203
1.1598277264414447174
1.1598290439439795652
1.1598286560015718116
1.159838014191635569
1.15985867571238499
1.1598819935833193373
1.1598930513194967151
1.1598789124139714524
1.1598355547997059034
1.159771459054551368
1.1597052594980197249
1.1596586424801365034
1.1596480445891106381
1.1596778517865278246
1.1597384540975541611
1.1598102435782522424
1.1598716764670033985
1.1599079688199953608
1.1599167341156224609
1.1599069680210132294
1.1598941984922404025
1.1598918115878653623
1.159905427699214453
1.159931258047345537
1.1599575385475737743
1.1599707763111333225
1.1599612511225423361
1.1599246055728287264
1.1598629623849769921
1.159780727842201431
1.1596845041307506374
1.1595778258677480466
1.1594676972776378765
1.1593562444692677715
1.1592494553491314857
1.1591517132774367127
1.1590690850488554187
1.1590057294721569647
1.1589637505039120935
1.1589412691732750016
1.1589328675026411286
1.1589309355040777749
1.158927815215875512
1.1589169459133921158
1.158895852015456196
1.1588649066493359463
1.1588282129086107108
1.1587910365775546673
1.1587577515665532513
1.1587319189628351168
1.158714917716744619
1.15870597580917023
1.1587041483252964458
1.1587077394195330893
1.1587164711168798092
1.158731302911233163
1.1587520603996752655
1.1587766174629050564
1.1588024017033129454
1.158825904144202612
1.1588438358968549124
1.1588553083445685132
1.1588644226783806346
1.1588802972888798681
1.1589149602434665187
1.1589783805953652873
1.159073889178470651
1.1591957144885352005
1.1593297187967637196
1.1594566067798430797
1.1595556188962627964
1.1596097976349482028
1.1596114983056735603
1.1595654556095582599
1.1594869235158138387
1.1593966339903101215
1.1593150266208749333
1.1592581003211790414
1.1592345302806177365
1.159245331446486782
1.1592844688894166083
1.159341003014884075
1.1594026929711245266
1.1594591513328367238
1.1595042730140221465
1.1595362526369548117
1.1595559773101991041
1.1595649319954186574
1.1595629069717920956
1.1595478054605743434
1.1595165949181482912
1.1594666574655732028
1.1593972187210255242
1.1593102525754312992
1.1592114643557567266
1.1591097226188089575
1.1590154099991107906
1.158937993512823228
1.1588833436793111176
1.1588525313064308442
1.1588416251415105673
1.158843192146436385
1.1588491352306418136
1.1588529798199989074
1.1588508051598980231
1.1588408545031070318
1.1588226752628258964
1.1543297751521541805
1.1543664431374203172
1.1551780557499475854
1.1572714424841352709
1.1558735812933287335
1.1526866444894996455
1.1515704939889297442
1.1526038475009512396
1.153405740682397207
1.1536245673450276072
1.1536739088578966683
1.1534285598252080884
1.1535441595792754743
1.154269707441589965
1.1546047099404908032
1.1538343751341431087
1.152630523454922562
1.1521959914962454086
1.1528554559475689967
1.1535352635837419211
1.1532945074116200956
1.1526642383938539016
1.1528319782593117182
1.1538303056954715142
1.1547503353794998926
1.155048872630836998
1.1548690447580891583
1.154254632159627203
1.153329514916636489
1.1527974464353971662
1.1530960464357833395
1.1537329255069816991
1.1539237586427162352
1.1535976353674866068
1.1531729165920212576
1.1528393307534541279
1.1525935835677489916
1.1525049068108121908
1.1525759832149444772
1.1525567960267661949
1.1523973471146053971
1.1524442151774116905
1.1529062549689070849
1.1535028480126001682
1.153908355359589466
1.1540705042567727112
1.1540554889876055711
1.1537990741483417079
1.1533187378888529739
1.1529979332221871324
1.153008787118455114
1.1532234632474740454
1.1533745320603501217
1.1533619941473782777
1.1532288254890958878
1.1529772089328425011
1.1525710415735057612
1.1521963478015075921
1.1520912420830040634
1.1523132328830243409
1.152708655720266151
1.1530415919506844524
1.1531188342714360218
1.1529121744750683298
1.1525398035512868233
1.1522188472068821685
1.1520856768665965753
1.1522207205595673685
1.152512684220994954
1.1527494147926191648
1.1527745033910861139
1.1525835617953987811
1.1522791144112307649
1.1519278569914879196
1.1515669747944055068
1.1512610226979973493
1.1510637257386830967
1.1510152435003608851
1.1511372796208527713
1.1513934506402414559
1.1516510804579576099
1.1517319644252328459
1.1515313669114239925
1.1511359066448567656
1.1507414138603035969
1.1505839362417960015
1.1506413361219469671
1.1508300970956573117
1.1510134170068895276
1.151056826067582195
1.1509584470227001152
1.1508307128231261007
1.1507500009111237826
1.1506544131470903825
1.1504408545160587085
1.1501462385051990367
1.1499562216387930746
1.1500584117123657801
1.1504429201188235421
1.1508805639302253088
1.1510995828354482207
1.150992737406359101
1.1506723756754695387
1.1503431791693654596
1.1501759042229811048
1.1502514100182474888
1.1505650195001431157
1.1510289757019194212
1.1514762323721601245
1.1517029413406125737
1.1515987258701896323
1.1512414686928056362
1.150847905815021166
1.1506280931595653794
1.1506478670463535785
1.1508396249215806506
1.1510614014975952824
1.1511830729095431369
1.1511250208512973092
1.150913177166425827
1.1506731519854194179
1.1505735918184221145
1.1507451841863030051
1.1511867674931381966
1.1517612376689996267
1.1522368707520451725
1.1524192462235181011
1.1522403874617663799
1.1518099828681229724
1.1513291312325930615
1.1509500117940785202
1.1507037865243610053
1.1505444339564194767
1.150439658038118651
1.1504005495117022306
1.1504478270951408181
1.1505437193257190831
1.1506122125337834294
1.1506155543152827292
1.1505894177070017381
1.1506150126310228377
1.1507520248026725795
1.1509522956079609735
1.1511087192220148534
1.15111547790488844
1.1509675579927793887
1.1507546929817342729
1.1506098446756818365
1.1506165507232328782
1.1507609813722594616
1.1509655190543492953
1.1511249535183833981
1.1511609472701826995
1.1510460807900788627
1.1508032573528865772
1.1504957688467485344
1.1502169703388640531
1.1500460173781876794
1.1500269491705275016
1.1501467463658241464
1.1503406932791353512
1.1505149385743300705
1.1505819196758793055
1.1504998733468836392
1.1502886651324291112
1.1499847050228164669
1.1496285428037238407
1.1492616988015040835
1.1489352355323003696
1.1487027283789061904
1.1485958553331598875
1.1486164285234021776
1.1487375484795516734
1.1489343180515314558
1.1492014834642823029
1.1495395222739668295
1.1499267514380642208
1.1502953296476465805
1.1505462782770250474
1.1505845179265623557
1.1503736339022263557
1.1499625689248225147
1.1494714678647972583
1.1490465859719964925
1.1488063896247313611
1.1488086464554796429
1.1490309504740114921
1.149401047481753313
1.1498283377779203729
1.1593928100044625928
1.1593622073996534549
1.1593067251746163038
1.1592322944855042444
1.1591337104846890504
1.1590028170386301731
1.1588328450121794244
1.1586239019256696636
1.1583830242526595988
1.1581219261004012111
1.1578483441711813207
1.1575683858098937407
1.1572902307753185625
1.1570288116968046044
1.1568100680660362567
1.1566605607266100542
1.1565980768063646167
1.1566238871897276397
1.156718201430886328
1.1568494866798126885
1.1569902003377496857
1.1571246301997741845
1.157246308505713861
1.1573513394222130213
1.1574335364072916299
1.1574866510538948106
1.1575125626192930284
1.1575251875314900296
1.1575462203572806086
1.1575951274895974752
1.1576786656007171938
1.1577873209941034194
1.1579037239540408422
1.1580184130931499009
1.1581377072330805156
1.1582752326991905267
1.158436019244720061
1.1586039280093038961
1.1587447394888299446
1.1588256383093544777
1.1588386845743772202
1.1588085345057013154
1.1587782051730233235
1.1587855532814961279
1.1588441727906662049
1.158937333657577895
1.159029126569371293
1.1590885482683261909
1.1591039079663478795
1.1590837259737174492
1.1590472704419216843
1.1590114812020992918
1.1589868161329883733
1.158976801172414639
1.1589780232658595249
1.1589821350828528601
1.1589762286486595677
1.1589474209377117475
1.1588871493993877504
1.1587973985121999831
1.1586913620108785228
1.1585868001242145553
1.1584963745039471572
1.1584225764400462033
1.15836175572839295
1.158311541732596206
1.1582804844496936703
1.158290736627886286
1.1583675702113456207
1.1585256173518476697
1.1587539484607991547
1.1590103748925348892
1.1592367043561235818
1.1593795748672885981
1.1594092614683404463
1.1593307330799775823
1.1591758214726448628
1.1589853592355703338
1.1587903454346948351
1.1586064572828458363
1.1584396146981135178
1.1582934361121444145
1.1581763714677897337
1.1581034795563907025
1.1580932229773814868
1.1581561952506098656
1.1582848949806272554
1.1584523677912244022
1.1586202140350434497
1.1587519485158295218
1.1588243076258040176
1.1588334717696500142
1.1587941457471173656
1.1587321600967857016
1.1586743841746500738
1.1586396664247602395
1.1586343836803509877
1.1586545890780823864
1.1586925827248637511
1.158741699098421396
1.1587979632530993612
1.1588593871946715197
1.1589228235313808746
1.1589817987758646023
1.1590277046496872959
1.1590531437500966039
1.1590547819156635789
1.1590346604279360143
1.1589986980545661233
1.1589542895895590391
1.158908509695920408
1.1588671635141674088
1.1588346143853647252
1.158814180987407072
1.1588096123529072479
1.1588241575079947232
1.1588599100430865274
1.1589166976049092295
1.1589920624026990303
1.1590815629156068223
1.1591790171363007822
1.1592773061019587821
1.1593693984046551382
1.1594479466470453133
1.159504824316361038
1.1595320106602833299
1.1595236774580921502
1.1594786098515770245
1.1594022547294990932
1.159307785496515697
1.1592145194649430273
1.1591439225095327981
1.1591123263830231949
1.159124725876073958
1.1591736950204367673
1.1592405107899794725
1.1593017355746881858
1.1593388934943855695
1.1593459180967753408
1.1593314408750057254
1.1593146932720856945
1.1593170674292476718
1.1593525609795707343
1.1594213783512039573
1.1595099028472672931
1.159597410795266903
1.1596650687361362841
1.1597045516553474709
1.1597207593224370115
1.1597282215674415973
1.1597428934443552162
1.159773661504571729
1.1598172460915794346
1.1598594487866746849
1.1598812561289546519
1.1598679741082722483
1.1598170777933634046
1.1597409317845062127
1.159663153776771205
1.1596093369956217423
1.1595972405965770946
1.1596308946126494543
1.159698737130115509
1.1597789348190756797
1.1598480105489716863
1.1598908806769716584
1.1599061560503376445
1.1599059645753373449
1.1599083969137022887
1.1599283061024707742
1.1599704615508150685
1.1600270106366536993
1.1600808972865972457
1.1601128926283612586
1.1601087455341967392
1.1600632340108059104
1.1599806349702646013
1.1598698436105634446
1.1597415977406368981
1.1596057453931578607
1.1594692594790332318
1.1593391972271300805
1.159219455735246207
1.1591147492595135216
1.159028259261617011
1.158961814476287655
1.158914246772780432
1.1588816222841009651
1.1588604218965279369
1.15884560633498368
1.1588341659708549791
1.1588233490066583986
1.1588126263308873298
1.1588027367166144899
1.1587945318797041594
1.1587885816563503472
1.1587841042198312458
1.1587794455306947849
1.1587734076442095521
1.1587656399248540406
1.1587580721138595052
1.15875381045156578
1.1587556269186514157
1.1587663639150325157
1.1587866377394380191
1.1588137711567596533
1.1588430017481707868
1.1588680888988098783
1.1588839712851923824
1.1588901533334488025
1.1588921540941110599
1.1589007684535990172
1.158929499982463085
1.1589903160495571566
1.1590878168959721783
1.1592159597310696117
1.1593586825179731381
1.1594933226963839434
1.1595958014836369454
1.1596464855280583794
1.1596367343893869695
1.1595711613031707277
1.1594667757134671238
1.1593476335899690621
1.1592382298181789224
1.1591580951726803139
1.1591176966668454984
1.1591181387366349398
1.1591524094569163328
1.1592087712140834999
1.1592737876410690312
1.1593360799611007739
1.1593885844056517342
1.1594289684460843404
1.1594581805894426108
1.159477716581308826
1.1594873018877116522
1.1594840964247563608
1.1594637010076687123
1.1594223380044408334
1.1593587477254041485
1.1592753853315287405
1.1591785260675795399
1.1590773605477131536
1.1589822931591742261
1.1589021647106803048
1.1588426217353169356
1.1588048365241792048
1.158786049764176429
1.1587804972266158021
1.1587816574687750393
1.1587842373660290907
1.1587856529227256175
1.1587852014774322473
1.1587827647583659463
1.155770890770777326
1.1551655143652963531
1.153158307208785649
1.1531843940458708087
1.1538157788187670683
1.1534655171414944785
1.1531347644462675017
1.1539147846468857939
1.1546191789075699319
1.1542762136335857903
1.1536657795030460516
1.1536192016609327915
1.1539581949815391759
1.1545182319006874749
1.1546791722402682812
1.1539787491789419427
1.1529645980589846577
1.1526696276364791771
1.1532841781673710546
1.1539389632791337004
1.1537313114781981849
1.1529460133841025193
1.1527890994329828001
1.153590597171182619
1.1545040009672395964
1.1549446120816111439
1.1549709346433310042
1.1545464013685671212
1.1536412790333161471
1.1528619339569394775
1.1529180618677052905
1.1534949442581243773
1.1537915670058180861
1.153601134495221503
1.1532687470479301428
1.1529276036794491311
1.1525663392780669536
1.15239904102396995
1.1525338838236076633
1.1526214434989625612
1.1524791409381145435
1.1524768593311238707
1.1529272116960949113
1.1535396554971180105
1.1539218066681045105
1.1540290196883238316
1.1539644979986567463
1.153725172411548261
1.1534169799055922212
1.1532934549034121741
1.1534852951690048872
1.1537546696199456608
1.1537667676667042738
1.153505692338220312
1.1531612433039255539
1.1528448656975180953
1.1525159367222257423
1.1522322406702891762
1.1521756412569754691
1.1524343087396127228
1.1528774800868610839
1.1532751309310720345
1.1534254701681101452
1.1532837487038398727
1.1529400229131585576
1.1525405161851218772
1.1522566330443000382
1.1521629515634483898
1.152254815373559893
1.1524457779504932997
1.1526181901682790443
1.1526615964630688715
1.1524894882189684608
1.1521010757438003846
1.1516331778187971491
1.1512950453355674796
1.1511488838350012465
1.1511589600768699082
1.1512840903559060646
1.1514904471772742234
1.1517018033330672644
1.1517712649609839204
1.1515716868406931095
1.151147766276929163
1.1506742461795860244
1.1504147403115623227
1.1504600312910147064
1.15083796161590457
1.1512950346340751206
1.1515400677685525554
1.1514903440726229622
1.151246602387851814
1.150962209357333732
1.1507203025383672124
1.1504967298425250455
1.1502860258544695959
1.150187280306745885
1.1502875199588245003
1.1505402207733446129
1.150786756939539357
1.1508542226498672534
1.1506791288365856296
1.1503597248443093726
1.1500764688580800144
1.1499883083070467915
1.150154931966088423
1.1505512463354032882
1.1510625309366240288
1.151499216723100405
1.1516638697008727554
1.1514812778063083787
1.1510724001757002277
1.150681681849770932
1.1505178373602198416
1.1506438248908468225
1.1509603658428766426
1.1512858939170826922
1.151453503905693232
1.1513945897371751226
1.151150247034983698
1.1508753691976534306
1.1507405913882673421
1.1508453126517470544
1.1511734874230277192
1.1516165899284227514
1.1520075478883069486
1.1521884908711608198
1.1520761388605513798
1.1517275695489515019
1.1513150316285432062
1.1509913621926362026
1.1508104197450563788
1.1507396898979469491
1.1507307099688357521
1.1507710411363272218
1.1508606112794117493
1.1509615679433111701
1.1509979655583582048
1.1509311886617650256
1.150802079718032056
1.1507174223993543727
1.1507529678224577285
1.150893425336875886
1.1510493349612789249
1.1511086695174417294
1.1510287037322728398
1.1508695719035841876
1.1507359679075888081
1.1507182163851021883
1.1508331348803539917
1.1510175654164518377
1.1511707494236258498
1.1511995895931856904
1.1510658246480605094
1.1508057784628640263
1.1505141958155904458
1.1502950610135260767
1.1502062301445032944
1.1502423841591353781
1.1503496748496868651
1.1504467752852933771
1.1504670913569396973
1.1503860264258245483
1.1502251140951484931
1.1500302562004209861
1.149830764073193734
1.1496138584762476409
1.1493608652463405129
1.1490913086916196839
1.1488681672620819629
1.1487665718118018621
1.1488147825521932699
1.1489793011814404267
1.1491975401099978615
1.1494271467544505683
1.1496557909009876841
1.1498846156863256063
1.1500931977525254979
1.1502332264417689522
1.1502501396076429963
1.1501116444998416011
1.1498292653415007614
1.149467425123424924
1.1491261018037517427
1.1489101309936566864
1.1489023096940869095
1.1491226235556513124
1.1495263143622005408
1.1500117249399517405
1.1594009184556890446
1.1593687677582167339
1.1592850392788895952
1.1591664576281310861
1.159025110349076737
1.1588672376249538054
1.158696906762006984
1.1585175526162367898
1.1583303737210306483
1.1581325256762380338
1.1579151478239395612
1.1576689311899541757
1.15739394947623353
1.1571116335945956788
1.1568588020527132976
1.1566758006741577613
1.1565933611057772623
1.1566174620633240533
1.1567270134076190757
1.1568846923076165911
1.1570506643730207319
1.1571944353675951422
1.1573029804810690546
1.1573786231269018732
1.1574306770840081526
1.157469041007517907
1.1575032331224379689
1.1575445846116518833
1.1576040342798208371
1.1576862187133163395
1.1577843631659752166
1.1578823250627869879
1.1579659334314673647
1.1580349291719431726
1.1581049237414369202
1.1581968894837193496
1.1583223633910328942
1.1584714515408129909
1.1586129495643022747
1.1587111850885607467
1.158748972365184926
1.1587394652390681227
1.1587177607561736092
1.1587208918534548374
1.1587694606256759844
1.158859117232080127
1.1589652724523431537
1.1590582148415164987
1.1591167748588946385
1.1591309663107969286
1.1590982677270398327
1.1590245813705388755
1.1589252654002333287
1.158820799903927945
1.1587310364108363014
1.1586663557216150267
1.1586238824063916919
1.1585898306445214789
1.1585481115214708581
1.1584891773991601305
1.1584157792235849627
1.1583390294734468018
1.1582701685470295772
1.1582135262094535033
1.1581677000553234347
1.1581347058659203775
1.1581256883007711167
1.1581580843160750316
1.1582498142178665468
1.1584037607974997375
1.1585992214454847726
1.15879743738729446
1.1589537106329355076
1.1590332263235429977
1.1590263558061841831
1.1589485041461211612
1.158826792854568799
1.1586841318407414825
1.1585350196661474698
1.1583856766219315926
1.1582387517624956885
1.1581016946603774898
1.1579911221745635697
1.1579300960397052034
1.1579374340800276943
1.1580171227687356961
1.1581527718813868777
1.1583128108260527522
1.1584598791334352885
1.1585623498378041507
1.1586041211697952757
1.158588728344563723
1.1585372487701550703
1.1584793552506640335
1.1584415776561725053
1.1584377081854368985
1.1584670757604142999
1.158519255386807556
1.158582268080605493
1.1586483328769161538
1.1587157189016339398
1.1587854685446297154
1.1588567867228067865
1.1589228852509410039
1.1589711508777429394
1.1589892633967890934
1.1589707136887497096
1.1589192447502154604
1.1588478430679534092
1.1587741694304265483
1.1587142773564411691
1.158677631131959318
1.1586660914185584748
1.1586756583923782937
1.1587005487812533921
1.1587367439363593924
1.1587825509693483461
1.1588389312028017919
1.1589077068318707209
1.158989375047359216
1.1590810539755311837
1.1591759444880487262
1.1592642889341575607
1.159335515346878509
1.1593799264960205075
1.1593909944680971247
1.1593673553142260779
1.1593144553528431651
1.1592445817737451197
1.1591745773937287556
1.1591230296206396222
1.1591049401812847375
1.1591267528988447033
1.1591836216457771513
1.1592585307003706596
1.1593267508450724179
1.1593662225245551234
1.1593658835247855343
1.1593291912981678049
1.1592741319601069794
1.1592262061147173835
1.1592083647344018082
1.1592322741555933785
1.1592935399676029817
1.1593759375078449558
1.1594587570525789477
1.1595263604056760265
1.1595737283727514111
1.159607408558705588
1.1596409295558953723
1.1596866871547661937
1.1597483041408584992
1.1598172191888607152
1.1598746994734272509
1.1599002256678698775
1.1598808969541767322
1.1598174894280841585
1.1597264068450565677
1.1596349191470693984
1.1595704206205323938
1.1595502404669211227
1.1595756019525103042
1.1596332725596696367
1.1597014078531806547
1.1597593140367759013
1.1597957342386002733
1.1598132487074239716
1.1598257403930491982
1.1598510936238310975
1.1599020251212319721
1.1599796303693348243
1.1600711506156280439
1.1601551206766749225
1.1602083835127177114
1.1602138209494725629
1.1601654791481401663
1.1600688547203032996
1.1599367380484557621
1.1597842241071401048
1.1596251826497268045
1.1594695904162259925
1.1593244695673095013
1.159195137555495192
1.1590849544080312761
1.1589950273197782149
1.1589244689854723003
1.1588698218406765506
1.1588273653765133187
1.1587935540090417152
1.1587672820461711876
1.1587478013022267653
1.1587362249301476069
1.1587338098232031758
1.1587413738691150211
1.1587581054452347207
1.1587814500138537976
1.1588072082351708048
1.1588299549876133199
1.1588462141509654479
1.158855046111628706
1.1588578399245303974
1.1588589679340466354
1.1588634798199890508
1.1588739257881532918
1.1588903503802563399
1.1589104894352904029
1.1589291132432668618
1.1589406053314001976
1.1589415774991156383
1.1589341663179297814
1.1589262231952901505
1.1589298436803001646
1.1589586684977988273
1.1590234351407895375
1.1591270599665124408
1.159261588850115654
1.159408800871642109
1.1595435618930012289
1.1596402660266429407
1.1596798869525142273
1.1596546948869230764
1.1595701297116565165
1.159443025607162614
1.1592976307465674424
1.1591597533919240082
1.1590506449967445946
1.1589826901821114191
1.1589583884882441733
1.1589717874162170919
1.1590118189015392591
1.1590663258035585059
1.1591254072909455974
1.1591829349197750876
1.1592362420943849166
1.159284782238954481
1.1593280671926733394
1.1593634723527863617
1.1593858174658620008
1.1593886974768281561
1.1593671911573264488
1.1593196667228151675
1.1592491625114538234
1.1591627394658061689
1.1590698193219288736
1.1589798966109297051
1.1589005608983720119
1.1588363071060356901
1.1587881579929959486
1.1587542080632409203
1.158731307993312809
1.1587166099564667476
1.1587082974332036933
1.1587062840447877043
1.1587112125856560141
1.1587226016581821941
1.1587375341687700114
1.1569603771192080721
1.1544151063638339316
1.153822938078776783
1.154401829913854538
1.1557691853460592135
1.1558708370185244441
1.1551894851282729082
1.1551843220349300445
1.155713164306805707