/*--------------------------------*- C++ -*----------------------------------*\
  =========                 |
  \\      /  F ield         | OpenFOAM: The Open Source CFD Toolbox
   \\    /   O peration     | Website:  https://openfoam.org
    \\  /    A nd           | Version:  12
     \\/     M anipulation  |
\*---------------------------------------------------------------------------*/
FoamFile
{
    format      ascii;
    class       volScalarField;
    location    "0.0075";
    object      T;
}
// * * * * * * * * * * * * * * * * * * * * * * * * * * * * * * * * * * * * * //

dimensions      [0 0 0 1 0 0 0];

internalField   nonuniform List<scalar> 
75962
(
300.21175390031180541
300.14151433109998379
300.19384025257045323
300.2733179450959824
300.11084231576256798
299.95606768001880482
299.90083023743261492
299.90729971240494933
299.93267390738031963
299.95742366350714292
299.98300497049473279
300.00811877294677288
300.09935338066742361
300.25531316018236794
300.3433569376657033
300.26654467892194589
300.07880892992403687
299.92563732806036114
299.90322963756523222
299.97573706545392724
300.05498139279887937
300.1369185017788368
300.24080542666905558
300.2971321688381181
300.24078553427233373
300.12629147302698129
300.05875701377908626
300.06972013560886126
300.14903115070273998
300.28159373899285356
300.40708741233430601
300.43876940144070886
300.3439117825398057
300.19885301296585567
300.10065229507637241
300.08737149558965029
300.14608583908562878
300.25156518116489224
300.36320558651294732
300.43320959692442784
300.45074229225434692
300.44071734071280844
300.41360904474504423
300.3575615807609438
300.28357825067774911
300.23251531846199214
300.23661755987257038
300.28233251733536235
300.33577813840827275
300.37850021577236248
300.41314275763295427
300.44388630407320306
300.48196430444255611
300.54200269631161291
300.62251582449738407
300.6972569818261718
300.73210947313771157
300.71576429996400748
300.66066388881648663
300.58457977170996855
300.5057525008827497
300.43893492542343893
300.39686791055601134
300.39273026246263498
300.43361763114717178
300.51683163741063254
300.62364142571738057
300.72788366296714457
300.80113975397449622
300.82285765163879887
300.79844467736785418
300.77022433622579456
300.79057357465160294
300.87952115275368214
301.00658353976729131
301.11121859277460544
301.15352816448069007
301.12722447233409184
301.05713324420923982
300.97828133298378361
300.91777321148896363
300.88613157032551726
300.88654732771612998
300.91824436182275804
300.97809114358375382
301.05032415165919701
301.11092124516119384
301.13193787852702599
301.1139790866566841
301.08805598808828563
301.10026013957690338
301.18243988727761007
301.33060226110961821
301.50061608057183093
301.63435560550948367
301.69477839780199702
301.68277237495163945
301.62671746648254612
301.56130938846285972
301.51100195947793736
301.48663829607301068
301.4909618288898514
301.51717844244137723
301.54814670160322976
301.55983348291294988
301.5381121244202518
301.49221020834568208
301.45287962875244148
301.45415038737093028
301.51237722344194481
301.61800120966069017
301.7398607491080611
301.83795302994809617
301.88061128283419521
301.85726839285774759
301.78492007188515345
301.70155541146186806
301.64388558087051706
301.62935712781109032
301.65046114711083192
301.681442593586155
301.69615979484086665
301.6830188326255211
301.64812045018902609
301.60706267403941183
301.57526316390340071
301.56170742093109993
301.57158799795320192
301.60555207024384572
301.65694072316938446
301.71057722081070551
301.74765172411571257
301.75666202151950301
301.74197212163153381
301.71933940012803532
301.70195032594881468
301.69129427155615986
301.67845484571421366
301.65632067982738818
301.62631351400659696
301.59742355698614347
301.5788324611603457
301.57208379141081878
301.57139625194611199
301.57028280140326615
301.56942423986276935
301.57599638874847869
301.59882542602002786
301.6398943384539848
301.69245470885846316
301.74507604017742324
301.78755342955111018
301.81563064011425013
301.82963634049093571
301.83061402063219703
301.81735729558573667
301.78852281556822845
301.74270899742816709
301.68040716420352965
301.60536243993698235
301.52335698179552992
301.44293604357847016
301.37583067662103531
301.33652602418493416
301.33832510595487975
301.38744125530888596
301.47989047390308315
301.60221536849400081
301.73376882316989622
301.8514249729543053
301.93260164577856131
301.9609458890033693
301.92998214006007629
301.84506369647556312
301.72226334134109038
301.58478854379507084
301.45669144506848625
301.35630970332260858
301.29446473574483889
301.27412510790333044
301.29321913331813221
301.3472648987032585
301.42887972924631867
301.52631829870790625
301.62277414441149404
301.69857432611354398
301.73632648475421547
301.7281226491516577
299.82380360333314684
299.81829339246235122
299.81593273551754919
299.81336254634237548
299.80704038161434255
299.79428703156224856
299.77393935662780677
299.74690262426986465
299.71516362752038276
299.68120339670463181
299.64736838706994604
299.61610087849879847
299.5895504844147581
299.56984372945817086
299.55896207833836797
299.55744460111947092
299.56382159014810895
299.57540653046959278
299.58920623298780583
299.60317690215481434
299.61706988641600446
299.63142356209215222
299.64594846989427879
299.65892905167811477
299.66807570275727812
299.67222722970967652
299.67273021143341794
299.67314264830633874
299.67728690074295628
299.68733387329308471
299.70312974617979762
299.72286388703088278
299.74445397768806743
299.76660369885394175
299.78895826746401099
299.81078687983017517
299.82992161958094357
299.84333786737488481
299.84881371967537689
299.84689506365145917
299.84145584759346548
299.83796850818117719
299.84066086005941543
299.85045338916950186
299.86466997014468916
299.87872377651399347
299.88905109452315401
299.89502613999246705
299.89885579619391365
299.90421246423915136
299.91412698347386367
299.92959318422913384
299.94931379668912541
299.97043147598577661
299.98958146038114592
300.00393821009089379
300.0117567039440587
300.01278578291953636
300.00841201574155548
300.00113067322001825
299.99346096859659383
299.98700526608024575
299.98211534324775585
299.97823354688529207
299.97483063993405494
299.97255857907572363
299.9737317590157204
299.98154312892410189
299.99844899037600499
300.0241933426345895
300.05495726447628613
300.08407064232318362
300.10453541614720052
300.11173656550738542
300.10514883736334468
300.08803290072700065
300.06562707109276289
300.0428594236113895
300.02262538006908699
300.00568511933124682
299.99166114365209523
299.9803446268176117
299.97248218341530901
299.96958335438318954
299.97305722277144469
299.9831506401723118
299.99827553744154329
300.01522796481953037
300.03021303809435949
300.04020949599339474
300.04395457389870217
300.04213750948775896
300.03680288007200261
300.03043828016217276
300.02511076789380695
300.02190149804027897
300.02108159172320256
300.02240883751147749
300.02549359507423787
300.02989560036701278
300.03511694768906182
300.04057207867697343
300.0456352041885566
300.04975912144465156
300.05259916219313254
300.05413387336477626
300.05447235969813846
300.05368489195416259
300.05170397919124525
300.04850709265468822
300.04428700117654216
300.03960540301613946
300.03536762143806982
300.03264333054028157
300.03234152359675591
300.03494805441408744
300.04041124817740638
300.04820087558442765
300.05748660551461171
300.06743300310057521
300.0774115550656802
300.08695497838073152
300.09560523225576389
300.10275180023927533
300.1075170805597736
300.10890696187681215
300.10609807595443499
300.09886610073220936
300.08793351593965326
300.07505562208729089
300.06276396582791222
300.0536423314463832
300.04940568515360155
300.05037996421685875
300.05543385168471104
300.06235948179653406
300.06878525659027446
300.07315918949990419
300.07531387557008884
300.0764506727140315
300.07844675638028775
300.08286408388789823
300.09021268263296633
300.09961949154666172
300.10926616928179556
300.11718333455337415
300.12214916280640864
300.12417923768850869
300.12444250635059007
300.12457757420969529
300.12582267421583992
300.12836706728165836
300.13129295522850271
300.13297302654649457
300.13194900784185393
300.12768185336966553
300.12097039713233926
300.11373437273618947
300.10827925703625851
300.10642269931042847
300.10875233744724255
300.11439015233042937
300.12136677103546845
300.12745646017765466
300.13108608110007935
300.13196387579455404
300.13099455622477763
300.12978577853812112
300.12974772192507089
300.1314809195865223
300.13459669748260694
300.13784363966396995
300.13976805163036943
300.13929310428039798
300.13591197233188268
300.12981003211865527
300.12144654285731349
300.11152480652214081
300.10044360947978248
300.08895380284513976
300.07727966784227647
300.06606034764001834
300.05573698716887066
300.04693658593987493
300.0401031241846681
300.0354598678886191
300.03282700494622759
300.03166077575036752
300.03117363950201479
300.03057907006331106
300.02919451369155013
300.02677160122351552
300.0233586104970982
300.01938456672689881
300.01540915389585962
300.01189344807119141
300.00921261725153499
300.0075114764865134
300.00668902781364977
300.0066275803654321
300.00714138162027211
300.00819044905972532
300.0098790797828201
300.01219519867680674
300.01491141750784664
300.01774892336567291
300.02032555833068272
300.02227781455940203
300.02349421079048852
300.02438420469155744
300.02589757385567282
300.02931291532922842
300.03571733110618425
300.04552019339246272
300.05818007834562877
300.07226716382348286
300.08578093490399397
300.09652882872183
300.10267921509955613
300.10335179900408775
300.09894723669918903
300.09097692527205936
300.08155788505968076
300.07282734418600967
300.06651515836341559
300.06362075678026713
300.06435089788357118
300.06815556444968252
300.07394145370585647
300.08043776547026482
300.08653752329712461
300.09155122820624229
300.09523048911330534
300.09761526387143249
300.09882924535907023
300.09883775336572853
300.09743088513755538
300.09430828986717188
300.08920529658502119
300.08203858392852226
300.07300284170486293
300.06267821972801357
300.05197454799775869
300.04197282933859015
300.03367152199416523
300.02770962871295524
300.02422769561053428
300.02284782858583867
300.02282237788875818
300.02332158263436668
300.02367686812766578
300.02347625539925957
300.02252236418513576
300.0207509682037994
299.86620560953429049
300.11111234229593947
300.3741302020787316
300.56611098886202171
300.28675809531927143
299.86284656768054901
299.72885975187386975
299.83828152998108862
299.90808219919358635
299.92605374269106733
299.97627779575401519
300.03913575682389592
300.14542212353956074
300.29218565465095026
300.35950846173381024
300.25962151804731093
300.05884267134933907
299.90813863106467352
299.9011799069268136
299.9891254788657875
300.08480437058159396
300.17635753965544154
300.28053262186926986
300.33229395921028981
300.26286224694496241
300.12411050571955684
300.04558875806986862
300.07276119147763893
300.16383855313864615
300.28977187331139476
300.4132591328016133
300.45762787140620276
300.37241660011051181
300.21434175490077223
300.09164508942541261
300.05954422827642247
300.11197610453956486
300.22016109069085132
300.34126402009297863
300.41660649511720749
300.42483630549298823
300.40099663638795846
300.37678365002557257
300.34249573406594891
300.29387235285889801
300.26009508321970998
300.27192921524954272
300.31888141625796607
300.37034579792555178
300.4248110819789872
300.47404808002210075
300.5071716658746368
300.52398374740971576
300.54737403160248732
300.59918332036215816
300.66804407728039905
300.71434171629903176
300.71722888679482821
300.67928691330172342
300.61266930124548935
300.53334932313299532
300.46137948001688756
300.4167642982068287
300.41718854388784621
300.46847662102732102
300.56266866425755779
300.67181964866404087
300.76747083168351082
300.82195890931484428
300.82405775072578535
300.79161236279099967
300.76687803466660398
300.79176373469243799
300.87601157722087919
300.99398017490290158
301.10297182524408299
301.16196313636373816
301.15240839225759828
301.08751982433483363
301.00260942692835897
300.93349802637749235
300.90099699841675829
300.90842975008661142
300.95012983236085802
301.01195822319817808
301.07992467002270587
301.12632947450987331
301.13927094592418143
301.12567280382097579
301.10754750547482672
301.12076541029409782
301.19808205601816553
301.34273862647665965
301.51650556927666003
301.66005669767838526
301.73045993026204314
301.72162831563400687
301.65995965317517857
301.58144732461619242
301.51454887352775813
301.47674406259255875
301.47605616580415244
301.50814310602066826
301.5511090209924987
301.57448100402075397
301.5589256635454376
301.51225710221700638
301.46718607518272393
301.46113112478190033
301.51217997954171324
301.61074155463722946
301.72631842788592849
301.82071968352909153
301.86312561094030116
301.84159468405977123
301.77196623232117645
301.69041167300196093
301.63572820120060669
301.62714959185910857
301.65767515792276754
301.7010041718086768
301.7279788231168709
301.72282252953169746
301.68761588296206355
301.63917806952986211
301.59677364590407933
301.5754443799783644
301.58093542489348238
301.61260119038877292
301.66278797535949252
301.71565015316843983
301.75194950699722085
301.75997021195001935
301.74387296359759603
301.71980669406678999
301.70376358911033776
301.6981538360828381
301.6929636299657318
301.67758073476750269
301.65026020549697705
301.61961610604856787
301.59802606750514542
301.58991632716032427
301.59245328871867287
301.59825236369448476
301.60481200271175339
301.61538674211357147
301.63628889084736784
301.66999416780072352
301.71169606317613443
301.75312426359579376
301.78562643644789887
301.80421433513276952
301.80817240966712234
301.79943372544846625
301.78079288188450846
301.75526191007372745
301.72324894569516118
301.68310772984597179
301.63179404742822953
301.56803545957859569
301.4956934915386455
301.42573840479690261
301.37539760647592857
301.36301690180505375
301.39737674107379917
301.47415573002916744
301.57832666388139842
301.6910496292219932
301.79496094695537067
301.87502205856958426
301.91824451055634881
301.91386008246070105
301.85779283166476716
301.75693503764603065
301.629152025087933
301.49891051374311246
301.38970124659465455
301.31828177869039109
301.29154211703803412
301.30812029452363277
301.3610231987237853
301.43948157460249604
301.52996906722790982
301.61686312936876675
301.68478410408749824
301.72036452767730452
301.71703649418230953
301.67742232931658464
299.84104496659989536
299.82974661016015716
299.82202793165373578
299.8171232481238917
299.81281080530430927
299.80640524310433648
299.79544103912513719
299.77846122813400598
299.75524414988370836
299.72671872504713519
299.69408154310406189
299.65889131475461227
299.62326048804135326
299.59002890181886869
299.56297621078994098
299.54555534589951549
299.53980002236193059
299.5455560817409264
299.56010085989419167
299.57925910432783212
299.59927022024737653
299.61782316171371576
299.63391268423174552
299.64715170389064269
299.65717978041004699
299.66376618537549348
299.66755292206607919
299.67040554762303373
299.67492148195771051
299.6833280873466947
299.69632946527144668
299.71268567269402183
299.73008617246142649
299.74690532946965504
299.76324524634298996
299.78023031805025767
299.79839583286701554
299.81630867471477586
299.83074109223764481
299.8385738974197352
299.83921941173821324
299.83550506385898871
299.83226276054836035
299.83387466165117985
299.84222031566901023
299.85593814796749257
299.87147649409729411
299.88556877136284129
299.89677648931996146
299.90566042231051824
299.91385459149984172
299.92272418104920462
299.93295461973008287
299.94451889221232932
299.95673736344832605
299.96848889132479599
299.97827554337692391
299.98466439560144181
299.98672227295384118
299.98463526063699192
299.97981551287915636
299.97420494140908431
299.96926509825419771
299.96538595215292844
299.96227393266627814
299.95972289113240095
299.95861490777292602
299.96126463586165301
299.9703852652620526
299.98766618762408598
300.01218518791984025
300.03973629480572072
300.06432325596114197
300.08031517985364189
300.08443755925247842
300.07701002917792721
300.0612438892420073
300.04142019572418576
300.02089550702237375
300.00144609908130633
299.98378004203999581
299.96830478505762585
299.95586377612772822
299.94797472342980882
299.94654719772660201
299.95275059567643439
299.96592241360258413
299.98336320858408044
300.00111668618603744
300.01533869623983719
300.02349545125633767
300.02503383197648645
300.02134440040509844
300.01503105692955842
300.00887915441046516
300.00490686374052984
300.00387357094973595
300.00546258014867362
300.00894541892347434
300.0136700197977575
300.01923797252908344
300.02543523024212391
300.03191757422109731
300.0379893579232089
300.04272790855338826
300.04533958401191285
300.04546293904297727
300.04330939046326421
300.03949992729332052
300.03481126707220028
300.02998570840816228
300.02563163247668854
300.0222118661538957
300.02007945398412403
300.01963899533910762
300.02124496615084581
300.02512938584175117
300.03127352064478828
300.03939568541244398
300.04898719702964627
300.05935260797349429
300.06971102872523716
300.07932001801987099
300.08743520910525149
300.09324925959543862
300.09596166203090206
300.09497655720122111
300.09014930335814597
300.08200951081374797
300.07190118197684114
300.06184289909265317
300.05411163542237318
300.05047340528284394
300.05151803918840869
300.05651634547308504
300.06351409533942842
300.0700133594965564
300.07399675935135974
300.07474010765281491
300.07309229683670537
300.07106325747918163
300.07094222163749464
300.07428118552894603
300.08119427877119278
300.09032457005997685
300.09951804343188542
300.10677329615214148
300.11115911290391978
300.11313433965727882
300.11418897880014356
300.11599625316989659
300.11951042626708386
300.12441096361123982
300.12920600980646668
300.13185469662118976
300.13073507583101218
300.12548968171392971
300.11734622264879135
300.10877383904283988
300.10251614194584135
300.10054212441173149
300.10339910973232236
300.10998161685847663
300.11805824662724262
300.12516317282052114
300.12966344109298689
300.1313470425315586
300.13143843407021905
300.13182256667408865
300.13407746443226642
300.13873587762640227
300.14499256292123164
300.15104895090257742
300.15484910456103762
300.15484174333209921
300.15043041748072028
300.14203645528419884
300.13059247540599017
300.11725688972120452
300.10307595067274633
300.08881150479709277
300.07519709475837999
300.0626280903653651
300.05159431681806836
300.04242357969008026
300.03532091718710717
300.03017273900633199
300.02658633816014344
300.02419458370235361
300.02247107779419366
300.02108245911551876
300.01974242297569617
300.01839221800980795
300.01712510055824623
300.01604246880435767
300.01523040261173492
300.01463070790697429
300.01408211024045158
300.01346522523101612
300.01273971636919669
300.01209138338424509
300.01182848589724017
300.01222536956856857
300.01356463370996153
300.01590219993397568
300.01894084798652784
300.02216150474095002
300.02489764762640334
300.02660463031554627
300.02722390006817932
300.02733741005653201
300.02808780579192671
300.03091215531469516
300.03710275091725634
300.04718550423126544
300.06057244075611834
300.07561490210889588
300.08994652559852057
300.10102079406021858
300.10673137215280804
300.1061013851892767
300.09953619488419463
300.08875093525773536
300.07623137357165888
300.06454866688551419
300.05579299953467398
300.0511345298264132
300.05077623809921761
300.05405991869338322
300.05980569307985206
300.06662261818860316
300.07330140183671574
300.07906517228207122
300.08362399870236459
300.08703588730827505
300.08942787843147926
300.09075737741812873
300.09072339407316576
300.08886171379771213
300.08476799261370616
300.0782904051851574
300.06966444840583108
300.05952974695594548
300.04884182058287934
300.03869761845555786
300.03004793040213372
300.02351877688045079
300.01927313395924557
300.01704892277598447
300.01626470411429182
300.01623834821032233
300.01641635553920651
300.01652152604543744
300.01647643248452368
300.01626258424334992
300.13527810483446956
300.217291729827366
300.14674277461244856
300.12420053172803591
300.06890730842866333
299.93868958709350636
299.87840126589435386
299.96791788366670062
300.05101211027437103
300.0304247455420068
300.01000992191274008
300.0826328198231181
300.2056880906888523
300.33370923118326346
300.38155245804892957
300.28151047136367424
300.08442557897882352
299.92973445363611518
299.90919633826149493
300.00186969076605692
300.12118284063484452
300.21702740519373265
300.29655837416100894
300.3240644289542729
300.24445780703604214
300.11526229821930656
300.06434228085004179
300.12730586727326454
300.23655685689237771
300.34046895120059162
300.42559545733536197
300.44002488766756187
300.34283508923044792
300.18586380172524741
300.07207313065475773
300.04736667405205708
300.09892923957301036
300.20923177536195681
300.34464315887368002
300.43381802133086467
300.43868990401011843
300.39797183308388639
300.36204544786227189
300.33007110044525234
300.2953785550118937
300.28253945875570707
300.31373062827037757
300.37275707495467714
300.43326731948639008
300.48468401065167654
300.52423277393046419
300.54043928907691452
300.53185873978657128
300.53040570467572934
300.56910938188673299
300.64232990704061876
300.70529932534071804
300.7213600609468358
300.68679341824775975
300.62011178196826222
300.54480532397326442
300.48622003789159862
300.46447710085243443
300.49174696995163458
300.56385279323137638
300.6587411197041888
300.74815134446828324
300.80461370569173596
300.81705639857017331
300.7957295334441028
300.76956149734303381
300.77229459220717445
300.82256525013644932
300.91511795618498581
301.02720639705023586
301.1275579811310763
301.17767792545447492
301.15667798454001058
301.07897568750047412
300.98708122513517083
300.92592715726601682
300.91692235845306413
300.95240857481377361
301.01181426538931873
301.07110420735773459
301.1184984925482695
301.14285251318852943
301.15371902438022289
301.1550382062835638
301.15725930355841911
301.18702949690060677
301.2689068187197563
301.40402110581175066
301.56127096956089417
301.68737808644169718
301.73984114266409051
301.71277838176712294
301.63241527809003628
301.53818091050811745
301.46796912760595433
301.44505088146962635
301.47179375453038119
301.53021184152964906
301.58711293140004273
301.60987485512464445
301.58362632328282871
301.52461799622375338
301.47201548935345272
301.46441893629082642
301.5173618631393424
301.61714658590926774
301.73014403679906081
301.81789840873079811
301.85196973998790781
301.82614885020575457
301.75905684436344245
301.68638551091089539
301.64309143828626247
301.64665009018835917
301.68745607028154154
301.73848806806296352
301.76907626907643589
301.76062658583367693
301.71525672956420294
301.6541389188643052
301.60375361702273267
301.58252184185346323
301.59347781407018374
301.62883855945830192
301.67666354947920127
301.72142572578445652
301.74863177893524835
301.75164314765868312
301.73621748748831806
301.71770451825875625
301.70948256984758018
301.71202536729373378
301.71278746555697126
301.6989527806526894
301.66853224516955834
301.63326462763001246
301.60831642384812312
301.60225924495119898
301.61356771215878325
301.63268321467029409
301.65112638687605795
301.66738498206342456
301.68413756903612466
301.70530610994751441
301.73114730181299592
301.75712608886396993
301.77690115465168219
301.78481777563945343
301.77903856610612365
301.76261034101531777
301.74197241976929718
301.72270659313682017
301.70509457799016673
301.68390407838552392
301.65152077205459591
301.60196727950369677
301.5365296595875293
301.46642727529098238
301.41051912137925228
301.38820910327279989
301.40992303427225352
301.4714810621890706
301.55846151450384696
301.65458827062451519
301.7467424410234571
301.8249528033286424
301.87793195644400157
301.8925784514670454
301.85879839416418235
301.77683335944351484
301.65989025438636872
301.5316745592767802
301.4184731991581998
301.34156143688369411
301.31224171966812264
301.33001679533646211
301.38445579185037104
301.45995019947309856
301.5399989805702603
301.61037449073802463
301.66150555774117947
301.68716376249233235
301.68492779851402474
301.65585194478143194
299.8457353166828625
299.83750418875843025
299.82820717465460802
299.81803914434891567
299.80675228321166514
299.79368205627525867
299.77823910368442739
299.76018692835344837
299.7394917357175359
299.71614849707685835
299.68987568995237325
299.66055466738748692
299.62903230460324266
299.59819614144356592
299.57224011766885496
299.55532530995856177
299.55026050990414888
299.55703767339730348
299.57272970742394591
299.59279927703164503
299.61269107510730692
299.62913539704737786
299.64097961663156866
299.64889804376576876
299.6543854405381353
299.65896316706022162
299.66398776353850053
299.67084960461988885
299.68074398879014097
299.69405277985788416
299.7097966931152655
299.72582693725485115
299.74006061729687644
299.75185824149718883
299.76240197173746083
299.77372092243763291
299.78716949743335363
299.80210219571432617
299.81574363436573094
299.82481545785799426
299.8278942540239882
299.82669016164464892
299.82522987197398834
299.82777146181626904
299.83682491549228644
299.85219186752652831
299.87137265339248415
299.891099622222157
299.90882114935249092
299.92304863812540816
299.93300745018660791
299.93878632295030684
299.94149889126248354
299.94289870100135431
299.94481147814036603
299.94821191252032122
299.95280265779706497
299.95719987648379856
299.95979192214861087
299.95964055253671177
299.95709052479247703
299.95337856905581475
299.94977087031901419
299.94680617959556912
299.94439958315513195
299.94278729723623655
299.94316822010563328
299.94743220943695405
299.95759359698433855
299.97415653278284253
299.99514948467123077
300.01663387148886386
300.03393112733306225
300.04328470288623976
300.04349557792085079
300.03601812184314213
300.02364927145634965
300.00883178326199641
299.9931820481650675
299.9774556497537219
299.96199142246672409
299.94755609225887838
299.93583199346488755
299.92918250068987618
299.92959235332801882
299.93756987709076611
299.95152716031657292
299.96827541994753119
299.98396718991745047
299.99526856442969347
300.00038057600465891
299.99950169207204453
299.99465958258718956
299.98883994748030091
299.98478986310044547
299.98400493256241361
299.98651606315002027
299.9913396473582452
299.99730704405664028
300.00365992209765409
300.01024844658570601
300.01719763391110973
300.02443515946873731
300.03126202509116638
300.03635331011702192
300.03839038274622908
300.03664151433974894
300.03143699628117247
300.02408096248734637
300.01638820641107941
300.0100372703829521
300.00604529134608356
300.00465570453656028
300.00550905401115642
300.00805071642690791
300.01189833949001695
300.01688725440425287
300.02309526378030569
300.03066072927339292
300.03956012080806204
300.04941584330936166
300.05946347415817854
300.06866434785439424
300.07593519301462948
300.08030705320771858
300.08114441912988468
300.07833111437327034
300.07243270776871213
300.06471932464506835
300.05695271694344228
300.05110277787593986
300.04879588909909671
300.05078510512583989
300.05663708939016487
300.06459859182677974
300.07204148752623496
300.07655477221038609
300.07684293227720218
300.07314351520119544
300.06727607585378337
300.06191984048257382
300.05956940423806145
300.06157796401282667
300.06761995941548093
300.0760845801592609
300.08482341733474641
300.09216019934268616
300.0974916499748133
300.10142002098473313
300.10530339077649842
300.11041522145291083
300.11714504774823808
300.12461788408739949
300.1308765002405039
300.13374439742693767
300.13181426073208513
300.12510500749937137
300.11530036867793569
300.10527454809550818
300.09797544008802106
300.09532886723491174
300.09756838040431148
300.10337119512598747
300.11045574615133091
300.11660917098822665
300.12057387121927832
300.12254967760907221
300.12395196447329226
300.12666282629282932
300.13205238793995022
300.14028463640607924
300.15005234809262902
300.15910110145591716
300.16496528452398707
300.16580030277214064
300.1609390446039356
300.15094133816063504
300.13715979152340196
300.12120516410993787
300.10456601585872249
300.08830301992782097
300.07315046437901174
300.05964823104773131
300.04812909806645393
300.03870291020103878
300.03127508202152285
300.02550690557222879
300.02101042083120319
300.01741531551022035
300.01458515783190251
300.01242199435642988
300.01102503718499293
300.01052337320220431
300.01102240853447256
300.0124733970154125
300.01464722777944871
300.01713594194501411
300.0193970598101032
300.02107376109250936
300.02207150049730444
300.02251895892521816
300.02284624220044407
300.02356205063273364
300.02491232953110512
300.02687588794429985
300.02919325607905421
300.03129738290226669
300.0325835600073674
300.03269036161810845
300.03184822711540392
300.0309030755389017
300.03114613024547452
300.03403400584346628
300.04071508165321802
300.051523794016191
300.06565039883975032
300.08119803038698592
300.09552755540278213
300.10593568571795231
300.11038864958396744
300.10802143476377069
300.09934758110352959
300.08608753536174163
300.07076635891638716
300.05609555790766763
300.04433213954780513
300.0368277450908181
300.03390704174466919
300.03500980040189461
300.03902047640741557
300.04469070949380693
300.05098289148980939
300.05723417668616548
300.06313654005850822
300.06860248059376772
300.0735533866046012
300.0776914856422195
300.08044524276334641
300.08111490975721836
300.07915494564082337
300.07436692065050465
300.06704708519686164
300.05793077326279672
300.04802023155224333
300.03834111293031128
300.02973333428536762
300.02271102244912981
300.01741646198064473
300.01366049120298385
300.01110809400125845
300.00944175350554133
300.00845593148665102
300.00812787581992325
300.00853562066100721
300.00964352585162942
300.01117166263162517
300.27896690228169518
300.10930581657612493
300.20623618721697312
300.26565500567710387
300.30653770609382036
300.23745239229572235
300.13418946543328047
300.12038851199008604