/*--------------------------------*- C++ -*----------------------------------*\
  =========                 |
  \\      /  F ield         | OpenFOAM: The Open Source CFD Toolbox
   \\    /   O peration     | Website:  https://openfoam.org
    \\  /    A nd           | Version:  12
     \\/     M anipulation  |
\*---------------------------------------------------------------------------*/
FoamFile
{
    format      ascii;
    class       volScalarField;
    location    "0.0064";
    object      alphat;
}
// * * * * * * * * * * * * * * * * * * * * * * * * * * * * * * * * * * * * * //

dimensions      [1 -1 -1 0 0 0 0];

internalField   nonuniform List<scalar> 
75962
(
5.5541298776025040269e-07
7.3030684519333682827e-07
8.1850723379703339631e-07
8.7810826892891512921e-07
9.9546604102090497644e-07
1.1286081776456548846e-06
1.2004818298235659302e-06
1.2368272211530829104e-06
1.2908847405257469096e-06
1.4176627687731355024e-06
1.636290723550543277e-06
1.7837525792076018523e-06
1.8490690381000436216e-06
1.8746824758229156764e-06
1.905591001493823051e-06
1.9782924535292331927e-06
2.1571089451383710991e-06
2.3157226394828411562e-06
2.4140765430995001478e-06
2.4920166444516899001e-06
2.5971602774290379599e-06
2.7398450039843339092e-06
2.880084852399308977e-06
2.9756418536264363788e-06
3.0190957384688005757e-06
3.0340028094924260007e-06
3.0509107019431957993e-06
3.0970324395344631709e-06
3.1715352128083111323e-06
3.2244221706291021173e-06
3.2549755328599137103e-06
3.2863601192404305761e-06
3.3513055320230030348e-06
3.4989253464739686248e-06
3.7015004963712568147e-06
3.8997337099350128846e-06
4.0582075752176624919e-06
4.1710000051168400211e-06
4.2512175929364435481e-06
4.3075206496674819665e-06
4.3435482166166675081e-06
4.367537713131525596e-06
4.3961843948028774109e-06
4.446853380693882208e-06
4.5247616176724089149e-06
4.6179911522480465754e-06
4.7051216903588511964e-06
4.7671023105873756056e-06
4.7998955858331364841e-06
4.8202176275042290992e-06
4.8582993151132431009e-06
4.9586214604305178067e-06
5.1985522080484273508e-06
5.4287297401892857084e-06
5.5783592864698929451e-06
5.6492195833631734701e-06
5.6689393359465907796e-06
5.669390043370792772e-06
5.6709577918093411326e-06
5.6822640496794848855e-06
5.7204079261703709989e-06
5.8146482066388999535e-06
5.9266670717362978158e-06
6.0387887225575281582e-06
6.137829037613915191e-06
6.2084334890142593409e-06
6.2443730547437582081e-06
6.2571047818381959232e-06
6.2702873718100929462e-06
6.3061131210161581244e-06
6.4314848076189521837e-06
6.677651204228528698e-06
6.8581760192871884038e-06
6.9573772577223129139e-06
6.9981609662387102321e-06
7.0114982669629121113e-06
7.0181712980603399348e-06
7.0262722628271475091e-06
7.0369980550471585197e-06
7.053319288743205729e-06
7.0851284887360082532e-06
7.1685646119447237124e-06
7.3513173860499779019e-06
7.5148937512645314887e-06
7.6144342363237135375e-06
7.6528225906753654328e-06
7.6659865208261537703e-06
7.6894408284870040265e-06
7.7681724720078135585e-06
8.0066559316364337162e-06
8.2494825167240472155e-06
8.4104407614616328811e-06
8.5071453915921948829e-06
8.5610121831906744273e-06
8.5875879655778628382e-06
8.5958170479522188101e-06
8.5938504159501357223e-06
8.5903782265557141254e-06
8.5934637466218691037e-06
8.6283340743152586543e-06
8.7485045764529820471e-06
8.848670923846280951e-06
8.8828514978927327375e-06
8.8799214448180108054e-06
8.8610569183643922582e-06
8.804562948293704659e-06
8.7548951422377106697e-06
8.7338172586399882938e-06
8.7291427673341187273e-06
8.7592102231002466178e-06
8.9135959205329778069e-06
9.1896091424520686731e-06
9.3846520836011630478e-06
9.490124791913790819e-06
9.5326363844342101178e-06
9.5604417517473442862e-06
9.6208710144540348215e-06
9.7957370201043198464e-06
1.0090490445926192579e-05
1.0323905336787900981e-05
1.0454918013216747753e-05
1.04949639593805013e-05
1.0489651995554980383e-05
1.0449704506096006229e-05
1.037520980768181059e-05
1.0347309914003100333e-05
1.0351160909600933945e-05
1.045305666380756878e-05
1.0755544984655136256e-05
1.0971246563345365523e-05
1.1060587030544245132e-05
1.1078785653560664732e-05
1.1077226025136804579e-05
1.1074200401444727734e-05
1.1075735401481521806e-05
1.1077314910386867791e-05
1.106569326383142087e-05
1.102518385997349742e-05
1.0892236310217237144e-05
1.0749777224114904619e-05
1.0679230977421438062e-05
1.0658207123072409861e-05
1.065615421478698156e-05
1.0685268698779375933e-05
1.0751674125592368216e-05
1.0791569280375971343e-05
1.0809660164828443905e-05
1.0813727426810623738e-05
1.0811517025634328557e-05
1.0805712443148628949e-05
1.0795304359812100503e-05
1.0770148759261321489e-05
1.0721027667800030265e-05
1.0676229359610352291e-05
1.0640755263238173669e-05
1.0614548924959744014e-05
1.059651968658160135e-05
1.0583680725312701962e-05
1.0574882585329870206e-05
1.0571416500769651668e-05
1.0583710741413072441e-05
1.0634886169702036722e-05
1.070228572666591793e-05
1.0761692827488624662e-05
1.0809845758714530317e-05
1.0844475499302075935e-05
1.0865850086094865155e-05
1.0876410606680640415e-05
1.0880405153976715807e-05
1.0882889526541899425e-05
1.08883892316344296e-05
1.0905612238067224727e-05
1.0942792137640830645e-05
1.0980010021752745203e-05
1.10127276057762588e-05
1.1041473095096706171e-05
1.1068361825607234207e-05
1.1097556353929606608e-05
1.1131150247252740107e-05
1.1169771844358306916e-05
1.1211171264604806368e-05
1.1250893845343399593e-05
1.1284843559908021093e-05
1.1308295445613702581e-05
1.1320982041509594586e-05
1.1323930597612548012e-05
1.132156410984106929e-05
1.1319501231740918055e-05
1.2118550687647749656e-05
1.2135874917723986688e-05
1.2148724265796282621e-05
1.2157258435577048548e-05
1.216131120118843964e-05
1.2161045378393238624e-05
1.215712320125973823e-05
1.215096784787003682e-05
1.214343763028103027e-05
1.2135485103581153502e-05
1.2127119176576421595e-05
1.2118128745387453675e-05
1.2109022081472821809e-05
1.209958118512339067e-05
1.208935746977241148e-05
1.2077128388315805241e-05
1.2060644380548538363e-05
1.204348476839771732e-05
1.2026130388295980047e-05
1.2009263009481577526e-05
1.1992541746055838508e-05
1.1976251007139568003e-05
1.1959608187301068512e-05
1.1942585563873214791e-05
1.1924597797275095644e-05
1.1906426141100999263e-05
1.1888463324701821982e-05
1.1871974161680229055e-05
1.1857011631998477027e-05
1.1843859047531892225e-05
1.1831654387664236854e-05
1.1820233571316917214e-05
1.180877432345079988e-05
1.1797375810052928584e-05
1.1785614423227096085e-05
1.1773800733415539803e-05
1.1761592902452521479e-05
1.174925668485265417e-05
1.1736477145424686848e-05
1.1723593644783439512e-05
1.1710340949501904e-05
1.1697092293933412615e-05
1.1683567055030540476e-05
1.1670219788419786014e-05
1.1656878486988687596e-05
1.1644155198508227122e-05
1.1631830559750079606e-05
1.1620288470893603075e-05
1.1608876847986349869e-05
1.1597603388339971646e-05
1.1585609503008307636e-05
1.1572996577872491963e-05
1.1559246232273888319e-05
1.1545038161141032938e-05
1.1530467636627136303e-05
1.1516511402421720174e-05
1.1503116511387334928e-05
1.1490590728743434862e-05
1.1478133721259924855e-05
1.1465521774474566471e-05
1.145189373827319898e-05
1.1437367752131040108e-05
1.1421810332645044661e-05
1.1406057326668361026e-05
1.1390415875854137352e-05
1.1375642716295039712e-05
1.1361647481778826849e-05
1.1348546155250623167e-05
1.1335734809193976589e-05
1.1322974320574740514e-05
1.1309671289741265467e-05
1.1295790334145213002e-05
1.1281201594166111784e-05
1.1266254509520272275e-05
1.1251060670610418105e-05
1.1235964124447156699e-05
1.1221034473867143858e-05
1.1206582237414516995e-05
1.1192597650813838515e-05
1.1179275383798415811e-05
1.1166220528431349679e-05
1.1153270595780627008e-05
1.1139735052031106367e-05
1.1125683787045248291e-05
1.1110835789191262271e-05
1.1095858830138414377e-05
1.1080970086738629236e-05
1.1066943093424213811e-05
1.1053814990061970947e-05
1.1041797923681941228e-05
1.1030359802809822754e-05
1.1019122714557535832e-05
1.1007361271354659118e-05
1.0994719773857301949e-05
1.0980912528668159808e-05
1.0966043501485469157e-05
1.0950288775800211979e-05
1.0934117566335134977e-05
1.0917792873940855165e-05
1.0901871972495869332e-05
1.0886258231257239733e-05
1.0871241397514680427e-05
1.0856315069348693883e-05
1.0841622001870756823e-05
1.0826907825116000692e-05
1.0812371721693020581e-05
1.0798070425682574489e-05
1.0783894732192996613e-05
1.07697991208236311e-05
1.0755482283653059841e-05
1.074090753814698729e-05
1.0726066446387412686e-05
1.0711114453802446454e-05
1.0696183658288889887e-05
1.0681536399404308027e-05
1.0667052188257013196e-05
1.0653112050288338484e-05
1.0639300303879563114e-05
1.0626039929941365198e-05
1.0612824374856490877e-05
1.0600033014948610679e-05
1.0587219282155767983e-05
1.0574696865482376487e-05
1.0561875671580790153e-05
1.0549120668970889011e-05
1.0535677889376646255e-05
1.0522116320231223406e-05
1.0507785920285313906e-05
1.0493472859488709532e-05
1.0478631288865229679e-05
1.0464236051221919376e-05
1.0449472838481670801e-05
1.0435435709219786319e-05
1.0420950294052009675e-05
1.040712737106119319e-05
1.0392857235743708518e-05
1.0379110907595963213e-05
1.0364970639810108853e-05
1.0351421104829019109e-05
1.0337578336815660653e-05
1.0324647961973466192e-05
1.0311595653937650956e-05
1.0299489482988888084e-05
1.0287171982134203646e-05
1.0275580472985968187e-05
1.0263523021413169587e-05
1.0252069539043712193e-05
1.0239892291621386847e-05
1.0228391650327745181e-05
1.0216251114767689077e-05
1.0204951087367678198e-05
1.0193071277893923598e-05
1.0182087621727475287e-05
1.0170266654633945092e-05
1.0159142159620110281e-05
1.014698327675369871e-05
1.0135371353979036397e-05
1.012284729572765977e-05
1.0111121111018107535e-05
1.0098941207484009945e-05
1.0087933441102687584e-05
1.007662117964650644e-05
1.0066273850171150085e-05
1.0055097696231199113e-05
1.0044334167651121505e-05
1.0032242479094591445e-05
1.0020423297829839806e-05
1.0007375815084107977e-05
9.995129794735379289e-06
9.9821994753408678806e-06
9.9705629156051687567e-06
9.9584664791104968059e-06
9.9475178322937293644e-06
9.9355894071223390974e-06
9.9243132815280320837e-06
9.9114909164400170677e-06
9.8990583770357167426e-06
9.8852076513614998336e-06
9.8719738394231041387e-06
9.8577908394664680281e-06
9.8446245144922569375e-06
9.8306817490873209763e-06
9.8177609531571021298e-06
9.8040330221116984473e-06
9.7913171979815970291e-06
9.7778697312739385118e-06
9.7655332422603000249e-06
9.7525990491122639041e-06
9.7408129928827824937e-06
9.728388282660078751e-06
9.7170033160350011511e-06
9.7048100054929473449e-06
9.6934847797321197735e-06
9.6812336085640194347e-06
9.6698549487245545223e-06
9.6575378363200097871e-06
9.6462527050950211502e-06
9.6340427892522537178e-06
9.6229809231649422627e-06
9.6108747393195013753e-06
9.5998606204622894745e-06
9.5874837997280928952e-06
9.5759851319503064277e-06
9.5630282586569989649e-06
9.5508161581865120567e-06
9.5374239560431813402e-06
9.5249665701518831023e-06
9.5116525230909727834e-06
9.4995051339071605811e-06
9.4865790436413930867e-06
9.4748407979453488865e-06
9.4622027311609282856e-06
9.450754335351462188e-06
9.4383932808709687217e-06
9.4273088072616186288e-06
9.4154710309221411002e-06
9.4049886008025085501e-06
9.3938385927448578798e-06
9.3838509250835130243e-06
9.3730990408683866484e-06
9.3631963502811404863e-06
9.3523447503544927437e-06
9.3422323238934568514e-06
9.3308706037805621203e-06
9.3202495569085333819e-06
9.3082368582090085164e-06
9.2970671190463447133e-06
9.2845636205560641801e-06
9.2729293834577460786e-06
9.2601600406757575624e-06
9.2483495571742170164e-06
9.2355511839252231752e-06
9.223992450874999056e-06
9.2116641462125946804e-06
9.2008623742179868526e-06
9.1893983628169033953e-06
9.1793921968861834538e-06
9.1688033073747235885e-06
9.1592871984960250967e-06
9.1488229215062487256e-06
9.1392733212136437274e-06
9.128381486975079443e-06
9.1183970357874494293e-06
9.1071832964072638097e-06
9.0970670314788675898e-06
9.0860020238908230139e-06
9.0762726065705560735e-06
9.065774045396582796e-06
9.0565358836719955603e-06
9.0465779020444044451e-06
9.0377920285427401566e-06
9.0281306495264323689e-06
9.0194838179298853214e-06
9.0096611515474887496e-06
5.7954116137091365263e-07
7.204598465104264525e-07
8.178310351433904563e-07
8.8292722512482430512e-07
1.0007774908659979018e-06
1.1742686591749066376e-06
1.3014685171600790498e-06
1.3659613738029371413e-06
1.41330575395115796e-06
1.5060030307809695047e-06
1.6939000455173374943e-06
1.8368540379897251434e-06
1.9020663027968448857e-06
1.9339306929157376713e-06
1.9820905717754567997e-06
2.0935415654142658719e-06
2.3171043021080428154e-06
2.5140311661957782863e-06
2.6311200069760018001e-06
2.6820541964437592765e-06
2.7363173762403399785e-06
2.850378309871581912e-06
2.9830158485501453178e-06
3.0742541611640249616e-06
3.1143561943430037758e-06
3.1499334022029583542e-06
3.2129767558515989278e-06
3.2851267595883222765e-06
3.336367770242895718e-06
3.3633210806378792014e-06
3.3930084205815762155e-06
3.4583722454660529944e-06
3.5688577190256552321e-06
3.7147672673804299685e-06
3.8913616750159484858e-06
4.0764921961113449375e-06
4.2392824821406786107e-06
4.3598887766777884718e-06
4.434570345627633803e-06
4.475274481986230345e-06
4.5022880699659113685e-06
4.536730549453285314e-06
4.5910828724555653312e-06
4.6685020105920656014e-06
4.7621497639589114911e-06
4.8569687849470714465e-06
4.9363973133968253723e-06
4.9885739387667097522e-06
5.0138565407613054579e-06
5.0291271490764345226e-06
5.0612575078726500314e-06
5.1484286122174000513e-06
5.3968362941521511391e-06
5.6954070827072960092e-06
5.8999657542381199335e-06
6.0054417177389292579e-06
6.0402720220817386249e-06
6.0424787907490266743e-06
6.038546098820262482e-06
6.0375894106690043348e-06
6.0449573951201671549e-06
6.0763675531080546156e-06
6.1770052900928498744e-06
6.3141129217270922344e-06
6.4267850843605663877e-06
6.5043220204302795758e-06
6.5438894083086891385e-06
6.5570537261675519429e-06
6.5655926212580389482e-06
6.5879458099747220039e-06
6.6666188082933278074e-06
6.8957338030532705495e-06
7.1211497319405237595e-06
7.2612817203755727289e-06
7.3326272733393900512e-06
7.3623136472528103919e-06
7.3740705774414199344e-06
7.3809385717803928159e-06
7.3877898492314912881e-06
7.3993559172040619998e-06
7.4251382444392828182e-06
7.499469759674616888e-06
7.6988876609426661594e-06
7.9026464878347366913e-06
8.0339537622554230563e-06
8.0915629209043083824e-06
8.1083186679011024455e-06
8.1236550262617585402e-06
8.1670916009514756418e-06
8.3242681041857217056e-06
8.5602335126149342972e-06
8.7329538680158971337e-06
8.8453116026095386599e-06
8.9115559266427835962e-06
8.9446743100479059343e-06
8.9552868258243320461e-06
8.954947369460001364e-06
8.9545593425204254037e-06
8.9641812587121929927e-06
9.012758044291257551e-06
9.150554854344375674e-06
9.2621260148469037102e-06
9.3097474336835289065e-06
9.3132859232734850402e-06
9.3011503944578342612e-06
9.2648153089059236023e-06
9.21531998897964842e-06
9.1896104595347454544e-06
9.1805593361317124718e-06
9.1927066013325576334e-06
9.292579476964488741e-06
9.5842882006013707853e-06
9.8339790323450307775e-06
9.9704993348905789085e-06
1.0028325013814787437e-05
1.0070023234074315644e-05
1.0159386804400506477e-05
1.0378141827101689697e-05
1.0635828483317329006e-05
1.084047202458955014e-05
1.0955555427481916822e-05
1.0988841320641399288e-05
1.0981831536759972871e-05
1.0937873697249988759e-05
1.0861762220556269075e-05
1.0834620871505146308e-05
1.0840494799879267732e-05
1.0951601033481529903e-05
1.1276093979023814112e-05
1.1503469887511240063e-05
1.1596793285145237109e-05
1.1621439161791385732e-05
1.1640640344978629475e-05
1.1687832856840095643e-05
1.1741522919290103667e-05
1.1762774498363825939e-05
1.1754827687935479118e-05
1.1720778588460945501e-05
1.1591841379304418548e-05
1.1425082287041231772e-05
1.1340258217709812789e-05
1.1314279029528315925e-05
1.1310951061254337767e-05
1.1339340763425139984e-05
1.1400531726798558569e-05
1.1433319781559980201e-05
1.144423746966182318e-05
1.1444444286156464763e-05
1.1440180888872910107e-05
1.1432844043840928206e-05
1.141515678061306203e-05
1.1369420305629748041e-05
1.131414296401213821e-05
1.1269502447308416064e-05
1.1235713323458150804e-05
1.1211475368711337154e-05
1.1194546988282120327e-05
1.118225612001381228e-05
1.1173796867174630483e-05
1.117171926861433619e-05
1.1188574782544099357e-05
1.1246795972797392414e-05
1.130856722059392396e-05
1.1355876723682498846e-05
1.1387678416021234154e-05
1.1405472601543972534e-05
1.1414144830540402684e-05
1.1420545123014645689e-05
1.1431102598920498678e-05
1.1452837627896725905e-05
1.1481704909140209818e-05
1.1514058703145689056e-05
1.154640293636141854e-05
1.1576327054152451225e-05
1.1602641189691085611e-05
1.1626974866925444385e-05
1.1652338381333698382e-05
1.1682688650302384077e-05
1.1719912164285918393e-05
1.176349402836134515e-05
1.1809847768912894468e-05
1.1853822367820364373e-05
1.1890167177978291653e-05
1.191553738153322721e-05
1.1929364131510138391e-05
1.1933231781525044734e-05
1.1930376156498735178e-05
1.1925020607989409092e-05
1.1920935107562207164e-05
1.2740485528429988069e-05
1.2763193628451799974e-05
1.2781413478817297972e-05
1.2795122853625840776e-05
1.2804515701877527896e-05
1.2809575787810648307e-05
1.2810418776683665405e-05
1.2807333755572391745e-05
1.2801450256490274669e-05
1.2793945775080181143e-05
1.2785415104912830641e-05
1.277650398725180992e-05
1.2767097736694517425e-05
1.2757391772853487593e-05
1.2747236463155542705e-05
1.2735974052307140936e-05
1.2721418611394726394e-05
1.2702418073793052752e-05
1.2683027387318291138e-05
1.2663783255191634131e-05
1.264505284784548289e-05
1.2626787079752826149e-05
1.2608904292819128715e-05
1.2590917753122875193e-05
1.2572543994262800905e-05
1.2553572331578205943e-05
1.2534395113933896349e-05
1.2515687099583546599e-05
1.2498304087531240798e-05
1.2482612526070431262e-05
1.2468560435396991727e-05
1.2455551862963604894e-05
1.2442961402562947924e-05
1.2430198628646599236e-05
1.241712675357915628e-05
1.2403792997270209913e-05
1.2390442213068055406e-05
1.2377139325490228657e-05
1.2363900477322214131e-05
1.2350624985369723386e-05
1.2337227829538081341e-05
1.2323599617482077618e-05
1.2309699051624710633e-05
1.2295547307961680585e-05
1.2281403462557007083e-05
1.2267579325184949158e-05
1.2254415111982143395e-05
1.2241951766171180706e-05
1.2230044233975457174e-05
1.2218264412026411811e-05
1.2206181742406011019e-05
1.2193336541737965698e-05
1.2179563206855064484e-05
1.2164897089432748407e-05
1.2149786607092860573e-05
1.2134771071014830742e-05
1.2120433105558830146e-05
1.2106989154151337387e-05
1.2094235816469478683e-05
1.2081621110648973141e-05
1.2068381166502553133e-05
1.2053972293235139197e-05
1.2038223224600817161e-05
1.2021525745714591423e-05
1.2004537951010423724e-05
1.198803785306632461e-05
1.1972458979006405787e-05
1.1957935071397491551e-05
1.1944132136926732205e-05
1.193063217890886403e-05
1.1916847934463692526e-05
1.1902525804944947389e-05
1.1887465842083730559e-05
1.187191735971849969e-05
1.185600020988367293e-05
1.1840132788580470276e-05
1.1824406519258191166e-05
1.1809144116356538705e-05
1.1794345616744432879e-05
1.1780183252735640609e-05
1.1766442425679910554e-05
1.1752953087995741157e-05
1.173924496008445238e-05
1.172499801243808413e-05
1.1710003982939113848e-05
1.1694354935452228251e-05
1.1678367472593369051e-05
1.1662654462443758377e-05
1.1647687155565747261e-05
1.1633874477850671977e-05
1.1621017474976448424e-05
1.1608879273595567948e-05
1.1596693544418772826e-05
1.1584140408515615866e-05
1.1570601134467730644e-05
1.155616064634471294e-05
1.1540619304845507257e-05
1.1524409721181373624e-05
1.1507673351069235153e-05
1.1490904653688213639e-05
1.1474271687087648304e-05
1.1457997450184995481e-05
1.1442014996721126233e-05
1.1426305538470846719e-05
1.1410659682876954322e-05
1.1395234061762378323e-05
1.1379768001612974184e-05
1.1364660825549552744e-05
1.1349431883796558948e-05
1.1334433699043810887e-05
1.1319069758624877763e-05
1.1303745970940317931e-05
1.1288114016444588528e-05
1.1272764752074283863e-05
1.1257401262346323521e-05
1.1242610072126854885e-05
1.1227803389018696352e-05
1.1213653618374651974e-05
1.1199323683518468985e-05
1.118560906246280964e-05
1.1171597479601638788e-05
1.1158088463334209684e-05
1.1144263304968515308e-05
1.1130888179243931109e-05
1.1117055911079089676e-05
1.1103476692440918997e-05
1.1089050801521074333e-05
1.1074658504196600013e-05
1.1059262991014404899e-05
1.1044066960145900008e-05
1.1028094874825823413e-05
1.1012766751787832147e-05
1.099688474574626625e-05
1.0981928917907752099e-05
1.0966438333281506082e-05
1.0951902189194352892e-05
1.0936878688284117759e-05
1.0922713296340560182e-05
1.0908049612411246752e-05
1.0894230404173737881e-05
1.0879921080494668966e-05
1.0866653275211118397e-05
1.0852975030546150274e-05
1.0840320313264276494e-05
1.0827172552647990189e-05
1.0814786939041747227e-05
1.0801630460425946622e-05
1.0789259919051379493e-05
1.0776062182825450839e-05
1.0763834240115695255e-05
1.075091146483600874e-05
1.0739131779341177665e-05
1.0726673407321310014e-05
1.0715357675396069035e-05
1.070306864170471545e-05
1.0691700193983624437e-05
1.0679126522044252629e-05
1.066726192452736173e-05
1.0654241168519582543e-05
1.0642133377096424946e-05
1.0629222727573818852e-05
1.0617619700213595969e-05
1.0605396391835700775e-05
1.0594368424741168618e-05
1.0582352919948945935e-05
1.0571034480759413128e-05
1.0558271645319578481e-05
1.0546073895286696496e-05
1.0532536370550374865e-05
1.0520085858096103962e-05
1.0506773964832716325e-05
1.0494972112123579513e-05
1.0482378219981088277e-05
1.0470987143087562713e-05
1.0458247673565169728e-05
1.0446200441279008677e-05
1.0432362268858165694e-05
1.0419125964458193648e-05
1.040431670665150714e-05
1.0390416027238040276e-05
1.0375396695400174984e-05
1.0361649738046544288e-05
1.0346928399943842232e-05
1.0333443959831529636e-05
1.0318868430720496855e-05
1.0305504267940857272e-05
1.0291140483564982015e-05
1.0278204897460864264e-05
1.0264465036436025829e-05
1.0252237297219096878e-05
1.0239203921829248092e-05
1.022747945240355563e-05
1.0214649215099145963e-05
1.0202893140669400257e-05
1.0189840552423442755e-05
1.0177836896458864214e-05
1.0164558367309514642e-05
1.0152514949236742013e-05
1.0139292261485085861e-05
1.0127468929064498455e-05
1.0114383384928228639e-05
1.0102617086527410984e-05
1.0089268576808517987e-05
1.0076993825831894965e-05
1.0063014870190875474e-05
1.0050035453846954263e-05
1.0035673073208131614e-05
1.0022633377373022117e-05
1.000859167717514478e-05
9.9961636681513775217e-06
9.9828065552295346103e-06
9.9709671180991132932e-06
9.9579218161848043021e-06
9.9462251506906237828e-06
9.9332199555691795648e-06
9.9216255088878470199e-06
9.9089008433943809718e-06
9.8977735767536528485e-06
9.8857051186293897339e-06
9.8751628144845688247e-06
9.8635744484482688421e-06
9.8532244793094019957e-06
9.8416227395446552489e-06
9.8310831486692340102e-06
9.8190599307332178223e-06
9.8081137083420873006e-06
9.7955307611305486896e-06
9.7840542905761916713e-06
9.7709470474372807618e-06
9.7589480663535002456e-06
9.7454367829818116912e-06
9.7330816111730009019e-06
9.7194454573685403305e-06
9.7072922741012855884e-06
9.6941135265032080944e-06
9.6827580407078392893e-06
9.6705064833479144456e-06
9.6599907660467363248e-06
9.6485555505454741296e-06
9.6385371299938504684e-06
9.6272679476469578475e-06
9.6171548202242604646e-06
9.6053732164601123299e-06
9.5947524614517559684e-06
9.5826372042715225719e-06
9.5719409453896304719e-06
9.5600511901984948994e-06
9.5498226396447632693e-06
9.5385974051665658975e-06
9.5289165478185026921e-06
9.5182565764042024483e-06
9.5089907932282041107e-06
9.4985409594667827217e-06
9.489358664353420391e-06
9.4786680684690988966e-06
5.6685531492782160326e-07
7.9405588666681907445e-07
9.1328716290623739652e-07
9.5983097798516108137e-07
1.0518311020869070526e-06
1.2044546174259286992e-06
1.3041603830317954059e-06
1.3567931734287629798e-06
1.4172495428454226265e-06
1.5477774463817104807e-06
1.7958877707385203307e-06
1.9715953108322615726e-06
2.0517078767473646627e-06
2.0836228828854120545e-06
2.1153703896126031892e-06
2.1794382811211961186e-06
2.3612465427727523935e-06
2.6064220697520391053e-06
2.7579748272040044502e-06
2.8350564038657863674e-06
2.9071628305426922516e-06
3.0165875842043487225e-06
3.1393255030168132135e-06
3.2287572326445795586e-06
3.2728219541438063367e-06
3.2950537917673756353e-06
3.3310600071170718614e-06
3.4220374132661154066e-06
3.5369947853126053536e-06
3.6179532239761510097e-06
3.6608122294676426103e-06
3.6869146355621525297e-06
3.7298946078260469507e-06
3.8314135160980472108e-06
4.0458402076043259592e-06
4.2786519284252083232e-06
4.4791520793858037621e-06
4.6251629431379072676e-06
4.7218376581560364549e-06
4.7816302431612791007e-06
4.8140347064966673967e-06
4.8315091340142332491e-06
4.8555089013046094892e-06
4.9133155514626843498e-06
5.0158628051464216959e-06
5.1193547570667205236e-06
5.1987891407742432614e-06
5.2428499653177270331e-06
5.2594238699010101954e-06
5.2719828577458400953e-06
5.3061978352222317949e-06
5.4052420086988371857e-06
5.6750469810880007333e-06
5.9628394909363845465e-06
6.1533099874072194935e-06
6.2487074863597207453e-06
6.2803065425311820335e-06
6.2857467270534033162e-06
6.2917556453438830793e-06
6.3133957697688304037e-06
6.3769982234888719543e-06
6.4821616774442164361e-06
6.5963591074734389652e-06
6.7070358882554516534e-06
6.7972337975781766447e-06
6.8527695576318639799e-06
6.8736503359344779639e-06
6.8775647959564495938e-06
6.8854698147674046047e-06
6.9175020663286868207e-06
7.0468911198864876379e-06
7.3670621417182262792e-06
7.6174158513216405563e-06
7.7501890229352981442e-06
7.7989846561522097306e-06
7.8065923913223984914e-06
7.8026842825544468109e-06
7.7987166442505534024e-06
7.7972074885778565941e-06
7.8039932024324982628e-06
7.8395172209635858099e-06
7.9737098569091320659e-06
8.2007671911450200877e-06
8.3675788668859536193e-06
8.4596049121971048833e-06
8.4915943316368315764e-06
8.4959932021765616488e-06
8.4982547618657770707e-06
8.5185808137822237253e-06
8.6314200357708330182e-06
8.8725206747031284011e-06
9.0446188281876557937e-06
9.1483490194015107492e-06
9.2038924249159735175e-06
9.228298869376218408e-06
9.2364603769112988638e-06
9.2428191762848503426e-06
9.2624812310918277288e-06
9.3310132906688509214e-06
9.4955291614142408089e-06
9.6346850292591049012e-06
9.7123676089413201953e-06
9.7337206233727246009e-06
9.7263558514317883868e-06
9.7047736402493350692e-06
9.6537602030320893772e-06
9.6179783059452782218e-06
9.603403609065679883e-06
9.6039801488084136015e-06
9.6616110193828269299e-06
9.9075342879567982303e-06
1.0257264976075341077e-05
1.0490109422877483177e-05
1.0609274923572635768e-05
1.0652577513513953691e-05
1.0675597287611436574e-05
1.0727104067415447425e-05
1.0887998784922539599e-05
1.1195600011981751999e-05
1.1427209032520382513e-05
1.1542519589759612199e-05
1.1567168018132880627e-05
1.1551637258094622811e-05
1.147454750948211365e-05
1.1376089281111011919e-05
1.1346963665398761688e-05
1.1359987391959032064e-05
1.1506144245140328931e-05
1.1899006883813762766e-05
1.2162700133246688168e-05
1.2269140196124670223e-05
1.2293057161095358138e-05
1.2303233029359179727e-05
1.2335525233736943486e-05
1.2410478891519101383e-05
1.2450337000938317268e-05
1.2448108275619693469e-05
1.2418939857444905606e-05
1.2296349754043405539e-05
1.209505235939093039e-05
1.1978069854242137763e-05
1.1932651971742371503e-05
1.192058523778126547e-05
1.1920263750687776393e-05
1.194867121344124246e-05
1.1990097490075889689e-05
1.2020707656523669423e-05
1.2042688248903099386e-05
1.2055416347733128958e-05
1.2057496461469280756e-05
1.2051898284231280536e-05
1.2039409719817514358e-05
1.2005111808131546021e-05
1.1940535922198352179e-05
1.1890230249421245611e-05
1.185704933975398265e-05
1.1836887512583207308e-05
1.1824023339826828522e-05
1.1815294438128571687e-05
1.1809686380563768105e-05
1.18092665447532388e-05
1.1820394743408886131e-05
1.1853187076993670012e-05
1.1892846667881931409e-05
1.1933115076766848776e-05
1.1971311705940245167e-05
1.2007663328906004432e-05
1.2042634038011711635e-05
1.2078725195003442439e-05
1.2116629748134367462e-05
1.2154756145073010556e-05
1.2190449443716852552e-05
1.2220884644034997655e-05
1.2245384965286333653e-05
1.2263836645995787237e-05
1.2279993275029317944e-05
1.2298219235708126158e-05
1.2321608767649489663e-05
1.2351917873709729109e-05
1.2387291917941996538e-05
1.2425034322313265218e-05
1.2460882619290406244e-05
1.2492090293355212211e-05
1.2517229906108276271e-05
1.2537259732526627755e-05
1.2554751511720289319e-05
1.2572631468509857855e-05
1.2594008276432145188e-05
1.2620032355592979847e-05
1.3399139103856834212e-05
1.3420571941038316019e-05
1.3438312809265048393e-05
1.3452470381177731627e-05
1.3463526353420655324e-05
1.3471734140546137072e-05
1.3477062692271595903e-05
1.3479354102300838798e-05
1.3478537401674376542e-05
1.3474827080894781161e-05
1.346876043121978032e-05
1.3461005177534933485e-05
1.3452208256607757169e-05
1.3442859628389314293e-05
1.3433133314375762145e-05
1.3423315673462133846e-05
1.3413047507419536067e-05
1.3401023439491762873e-05
1.3383226799608911181e-05
1.336014053931796006e-05
1.3337222387491955858e-05
1.3315300843149900273e-05
1.3293640915553130678e-05
1.3272525158663625298e-05
1.3251079625222924837e-05
1.3229804681799239418e-05
1.320834912833072374e-05
1.3187892351374319393e-05
1.3168417074675866954e-05
1.3150902269226273232e-05
1.3134625444535373917e-05
1.311971964887211619e-05
1.3104807890303736605e-05
1.3090025462281190655e-05
1.3074616489497067871e-05
1.3059485234022965262e-05
1.3044313523043262016e-05
1.3029944210181111349e-05
1.3015637647894790605e-05
1.3001902754140606214e-05
1.2987781676352278885e-05
1.2973741848908227004e-05
1.295890370739931222e-05
1.2944114029247399099e-05
1.2928947942380360624e-05
1.2914672510418256197e-05
1.2900744247674958301e-05
1.2887949896763349096e-05
1.2875110515639279384e-05
1.2862609257244135552e-05
1.2849160694843635158e-05
1.2835274656113821034e-05
1.281998121321154098e-05
1.2804374014647611465e-05
1.2788067735031398629e-05
1.2772570087149336064e-05
1.275749305572821894e-05