/*--------------------------------*- C++ -*----------------------------------*\
  =========                 |
  \\      /  F ield         | OpenFOAM: The Open Source CFD Toolbox
   \\    /   O peration     | Website:  https://openfoam.org
    \\  /    A nd           | Version:  12
     \\/     M anipulation  |
\*---------------------------------------------------------------------------*/
FoamFile
{
    format      ascii;
    class       volScalarField;
    location    "0.0064";
    object      k;
}
// * * * * * * * * * * * * * * * * * * * * * * * * * * * * * * * * * * * * * //

dimensions      [0 2 -2 0 0 0 0];

internalField   nonuniform List<scalar> 
75962
(
3.37449518514726016e-05
5.8637405359752079717e-05
7.390983733559403654e-05
8.5136576133630054012e-05
0.00010976880532587687713
0.00014157009340352703398
0.00016049118088666710063
0.00017048095861792335716
0.00018569318731622975983
0.0002239299629428314199
0.00029863747085983797071
0.00035555978260940645412
0.00038282187550453864421
0.00039365959840306481796
0.00040696501253525805978
0.00043974624199847076956
0.00052468714560231538742
0.00060653216530883998035
0.00066009210836066910602
0.00070362886132381335848
0.00076469591374673021294
0.00085238544684071698015
0.00094365633739206813361
0.0010086460120340265314
0.0010392081160898309061
0.0010505644052654595708
0.0010636915891753466034
0.0010977141551583209384
0.0011536021831944898424
0.0011957110942505085657
0.0012218598345427008397
0.0012483731836302421926
0.0013006097030590464073
0.0014195901457740608791
0.0015900915830586897278
0.0017659916076959592673
0.0019142274314988116241
0.0020256597532482133357
0.0021097073681320709961
0.0021719275194846997604
0.0022134878210501997102
0.0022416496471240748845
0.0022736493175326178036
0.002328258691862262076
0.0024125575830744551073
0.0025161195836865398942
0.0026166688177432259436
0.0026917161958037705803
0.0027343315630484043427
0.0027623620011172893979
0.0028100899692105989203
0.0029300507542413607893
0.0032232929657559227128
0.0035202805095536108745
0.0037246548576265713082
0.0038289380855319786814
0.0038647800240780949381
0.0038730938446523309124
0.0038805796095944837185
0.0038994495036497739404
0.0039549602647907453057
0.0040902691324968811978
0.0042544253472309783923
0.0044228106967658309054
0.004576648604047050227
0.0046920627128213404644
0.0047557097953443150384
0.0047813463893028474577
0.0048045993489903189577
0.0048622018270467644296
0.005061251091766291732
0.0054635967984934955335
0.0057736143134194724963
0.0059547128002192129675
0.0060385813474135296985
0.0060739342568397001326
0.0060939245379845593739
0.0061118771608300280496
0.0061319308268537146833
0.0061627473184281966745
0.0062243172060681009952
0.0063816221126867279934
0.0067246671317791580427
0.0070420491415518395723
0.0072415868995569874361
0.0073210046648967486496
0.0073482665867599574611
0.0073963396397050545916
0.0075570940668824634207
0.0080436554963819323349
0.0085595526967034742116
0.0089151769671273820017
0.0091345867816295476388
0.0092598435047614360144
0.0093254195220275684641
0.0093524207172303031044
0.0093587318392370794778
0.0093622559657878506173
0.0093793224769863348111
0.0094647137776582446894
0.0097392894090200434615
0.0099749257423126722055
0.01006481478585811648
0.010072072529607185853
0.010045086808355497068
0.0099353642854874274493
0.0098425728398034168648
0.0098144019040564724199
0.0098219174308540498075
0.0099060743417283235457
0.010273649792302656791
0.010937965913299542778
0.011426130967111593553
0.011702189434920169317
0.011822891963996329245
0.011905344494992796747
0.012067856750125716819
0.012519898984686542165
0.01329530965506517913
0.013929536115308146019
0.014298791213529437119
0.014423051937397103617
0.014424157257486013364
0.014333399689162345386
0.014151915017884268005
0.014103251099700014545
0.014145730615372331673
0.014458311304483743506
0.015339398783753828079
0.015988822984110983433
0.016267267403906170847
0.016328561190268944814
0.016327966021894298188
0.016325980334980824682
0.016343836417446019199
0.016368364930605713847
0.016358160081595424923
0.016265294273011845355
0.015903429944611330304
0.015517040978618218752
0.01534079531539598619
0.015305780476702229506
0.015322221390016210751
0.015424785800729600566
0.015634061059413728589
0.01576552697856589344
0.015832090919491906278
0.015856975917099499357
0.015864322476974494769
0.015863738393826275902
0.015853542865444845977
0.015804587174994309123
0.015689112720926781663
0.015588895437140568717
0.015517696018597195926
0.015473961513001545376
0.015453198895969719878
0.015445182604273932983
0.015444912146913502074
0.015454947650228237702
0.015505515744561540123
0.015665649482220562333
0.015871816351709137904
0.01605316048364572451
0.016200077460555309394
0.016305651731098179391
0.016370935632471418641
0.016404071421604011355
0.01641902117420280735
0.01643227488326425012
0.016458255376245501528
0.016523577237118978328
0.016653758166526481249
0.016788358002925891921
0.016912990883042641754
0.017028399371001243234
0.017139886253405831051
0.017259025047065331554
0.017391275287624945872
0.017538143052677059724
0.017692823628750940085
0.017842088224103696409
0.017973909548499474725
0.018073855235370781674
0.018141097939551313611
0.018178329184621786624
0.0181987203450318831
0.018219176947830734159
0.02210295613132542622
0.022200860020619939128
0.022281323153758237493
0.022344220138174577389
0.022389296522745086304
0.022418021980007023231
0.022433425041187199378
0.022440711747048890101
0.022442711797393013334
0.022442813628782202345
0.022441424143330404584
0.022438259900542295577
0.022435489408750466933
0.022432065892427424658
0.022425729774130195859
0.022411377833430973228
0.022380336807418872019
0.022345784971532934443
0.022309621401897405946
0.022274515130795074364
0.022239776038324311769
0.022207462243352255743
0.022175964113003491379
0.022146296828708337406
0.022116396448929070973
0.022088002606381513387
0.022060471466458196621
0.022036198537289785476
0.022013952821498462831
0.021994777037971591227
0.021976531666515083246
0.021960032470565580415
0.021943335835523294225
0.021927295778816257438
0.021910357218832429704
0.021893667157439504478
0.021876153990964364998
0.021859013091919347188
0.02184105109410565404
0.021823275921169258545
0.021804414831890151644
0.02178567911413461719
0.021765920467254298853
0.021746655110733745242
0.021726814503379151405
0.021708049154859136026
0.021688953492759434349
0.021670852227079775987
0.021651919161262352803
0.021633402816977925776
0.02161340624320167228
0.021593241779050312973
0.021571112214238262472
0.02154882737605327836
0.021525410444441089863
0.021503070396881231868
0.02148069009317171707
0.021459445380691468536
0.02143740628669337997
0.021415409005364077072
0.021391897984464149085
0.021368195782956327794
0.021343374924698260697
0.021319050132074541387
0.021294462839328887754
0.02127088597551916177
0.02124737075791140184
0.021224871464676005328
0.021202393789065916707
0.021180419511724200149
0.021157701014823126345
0.021134518821639799308
0.021110233931436774013
0.02108570404294207723
0.021060743005563688224
0.021036043184825905378
0.021011286267153667789
0.020987179056839201652
0.020963465778194773081
0.020940900026886911239
0.020918510897682485172
0.020896634280347554935
0.020873660669675015572
0.020850474062904567757
0.020825979852030770262
0.020801825108847739332
0.020777412505487466432
0.020754192874732058788
0.02073135445257574816
0.020709615269766473711
0.02068784789459064688
0.020666252376540638486
0.020643941439379732972
0.020621051827465541884
0.020597196888630098233
0.020572533958333506787
0.020546771090778476881
0.020520409201053448067
0.020493294456802875481
0.020466809791778606958
0.020440403442497132036
0.020415369549445030323
0.020390135550982724927
0.02036543686559032576
0.020340318665987518199
0.020315414513854376105
0.020290906622380866509
0.020266536092673322067
0.020242458129915034959
0.020217920039283548972
0.020193049518812948573
0.02016781273515195344
0.020142522100446761529
0.020117239488516687473
0.020092536076176104737
0.02006766844416048301
0.020043940200263794804
0.020019785060187450521
0.019996846955469504276
0.019973302581043062692
0.019950700206616971827
0.019927560181564826086
0.019905394864424955093
0.019882407470920394205
0.019860413204569965506
0.019836906319218916561
0.019814164382336650616
0.01978960868727893882
0.019765909609818544529
0.019740609390615726504
0.019717017692655203903
0.019691810491057816501
0.019668987162422955917
0.019644146668863462363
0.019621529960722024905
0.019597021179962759163
0.019574290780015154295
0.019549853493588838921
0.019527278116116767587
0.019503046057940173069
0.019481460583535614717
0.019458363016506625282
0.019437748202534091413
0.019415277717585530809
0.01939467976096650309
0.01937187452545386171
0.019351378895516004042
0.01932849029933163959
0.019308528215658829486
0.019286314430151829669
0.019267149448208138046
0.019245393502571081501
0.01922657611977727013
0.019204385450357894238
0.019185032382932187128
0.019162347058594007831
0.01914244809570361805
0.01911962411211575244
0.019099827808115241168
0.01907770645041547905
0.019058946202215012317
0.01903791867732222004
0.019019862819417195782
0.018998714542242490372
0.018979949866992518875
0.018957551424673823454
0.018937655820001321472
0.01891417781787946284
0.018894068039067343084
0.018870965623917230342
0.018851833157090349541
0.018829926924133311844
0.018811698526725768865
0.018789807263518806119
0.018771166313464766884
0.018748057743981264012
0.01872802967088942408
0.018704057581508497232
0.018683352220915220437
0.018659395051209538841
0.018639135390369834799
0.018615512976993202343
0.018595297023997217623
0.018571637488676170924
0.018551533078186892983
0.018528428624848894413
0.018509210834590825168
0.018487243708029382078
0.0184689762514579775
0.018447564384970333018
0.018429467093755810131
0.018407897983352870808
0.018389491066194099678
0.018367696625841242741
0.018349454055344337905
0.018327831457017301764
0.018310168670479201602
0.018288868981665297453
0.018271727743308017328
0.018250505252474364531
0.018233569023051517111
0.018211933768210893797
0.018194409857019068488
0.018172294565108149805
0.018153934175521056066
0.018131818161053244592
0.018113612307083082342
0.01809212302340575465
0.01807474667234997695
0.018053919476307099534
0.018037119776895035178
0.018016429296758899176
0.017999819411232804989
0.017979249924477271744
0.017962959303084884144
0.0179430679577866313
0.017927472238287993356
0.017908449384013123279
0.017893161031557528601
0.017874578756168841426
0.017859190117204059439
0.017840505558404166214
0.017825289333141269149
0.017806176890174801875
0.017790829423025334571
0.017771067335660691716
0.017755331339562113735
0.017735145024662401364
0.017718768377461537045
0.017698376989555904271
0.017681764089248559052
0.01766127306708548117
0.01764515853133222234
0.017625441706885409954
0.017610699930779943195
0.017592466251457560683
0.017578878831885767775
0.017562306069770834693
0.017549436926733746889
0.017532941158048005043
0.017520275316500362461
0.017502932942505215058
0.017489556461593107339
0.017471856388856805281
0.017458528699227371384
0.017441382674316413537
0.017428877281879109201
0.017412769641526611164
0.017400838363800116837
0.017385575995371431446
0.017374434637187522595
0.017359806960321480518
0.017349269177490554
0.017334630639332999913
3.5098964059308093721e-05
5.4237448819996910657e-05
6.991104758769553203e-05
8.145002333894040057e-05
0.00010519458802773559031
0.00014584986310120203259
0.00017969281347164655672
0.00019780560861222605366
0.00021153943713444250323
0.00024029246605470786988
0.00030429493602748635241
0.00035835850193514001737
0.0003846927827300410563
0.00039775033548801702436
0.00041814692667429853882
0.00046791102203429626224
0.00057555734897163780654
0.00067947035269776590201
0.00074497998167970117585
0.00077434822855723835482
0.00080650181156599750568
0.00087616635412175226678
0.00096129600174502572059
0.0010226724424957631988
0.001050789035996581907
0.001076134167705045672
0.0011210756360067991155
0.0011736612299473379688
0.001212589631838047622
0.0012347119255783972278
0.0012594432700674216153
0.0013114732203397105187
0.001399495889523395863
0.0015183928578928324298
0.0016674575012549904332
0.0018311397358023989018
0.0019828671364979810234
0.0021019719601265167072
0.0021810458349343043657
0.002227803841440649784
0.0022599677544814975559
0.0022982379511740434579
0.0023561154927404267916
0.0024381385215942828065
0.0025386768788346523139
0.0026431334956384475859
0.0027341478247461482518
0.0027978097540579866843
0.0028328156983856308225
0.0028563985713002683874
0.0028976052335723668889
0.0030008212353765588258
0.0032994468070279441875
0.0036801267077925295911
0.0039580562471111238251
0.0041110936656139039636
0.0041687676086411195805
0.004180435050990239515
0.0041818088991894776171
0.0041851888236768795826
0.004198618291988373899
0.0042452296806907525648
0.0043903133961287130194
0.0045925008227948030046
0.0047654731049863400388
0.0048909537799649849266
0.0049601767885163938407
0.0049866617106271004384
0.0050032584935427249287
0.0050402234316811490855
0.0051652285681324152516
0.0055331035678536297229
0.0059123265248264937621
0.0061614832956538891084
0.0062976456999852513385
0.0063607477244751508064
0.0063891558199175519164
0.006405611438682589677
0.0064204092782679609425
0.0064442845030469658382
0.006495925885569717867
0.0066370513450854989532
0.0070087652628916989953
0.0074007220792002585338
0.0076612872766554868456
0.0077777658497825497355
0.0078114289835294432526
0.0078432160857794634701
0.0079356998399176380959
0.0082597451053229211521
0.0087564500657289733032
0.0091340877826085725005
0.0093858199303619455761
0.0095368152342866375354
0.0096155979446634117641
0.0096473378342368503596
0.0096572315213865334016
0.0096673026582423157022
0.0096975590011467022178
0.0098105059864655626278
0.01012096205375496126
0.010381030577861882769
0.010502630904608919668
0.010526884249077066505
0.01051704553865496182
0.010454170046361675392
0.010362851457177472275
0.010325602559612795037
0.010325008442946467802
0.010370416868000838229
0.010613081148753351554
0.011305962090282541121
0.011920535104164608695
0.012270434679683120752
0.012428599464766782595
0.01254647658589856489
0.012783332330305706079
0.01335169128992302022
0.014035744189274975205
0.014594594343848646401
0.014920861058160060642
0.015026882074632872885
0.015023228541352828466
0.01492071608757173859
0.014733937309739326971
0.014685637104542317161
0.014731802630841523555
0.015067022801029656895
0.016005451069308288675
0.016686741387563593791
0.016977588953146487138
0.017059646214169953832
0.017122018008640698533
0.017269835917211453363
0.017444559292806915973
0.017529880393546824757
0.017531777596940977676
0.01745777741130943167
0.017104531407364797352
0.016643253843774314521
0.016424447847168909681
0.016376220874474552158
0.016391759442395559959
0.016496660116162350368
0.016696392615604249005
0.016811623867470495974
0.016860056507905160639
0.01687488862452186239
0.016876455547777575311
0.016871217464340962366
0.016839680842724732979
0.016730258421967576787
0.016597494835068574148
0.016499912767403021596
0.016436774365202459769
0.016402161432916392142
0.016387159266725830759
0.01638203682559187177
0.016383005602782569482
0.016396828844557970878
0.016460399750530291252
0.016641251492875389073
0.016830229599992231615
0.016973823800870885964
0.017068992593712608435
0.017120744999128190145
0.017145053222205924176
0.017164555064758203751
0.01720062134246069796
0.017275628001770817338
0.01737747614551126904
0.017493961680734956832
0.017612974560977785049
0.017726131182282167664
0.01782977030778710309
0.017929439443070970678
0.018034623464992599606
0.018156942306135070986
0.01830118103086453285
0.018465129095099886564
0.018637872099798696857
0.018804223526983465664
0.018948429734411083303
0.019059811738368716283
0.019135579924767973786
0.019179371035041761773
0.019200261784596640846
0.019210996492625191656
0.019223526480570369418
0.023169168483854803847
0.023287408514972171569
0.023389976708909819558
0.023475076971337941606
0.023542411945039854598
0.023592062815664074926
0.02362539582609453348
0.023644476376933343253
0.023653911907214074384
0.023657921644566794195
0.023658440419498584506
0.023657829431369712531
0.023655824915258309021
0.02365315093426070131
0.023649043937800606069
0.023640668439398482975
0.023619597290632638603
0.02358125122153191533
0.023540756307237075545
0.023500121284980707986
0.02346080766646782903
0.023423028983389163754
0.023387303084572947515
0.0233530369628718662
0.023320172803153363383
0.023288134833051143957
0.023257396030782775259
0.023228382979089193944
0.023201984638330605537
0.023178187383126692966
0.023156874005412449169
0.023137143454165971096
0.023118414269946718081
0.023099758387147405897
0.023080990229645870909
0.023061841410876051522
0.02304263586876019454
0.023023343978368835533
0.023004096937889538521
0.022984758083650535382
0.022965274726722766097
0.022945460956501562838
0.022925283511767768213
0.022904695845329475778
0.022884155319743710449
0.022863981037371701455
0.022844572101267595493
0.022825635922793328231
0.022806907711647568526
0.022787819845469656915
0.022768206838585151874
0.022747613637358599786
0.022725936207327913918
0.022702925374353588595
0.022679108306840684711
0.022655037675223033133
0.022631595746062674324
0.022609022855876646785
0.022587039649316614093
0.022565026850609477133
0.02254212544211670749
0.022517997527793712914
0.022492497086225759356
0.022466210027003722521
0.022439682945992110025
0.022413655664333089618
0.022388236020751271088
0.022363612328754303021
0.022339383247869607635
0.022315559730475782729
0.022291470438603053911
0.022267074548026007802
0.022241794512290566366
0.022216132744085632933
0.022189858595367827759
0.022163808802308671009
0.022137693952528372104
0.022112271876240673085
0.022087195937269543666
0.022062993277906981643
0.022039106797994371251
0.02201559763779514442
0.021991795056575020456
0.0219675358296962768
0.02194254176018341565
0.021916943410530131953
0.021890937090243381413
0.021865304604650127179
0.021840291386957304265
0.021816537605152865748
0.021793335523177196494
0.02177081018723072553
0.021747729588080962765
0.021724587733685185587
0.021700272896005269596
0.021675575717800179415
0.021649453065138830887
0.021622684781815729865
0.021594789275981934873
0.02156675810876112348
0.021538722528298630265
0.02151139431140245209
0.021484610956941100485
0.021458439743320720239
0.021432142832568720076
0.021406282508268953402
0.021379866731154044401
0.021354441392682090017
0.021328361003135825474
0.02130317035304092263
0.021276814718915380148
0.021250881072662913124
0.021223952988904566663
0.021197986198153828674
0.021171549304024296634
0.021146575511895682881
0.021120726121619588789
0.021096571294477662467
0.02107110019984171842
0.021047455230368085355
0.021022307275168603674
0.020998753093655755236
0.02097383548962385505
0.020950645894360499233
0.020926064546395159449
0.020903119249903356208
0.020877973826679926961
0.020854104396022130063
0.020827577354859339726
0.02080270461373790597
0.020775486550161145066
0.0207508553593783035
0.020723953799146568183
0.020700097378706920626
0.020673647872913990947
0.02065014809238243168
0.020624168131694046308
0.020600821881384016182
0.020574989459036668177
0.020551774627046878047
0.020526099487929123227
0.020503693261545798826
0.020479095685268101923
0.020457690785518314186
0.020433804610944336644
0.020412451096785941967
0.020388062154410815929
0.020366592208649333257
0.020342040631741293427
0.020321153046328789549
0.020297411054828410487
0.02027746268247609257
0.020254244730912970146
0.020234672944527964944
0.020211086543703227908
0.020191149973117949318
0.020167304929373072037
0.020146980486349833767
0.020123005485724751451
0.020102741135792464439
0.020079126614032886261
0.020059643426505676528
0.020036873449539714664
0.020017928759006695105
0.019995137118057244169
0.019975581562454408635
0.019951672472738091885
0.019931083751206803839
0.019906227097041141044
0.019885627998220842261
0.01986127360112396531
0.019841808575215297977
0.019818643057911065203
0.019799815256106096523
0.019776400920879202289
0.019756804692877910634
0.019732021887412534711
0.019711089201718996755
0.019685429723994913448
0.019663864320211735248
0.01963813504856576006
0.019616889802954954464
0.019591495730570999967
0.019570406339055133188
0.019544966570579171139
0.019523983150168431472
0.019499017194464722535
0.019479095039046673971
0.019455486171992900091
0.019436719307542628388
0.019413920099754101989
0.019395271920395636828
0.019371969300697559901
0.019352715964966460405
0.019328888476867738672
0.019309587664958303282
0.019285961039926014654
0.019267310912345035623
0.019244212945415600097
0.019226298732768064281
0.019203481440717862921
0.019185782479851063581
0.01916252419800197615
0.019144107431784351814
0.019120151855663417018
0.019100841747107629581
0.019076801319931890877
0.019057847475894711814
0.019034673357894920515
0.019016939081855657734
0.018994914507835518325
0.018978050391279185916
0.018956193837317041745
0.01893924398095634884
0.018917112023631749151
0.018900026461496532287
0.018878138316222287107
0.018861640045241944569
0.018840721429259497249
0.018824816229816087459
0.018804384944649379929
0.018788477273895154429
0.018767958065135460777
0.018751973843020984523
0.018731038584097921273
0.018715081411823701607
0.018693784140883917128
0.018677610350266993233
0.018656000615919710039
0.018639252430667968552
0.018617218121432820011
0.018599872334906338706
0.01857761520855024176
0.018560695326674800376
0.018539170662178004051
0.018523660838326461153
0.018503677930804238866
0.018489387652180840071
0.01847084843283114744
0.01845733577137615572
0.018439073574978565029
0.018425689734919408619
0.018406543062150781953
0.018392392147947047437
0.018372820659818871192
0.018358712993716892747
0.018339745549042333478
0.018326586244488185518
0.018308878134123938303
0.018296383242559950688
0.018279570395094882351
0.018267802267150318879
0.018251443644795681265
0.018240193383717896031
0.018223631253231110244
3.1803791744293811192e-05
6.250977599384979213e-05
8.3196996080353975917e-05
9.2167071655639104901e-05
0.00011080225198777821918
0.00014570500842062825077
0.00017111912640155451932
0.00018503212153229349241
0.00020171321248727027667
0.00024083652243422172057
0.00032488823663908881437
0.00039223094965980736604
0.00042525871074429298256
0.00043879612696916801308
0.00045267513356361918815
0.00048198246474216613171
0.00056773553988194707526
0.00069318808879642124319
0.00077663151028707459733
0.00082151074793944964605
0.00086499337855630868601
0.00093232714015964392087
0.0010110253675762884487
0.0010712418268859387471
0.001102341121422480098
0.0011186527992461893413
0.0011445185324398122594
0.0012094458487921539314
0.0012941157936517859797
0.0013564696300913908593
0.0013917928459913342636
0.0014150172849948139571
0.0014510324375555491878
0.0015328450135034046853
0.0017103894522598711396
0.0019148289401629103434
0.0021023592087012097848
0.0022478218955925533505
0.0023500623991042001934
0.0024166246172320849164
0.0024544801367987075479
0.0024757297330050159236
0.0025027554872413225462
0.002564364277805214129
0.0026739742927546889494
0.002787544108806869203
0.0028788291892949788471
0.0029347463285354369322
0.0029618012596962081315
0.002983345630118191226
0.0030265651092626355556
0.0031422660685122122924
0.0034656610922436017347
0.0038323925635208567174
0.0040910253652541271607
0.0042296133592454581568
0.004282189831525879016
0.0042981612910409482814
0.0043136183409575607622
0.0043483198982060405902
0.0044389492771190596637
0.0045885031250266113123
0.004754644122107422842
0.0049209465939634234113
0.0050626341141820057484
0.0051561893269297187983
0.0051977383380285430148
0.005210907946649807887
0.0052268959072637455332
0.0052780750817075904741
0.0054803533259275144518
0.0059970552978686145901
0.0064252044675209181446
0.0066672942536605541916
0.0067666548090617719899
0.0067917346460487828391
0.0067935315949650834991
0.006792765594831740375
0.0067949468105316284186
0.0068117216937445832295
0.0068810157150082313163
0.0071295824211213641025
0.0075578658926651444763
0.0078858112493873887272
0.0080730324190764531783
0.0081398111365765975223
0.0081490390065788176344
0.0081552337652614406011
0.0082027870428332972513
0.0084376734183269647832
0.0089383186162367029431
0.0093105605639312895294
0.0095413024929447264738
0.009667467814201602741
0.0097265377572861230759
0.0097526102452787349212
0.0097768335307470352613
0.0098294773209728208974
0.0099842412496758455726
0.010346627138870483423
0.010661060693071731931
0.010846538014897398605
0.010911141012655603197
0.010913175507033325701
0.010883699948784835571
0.010788476863995739505
0.01072831337427051189
0.010716625870483132213
0.010738467604287755056
0.010886526399404969703
0.011464181345467103212
0.012305996925787692636
0.012888271681819982173
0.013198824948188645281
0.013322409929362741612
0.013395552453759730985
0.013539884264141504103
0.013961407273453687108
0.014774794829900829429
0.015407360401867648686
0.015736497366849917096
0.015821383268223340735
0.015796907506616632982
0.015606087591731716835
0.015359138789071797096
0.015303799464648489698
0.015365856343468414086
0.015791766636627891512
0.0169191763609022848
0.017707537027161865395
0.018040967022978523365
0.018125700808640732298
0.018166192882316876955
0.018273355435646197742
0.018512914473411121175
0.018654309876848490513
0.018672572523796174965
0.018611940307829477614
0.018275664917622575639
0.017710862614828470213
0.017399264907477521303
0.017297050850197920324
0.01729034136763399343
0.017315215562760413043
0.017421036787383291367
0.017563057804383344629
0.017670995079454892424
0.017751544549382585608
0.017804742252826816912
0.017828359029366240562
0.017833114626204342457
0.017822267654643349222
0.017752629441673790228
0.017598112044618752225
0.017488764755235332998
0.017429976420131776393
0.017406288042914889319
0.017399121115743463456
0.017398470777268595922
0.017401402403615762182
0.017414617136252145274
0.017457044923281692106
0.017558734545606888983
0.01767639232206640737
0.01779194797850813109
0.017899193413216937104
0.018001885757200589144
0.018105168250833469923
0.018219616562085282074
0.018348308246831125656
0.018484945916046366388
0.018618215013214055309
0.018736133158422162842
0.018834759500541330135
0.018914123829497454798
0.018987478092285171166
0.019069701620931182873
0.019170537555060266494
0.019294559295781062158
0.019435376901768129654
0.019584991596333277408
0.019730896069688634575
0.019864614883242977944
0.019980567125690212871
0.020079856612201064242
0.020168956065909290215
0.020256422828705336614
0.020352564613470115057
0.020462244924212568548
0.024341633089947568164
0.024454995821306724224
0.024556186326822708466
0.024644205937300833059
0.024719500535550342074
0.024782518977614947236
0.024833671599889427933
0.024873349391619573034
0.024902256311615522666
0.024921669120476101777
0.024933590501787256111
0.024940158758586544741
0.024943355776365184334
0.02494453847774600122
0.024944038451213297602
0.024942747810838768879
0.024939290632974779605
0.02492890070663423413
0.024896771887581062299
0.02484452842694283986
0.024792538285941495557
0.024744032892573344234
0.024696894650487490747
0.024653171810638526557
0.024610554339094928983
0.024571249369811774821
0.024533166896221824532
0.02449885513725951619
0.024466249213962957404
0.024437715632794083237
0.02441061458382725799
0.024386768300848824659
0.024362861858796002607
0.024340584906306778068
0.024317168651800592782
0.02429510907822704513
0.024272109213336258426
0.024250650864129412454
0.024228068096416421895
0.024206934998832779771
0.02418460955272028895
0.02416362760917049532
0.024141020900750216616
0.024119577140910668234
0.024096756368818486593
0.024076085894746943744
0.024054631219702166112
0.024035192897675944357
0.024014107609678470717
0.023994145706505334847
0.023971957723505788601
0.023950461783717767045
0.023926138741890642242
0.0239022341231560978
0.023875902411377870199
0.023851264587212508278
0.023825801152572854275
0.023803115633578852267
0.023779560445084110126
0.023757687557936956607
0.023733305176927801949
0.023709084027428276725
0.023681661421966423292
0.023654605554916982579
0.023625622325079479596
0.023598464872015962462
0.023570597196612530499
0.023545020954728542589
0.023518525511329730487
0.023493533637288448179
0.023466727064063629127
0.023440668011390549536
0.023412585988134344828
0.02338567135113170728
0.023357277189965337805
0.023330646900455540016
0.023302916152948788958
0.023277367287211296609
0.023250889496103523124
0.023226447499670087316
0.023200530633492508908
0.023175961761726860538
0.023149527640507327336
0.023124243688185872059
0.023096828737670202503
0.023070232016282370829
0.023041669098079656242
0.02301469873455424045
0.022987220387478194544
0.022962346760470243867
0.022936953622966417543
0.022913330633967672612
0.022888139526656577777
0.022863962488587272898
0.022837779224848253623
0.022812266655170495427
0.022784284954877422058
0.022756990237418877471
0.022727253121944099995
0.022699235900812658739
0.022669090397394037195
0.022641808893243593054
0.022612358619678064875
0.022586063736809530028
0.022557345254735634843
0.022531248258662154443
0.02250275914587832049
0.022476511787259699504
0.022448235584307484752
0.022421932081619445898
0.022393249344695644043
0.022366544790727652114
0.022337304201033556655
0.022311209341964222813
0.0222829793707360925
0.022258375917324834531
0.022231157229745276277
0.022207058566773206498
0.022179979430416576353
0.022156031962745108971
0.022128746660627172244
0.022104751331645799972
0.022077161508070031887
0.022053244594732440004
0.022026065366045562838
0.02200221261495340086
0.021974717080648804857
0.021949975671357691703
0.021921013437509778016
0.021895509745316201616
0.02186579141064141224
0.021840536342759828137
0.021811262322183090634
0.021786555590748275801
0.021758117860083341782
0.021734200728974046452
0.021706488050162498632