/*--------------------------------*- C++ -*----------------------------------*\
  =========                 |
  \\      /  F ield         | OpenFOAM: The Open Source CFD Toolbox
   \\    /   O peration     | Website:  https://openfoam.org
    \\  /    A nd           | Version:  12
     \\/     M anipulation  |
\*---------------------------------------------------------------------------*/
FoamFile
{
    format      ascii;
    class       volScalarField;
    location    "0.0064";
    object      k_0;
}
// * * * * * * * * * * * * * * * * * * * * * * * * * * * * * * * * * * * * * //

dimensions      [0 2 -2 0 0 0 0];

internalField   nonuniform List<scalar> 
75962
(
3.3753758785607446472e-05
5.864805739416692514e-05
7.3898608624370847953e-05
8.5127659154679027019e-05
0.00010979083963699020211
0.00014157145494456216958
0.00016044456355175133679
0.00017043445851485958622
0.00018568115492316320577
0.00022403245173083596409
0.00029874273613651167224
0.00035557574360487717363
0.00038275562460340467304
0.00039356838761945862198
0.00040689983998918287378
0.00043977652357196590554
0.00052482772045292654627
0.00060656729772070748421
0.0006600538159937300144
0.00070360523862068391834
0.00076475882406883263429
0.00085250033261932841536
0.00094372021265639823885
0.0010085988618738109084
0.0010390689261871148292
0.001050397490266864655
0.0010635532682068335464
0.001097673027433564933
0.0011535526837575438199
0.0011955992982262170395
0.0012217098862878058088
0.0012482631670880785062
0.0013006352785594169248
0.0014198688596875818843
0.0015904439098946871346
0.0017662979481020740693
0.0019143976004556775578
0.0020256876704244251505
0.002109633834137553815
0.0021717926114326272652
0.0022133146830460512233
0.0022414667639949177949
0.0022735077615512800688
0.0023282028542880878891
0.0024125832085090813568
0.0025161703414127711831
0.0026166617551240697707
0.0026915961960614913535
0.0027341248310324959593
0.002762171182867453282
0.0028100288694669459284
0.0029304123265173095784
0.0032240836546673073276
0.0035207927297910548634
0.0037247970041962008558
0.0038287761335476654286
0.0038644658419649900033
0.0038727522222042351854
0.003880260619593061712
0.0038991917360674164215
0.0039549023412889386733
0.0040904400261274984768
0.0042546084856573259877
0.0044229729836367933857
0.0045767058146837791277
0.0046919469859324752087
0.0047554340178597121966
0.0047810127475184458629
0.0048043207621163179152
0.0048621398581956609339
0.0050620674006164392833
0.0054644454548204391894
0.0057740386009885241378
0.0059547168369639630683
0.006038334825037258366
0.0060736030881256156469
0.0060935878077040183873
0.0061115519527879906547
0.0061316206402033963246
0.0061624876243963665548
0.0062242036484918810552
0.006382084229511447715
0.0067254403065874950388
0.0070424831006818417595
0.0072415680337453106757
0.0073206856921646931355
0.0073479340522947843642
0.0073961723637546222462
0.0075576653259648608751
0.0080453192843506458887
0.0085606666888155182743
0.0089157530060226808377
0.0091347440754900536414
0.0092597107145634960368
0.0093250855326216623709
0.0093519600042501326714
0.0093582307359263410679
0.0093617862022844881842
0.0093789799581901062142
0.0094648249189012122196
0.0097399096695776135602
0.0099749564257741868412
0.010064407749409028797
0.010071525452647564838
0.010044363811466207326
0.0099343960348567475482
0.0098418839708915573095
0.0098139111225570129643
0.0098215565926740924785
0.0099062444034330055659
0.010275465902732273601
0.010939593688218136186
0.011426998842841099707
0.011702351404575291396
0.011822695978007257897
0.011905253966600531576
0.012068255762750475582
0.01252195158386512977
0.013297456536227507742
0.013930876298732772917
0.014299130687202734127
0.014422691627545744172
0.014423597736291803376
0.014332196159052438059
0.0141510131826864307
0.014102711979850603846
0.014145580559032313109
0.014460003650559702382
0.015342185267531583195
0.015989931726097719039
0.016267271885721263508
0.016328086536336949147
0.016327394674623799814
0.016325370095474245336
0.016343271830913060072
0.016367686124453332402
0.016357379779888908677
0.01626399766930512053
0.015901127643049215582
0.015515524696662943635
0.015340013122456945191
0.015305350185423621454
0.015321954991296902679
0.015425073256252589543
0.015634216851969758022
0.015765362243708360562
0.015831717638422337924
0.015856512132238001489
0.01586383859372507768
0.015863252012816249359
0.015852992458306312817
0.015803770095780718397
0.015688184732974098934
0.015588083758293817468
0.01551698112039660328
0.01547332213982945473
0.015452602682170342094
0.015444608499252901468
0.015444350643708623649
0.015454475345509820911
0.015505338642137076605
0.01566596431525262359
0.015872060427160151336
0.01605329492794438026
0.016200076778548698486
0.016305509057787968136
0.016370669068734116508
0.016403722074909424938
0.016418642521065063278
0.016431922647087131989
0.016457975789244724818
0.016523550111381270222
0.01665382629684540941
0.016788396793096134474
0.016912976061131086009
0.017028350413769276911
0.017139849665373897009
0.017259050286986005879
0.017391388078793632022
0.017538336638270098089
0.017693051711762643186
0.01784228624968869914
0.01797400716362577977
0.018073807364480585363
0.018140902788719416583
0.018178024856722253128
0.018198382446021531267
0.018218889129017448031
0.022102980667592624781
0.022200829191759387932
0.022281243988837875353
0.022344089536209962854
0.02238910395370509801
0.0224177640362907514
0.02243311367108000165
0.022440367217827751622
0.022442352587349383153
0.022442452307484952317
0.022441049950763333753
0.022437880626105952131
0.022435108196346788267
0.022431679768495096927
0.02242533343573938423
0.022410938491860744881
0.022379862379718437615
0.02234532038345393018
0.022309171339005621354
0.022274080583674960715
0.022239350640251308311
0.02220703363110879125
0.022175515569926092241
0.022145816986780392233
0.022115890146089528523
0.022087493052697960288
0.02205999170356445771
0.022035774824410794132
0.022013590740589741857
0.021994463336973340412
0.021976244912402225634
0.021959753083190862444
0.021943050667800355347
0.021926999244352356894
0.021910046680718681805
0.021893339649791735552
0.021875805927906690623
0.021858643337591309591
0.02184066220152479712
0.021822872359190483016
0.021804001570648490205
0.021785260284900610783
0.021765500887331735991
0.021746241499282337184
0.021726416107180863274
0.021707674914934575738
0.021688607165775621033
0.021670528100586318454
0.021651602805248741646
0.021633075636525989777
0.021613051459560800316
0.021592849953928846402
0.021570686804712295437
0.021548385426621102789
0.02152497608698257861
0.021502664311704052652
0.021480319043470329221
0.021459100237240097409
0.021437066456798908876
0.021415050894133105808
0.021391502655406638422
0.021367758694830957245
0.021342909491259429156
0.021318582462833256946
0.021294020637405937368
0.021270487588075228519
0.021247018387916413729
0.02122455329297655291
0.021202090546606898458
0.021180112595564411226
0.021157376187983582133
0.021134170673608624474
0.021109864228012222703
0.021085319319182723591
0.021060351308707724038
0.021035653091000035275
0.021010907362364803636
0.020986818730054170729
0.020963129201128964663
0.020940585848414107473
0.020918208994495680886
0.020896328889023776942
0.020873338575923737481
0.020850129203926610205
0.020825617874592566164
0.020801463131374708926
0.020777071825530627619
0.020753890501424031301
0.020731096196480752747
0.020709394053682106396
0.020687644984002623999
0.020666043704775743234
0.020643702947532323322
0.020620767345663135184
0.020596861753225170766
0.020572156317546590881
0.020546368745453284788
0.020520001876596527524
0.020492899093822951329
0.020466434045408349318
0.020440047457614528986
0.020415027189530730173
0.020389799565017002053
0.020365104294064066692
0.020339988770818863417
0.020315089886156025012
0.020290585725595368383
0.020266215122165941176
0.020242130872894007615
0.020217580859814756472
0.020192697671062832809
0.02016745184690294998
0.020142159210754760623
0.020116883227069174561
0.020092191761772452974
0.020067340429295144055
0.020043628301601536246
0.020019488021128500205
0.019996562346429214152
0.01997302728749377268
0.019950431423366114109
0.019927293829163920252
0.01990512472615052833
0.019882127997193181634
0.019860117789654945647
0.019836591686928282258
0.019813830072676553301
0.019789258226284810877
0.019765548235258154075
0.019740243620874325242
0.019716650925697049024
0.019691445171775685818
0.019668621525463021033
0.019643778053643503462
0.019621157477185107582
0.01959664290987746943
0.019573908190824284431
0.019549468478042241609
0.019526894775485408029
0.01950267003118190054
0.019481097096442866884
0.019458013901592012551
0.019437412540287468676
0.019414952195690480391
0.019394358798466768828
0.019371551838516371663
0.019351047359783508234
0.01932814858679659728
0.019308178183474591916
0.019285960382914441036
0.019266794534383378107
0.019245040107652901934
0.019226221780173330389
0.019204026145034584078
0.019184664900303294299
0.019161969257790425342
0.019142062993352630673
0.019119237257634237592
0.019099448228396691957
0.019077341451805333861
0.019058598560582947629
0.019037583481683821585
0.019019529474033590455
0.018998371490928513128
0.018979586443853575101
0.018957164002646340051
0.018937248597525081772
0.018913764549587964992
0.018893665111246526339
0.018870587015093916866
0.018851485303137190119
0.018829605884611255034
0.018811390030572614634
0.018789495673872530501
0.018770835385500339587
0.018747698116066715407
0.018727641747819257639
0.018703647926635830895
0.018682933219882118248
0.018658978901759118441
0.01863873002926294889
0.018615120752216086919
0.018594916304212220914
0.018571265371588169951
0.018551167309233250469
0.018528068431735298521
0.018508856847217727143
0.018486895791755924429
0.018468634095777165111
0.018447227193162024639
0.01842913333816484367
0.018407566193401989074
0.018389160640032972682
0.018367368294763524589
0.01834912887804946921
0.018327511784384617477
0.018309854807129523346
0.018288561160000649936
0.018271422684673608444
0.018250199309430961692
0.018233255309353862267
0.018211607042678500806
0.018194066994098090362
0.018171933293953505123
0.018153558508942534144
0.018131432522034397758
0.018113224050948447535
0.018091738774076264462
0.018074371618075030926
0.018053556305546492738
0.018036768018090273968
0.018016088972691465114
0.017999489963710344625
0.017978931617284032995
0.017962653245050762968
0.017942774385187595237
0.017927191555522459937
0.017908178363387424609
0.017892896767207143449
0.017874315475358112243
0.017858923235003137248
0.017840231289439636986
0.017825002578586667673
0.017805876139128862939
0.017790512634344151505
0.017770735392062649016
0.017754985995110651037
0.017734787600946183561
0.017718401364360227696
0.017698002357186066319
0.017681385854169982125
0.017660897170499824382
0.017644791362718677957
0.017625090024940670563
0.017610366845326207164
0.017592150991457885384
0.017578581302835905031
0.017562019474385053702
0.017549153729548155889
0.017532655333431880484
0.017519978910357777296
0.017502624553205933799
0.017489239255679894097
0.017471535944454965467
0.017458211415814040707
0.01744107318452636432
0.017428579359026231954
0.017412482869737389707
0.017400561910778624547
0.017385305183042498028
0.017374163822251407346
0.01735953180583854269
0.017348985053398411488
0.017334334965476930895
3.5123900399520779957e-05
5.4244110390029031429e-05
6.9894548501088521074e-05
8.143735276080973928e-05
0.00010521162089089008604
0.00014587311751514974215
0.00017968544785740181067
0.00019776053439062152013
0.00021150897710020232488
0.00024033470828605668374
0.00030438525022044300543
0.0003583647266588119119
0.00038462796114755240517
0.00039767795557245014118
0.00041811485391519211162
0.00046801679594655635824
0.00057574137474159122179
0.00067956284868086818621
0.00074493699465972217869
0.00077423579788656363924
0.00080645197343801879823
0.00087623767545278938296
0.00096133897206602473683
0.0010226118572675794993
0.0010506634212767529228
0.0010760337988209248833
0.0011210232109481626551
0.0011736012442546378109
0.0012124768345191754264
0.0012345686486342427948
0.0012593348509528016869
0.0013114712570497064244
0.0013996011769445751947
0.0015186043434816587014
0.0016677420950471253877
0.0018314098993377689577
0.0019830249276371666317
0.0021019666006112003483
0.0021809070515323492924
0.0022276051074841128792
0.0022597773258831335523
0.0022980992802980864526
0.0023560483775036458742
0.0024381435197321039629
0.0025387214848617118378
0.0026431607263439948
0.0027340952207211941145
0.0027976460366629239858
0.002832575601333077453
0.0028561768211694529493
0.0028974982555282544593
0.0030010780590401841053
0.0033004452287220503552
0.0036808832068608858708
0.0039583700689277715942
0.0041110137130486428675
0.0041684621695546519513
0.0041800528820555406598
0.0041814196261664438037
0.0041848109272655444751
0.0041982991957683537393
0.0042451058267413809694
0.0043906075603676675626
0.0045927460716710787753
0.0047655693862684563381
0.0048908552866870121795
0.0049599055110083854758
0.004986314201502157345
0.0050029385769270106818
0.0050400250517595810568
0.0051655729368679497576
0.0055341947785464782467
0.0059129728515676504425
0.0061616895123308120311
0.0062975378325097934942
0.0063604712948162256056
0.0063888061376782467535
0.0064052334296956781046
0.0064200328176368306327
0.0064439545416052823254
0.0064957504422682842832
0.0066374166828362174061
0.0070098144989057479398
0.007401382861439208781
0.0076614305971132792838
0.0077775039400083938873
0.0078110432131362761421
0.0078429160293850518071
0.0079357913312258689803
0.0082609994922544314339
0.0087575375111344049006
0.0091347384922035642502
0.0093860679810919937782
0.0095367415244022157167
0.0096152846581635201956
0.0096468802772665240147
0.0096567439481254919303
0.009666871075059695062
0.0096972965397548148425
0.0098107728537113296496
0.010121659783312553574
0.010381159586482724411
0.010502293202672593336
0.010526335085252415749
0.010516409670516858182
0.010453267187476295366
0.010362096353353524719
0.010325037110233605681
0.010324531834061559041
0.010370287780654321302
0.010614240619732318027
0.011308263705116580397
0.011921782284480070269
0.012270804186856587234
0.012428527368009480505
0.012546566288286374255
0.012784133854793601828
0.013353710075648211192
0.014037548935389937768
0.014595679235665817014
0.014921041111020685171
0.015026440655135928429
0.015022609831992319793
0.014919463960817938228
0.01473302285831225994
0.01468508908197291643
0.014731660875678915384
0.015068865722119743206
0.016008441246674113417
0.016687949120963951194
0.01697766382410453162
0.017059321069069790372
0.017121788776973644042
0.017269866531611891697
0.017444329416702094443
0.017529248834223493114
0.017530989385912531392
0.017456500241706980614
0.017101978728171679522
0.016641472780449147184
0.01642353068926856105
0.016375726368344025591
0.016391423925875749784
0.016496861628679325429
0.016696402845899915163
0.016811318211327676286
0.016859581999012395598
0.016874369787201522891
0.016875950378286229403
0.016870695157444454831
0.016838981782294430017
0.01672921673545297791
0.016596559589953516906
0.016499100694279386636
0.01643606488355341122
0.016401524523077356393
0.016386561552182571377
0.01638145746465932695
0.016382441787461388821
0.016396366488830717983
0.016460289331022639331
0.016641541968484295511
0.01683035490151549296
0.016973785296338160522
0.017068799542021968058
0.017120435500054424771
0.017144691352169866283
0.01716421205427222374
0.01720036885295901305
0.017275498099387071732
0.017377407851309936704
0.017493922065793424819
0.017612933562468614107
0.017726068865533239904
0.017829684685136362732
0.017929352139025314661
0.01803457700410859843
0.018156982181509618429
0.018301327773139076244
0.018465362321340581669
0.01863813149244229056
0.0188044292757424715
0.018948512537991766408
0.019059738824340720365
0.019135359531857826232
0.019179043468155888841
0.019199885295008770753
0.019210628535719361659
0.01922321057733520841
0.023169255000247732101
0.023287425829231041957
0.023389936701501148897
0.023474990195165378049
0.023542278744757397929
0.023591873654738672317
0.023625140635677013834
0.023644157969947586506
0.023653547330798198323
0.023657530003906683536
0.023658038383218775447
0.023657422568759522985
0.023655414942367451042
0.023652744193667904482
0.023648634123739967899
0.023640241191459816089
0.02361909656836414656
0.023580728391516817682
0.023540238892040026703
0.023499617705403586659
0.023460320334982461693
0.023422554097067168483
0.023386829018096362554
0.023352548717097992848
0.023319660334487166131
0.023287600926267304491
0.023256861455684004619
0.023227879364596311362
0.023201536719174097045
0.023177800170404192631
0.02315653269203578335
0.023136822707428519874
0.023118090163014720639
0.023099417160499950696
0.023080630317572882471
0.023061468187207317254
0.023042254307599242813
0.023022955651029464175
0.023003700756796557902
0.022984351954270190732
0.022964856328407182162
0.022945029119675622309
0.022924839741163754309
0.022904247196680122683
0.022883714235172970819
0.02286356186544331523
0.022844183726016677877
0.022825277314764622072
0.022806567230477043512
0.022787478976440667805
0.022767845769218083424
0.022747218581000108739
0.022725504487310643764
0.02270246794590976766
0.022678646738227774271
0.022654596037527112429
0.022631190348692358655
0.022608653919437980001
0.022586691952690359647
0.022564674316120584413
0.022541740231944978196
0.022517562376576528288
0.022492013662221619491
0.022465699344446036362
0.02243917823925728125
0.022413187500396353907
0.022387819747875469661
0.022363245358858009626
0.0223390488433611277
0.022315235225236845773
0.022291135677464865572
0.022266717525382600379
0.022241412776511811783
0.022215731619861983637
0.02218944674330419059
0.022163396135770303125
0.022137289332383319751
0.022111883416353936282
0.022086829778934943119
0.022062651739342385021
0.022038785394691451369
0.02201528449878275423
0.021991474046459898867
0.02196719424708142715
0.0219421753466277486
0.02191655912396331049
0.021890553204923595548
0.021864944176936358666
0.021839972440772858348
0.021816264730576729464
0.021793099257393259288
0.021770589632992401463
0.021747500460803006334
0.02172432869889990778
0.021699970755942755291
0.021675227973380752772
0.021649067756181385874
0.021622277601036615086
0.021594376667681044329
0.021566353655818725626
0.021538332395220169402
0.021511018990066282236
0.021484247283842218545
0.021458083478923851289
0.021431792150839734656
0.021405935549140431978
0.021379523615931084884
0.021354099673440200824
0.021328016968368973538
0.0213028198263932253
0.021276455216530321124
0.021250514627862787664
0.021223585131161713108
0.021197623942191681085
0.021171199267862945287
0.021146240277856980655
0.021120406828357633777
0.021096264882423890891
0.021070803568590749932
0.021047164817490207622
0.02102201994323951717
0.0209984669062724498
0.020973547572107811149
0.020950352480925697046
0.02092576105523573024
0.020902799877207001167
0.020877635265359916622
0.020853745571712462015
0.02082720122228193943
0.020802316148123022044
0.020775092597401411537
0.020750459994414213044
0.020723560619235043695
0.020699706328804585997
0.020673258717560261122
0.020649761245907977125
0.02062378290670030534
0.020600439045330841414
0.020574610384899980065
0.020551399898078102912
0.020525732789897114389
0.020503335523402634738
0.020478746605797105984
0.020457349403408854605
0.020433466069254297565
0.020412108787844118057
0.02038771434758024359
0.020366237004396332833
0.020341679222555631573
0.020320788172043097869
0.020297047243155605378
0.020277103189460878724
0.020253890809316693611
0.020234320607144459792
0.020210730579488637298
0.020190785051693829061
0.020166927555154978702
0.020146592211482242801
0.020122610755868620275
0.020102347336558527152
0.020078741032170402403
0.020059269916177312199
0.020036509423085140796
0.020017567167250657767
0.019994767788473470638
0.019975195512405383158
0.019951266756087302628
0.019930662768402621077
0.019905803766540271921
0.019885216235465012768
0.019860884417534009627
0.019841445346664779437
0.019818298792910280653
0.01979947622041464475
0.01977605125043035636
0.019756430889514411953
0.019731618304045458329
0.019710659454966212439
0.019684983235277918323
0.019663414457742597885
0.019637693199759706508
0.019616462064779766061
0.019591082825408372842
0.019570004891401995839
0.01954457250188398193
0.019523594758812309879
0.01949863560529433229
0.019478722839909205083
0.019455125172250242044
0.019436369747161372917
0.019413578574194727266
0.019394933263988868577
0.019371628647348225483
0.019352369943882462983
0.019328536923120212543
0.019309232756544499748
0.019285607021789455406
0.019266961257303091143
0.019243870260541300066
0.019225961280895417782
0.019203145664322837649
0.019185441208148398817
0.019162171130614809311
0.019143738413561848383
0.019119764930122417484
0.019100442083939957877
0.01907639609469824124
0.019057446087947821356
0.019034283308933825501
0.019016564095231142106
0.018994554549523721965
0.018977701915903491536
0.018955853036260763428
0.018938908556118766446
0.018916782446916396293
0.018899705147396254207
0.018877827852154756283
0.018861343255112954231
0.018840437045168304669
0.018824541329755178215
0.018804113688624789907
0.018788205223639234398
0.018767680216015113909
0.018751685215745834967
0.018730736867739281037
0.018714763717020920647
0.018693450289669556047
0.01867726044898342791
0.018655635686032318032
0.01863887489052389046
0.018616830074762977937
0.018599479625053913501
0.018577225103589892902
0.01856031475554242513
0.018538807430616890265
0.018523318892950932368
0.018503356175571410158
0.018489083839876758325
0.018470555433718539862
0.018457045650106407991
0.018438779178102739781
0.018425383115757826974
0.018406223085244640542
0.018392062567399235923
0.018372488585629852959
0.018358386686231364243
0.018339430741350332132
0.018326286005275770064
0.018308590231375779234
0.018296105633510851424
0.018279297894928443757
0.018267528313472752854
0.018251162931028238473
0.018239900240671742815
0.018223323991235145652
3.1850236681726160472e-05
6.2529836360935162824e-05
8.3142720616696330974e-05
9.2099553083616910289e-05
0.00011081162464541006985
0.00014571266681008443358
0.00017108566574850785536
0.00018499007621471721128
0.00020170047758705402082
0.00024092973222202923545
0.00032501682579498287085
0.0003922557709212953791
0.0004251976379733244933
0.00043870818830509927116
0.0004526011478648470066
0.00048196409479178372497
0.00056795204152430454284
0.00069335179135177689609
0.00077663845692602941594
0.00082142554146190697138
0.00086495038350558760189
0.00093236834491247470857
0.0010110537239388078107
0.0010711722724040036604
0.001102190348422757947
0.0011184905073029762987
0.001144417747305742682
0.0012094921046478456731
0.001294135216348190091
0.0013564004077237584115
0.0013916482107465845668
0.0014148661813562395714
0.0014509614486436948552
0.0015330216236158595525
0.0017107940478512536318
0.0019152010950864389958
0.0021025835740257924934
0.0022478633112316894101
0.002349977207156689861
0.0024164623580181965497
0.0024542575490311231354
0.0024754876946247957904
0.0025025676424199447441
0.0025643449215108568562
0.0026740334399955531519
0.0027875677193029534812
0.0028787366310806350271
0.002934523552925298942
0.0029615167720770745573
0.0029831053211426777731
0.0030264562376997390832
0.0031425880758092689972
0.003466650489794474016
0.0038330579701775896982
0.0040912603455702158811
0.0042294980921189530287
0.0042818845468384049771
0.0042978028059232004435
0.004313290300572042088
0.0043481039662858628203
0.0044390033466650460209
0.0045886465814535598237
0.0047548054525118595495
0.0049210526976455615245
0.0050625921287305438931
0.0051559528693147886613
0.0051973619372401944766
0.0052105138322075155236
0.0052265644072937433862
0.0052779731093209759224
0.0054811799353770259205
0.0059984513429743764601
0.0064258861659063880312
0.0066673965384421527564
0.0067664015057421278768
0.0067913281648746288283
0.0067930752070375693616
0.006792291046972485577
0.0067944879960448430548
0.0068113666728855078517
0.0068809838464289532073
0.0071304875281073118107
0.0075586698979559930472
0.007886153561138488019
0.0080729051120383924639
0.0081393876526770284063
0.0081485445853696873708
0.0081547822662578726971
0.0082026320646375969897
0.0084387024665838472615
0.0089394148238631562092
0.0093111257660762804939
0.0095414415376408271557
0.0096672974991576909182
0.00972616971047163964
0.0097521660142633973672
0.0097764423618757791135
0.0098292890649311036311
0.0099847341471280669917
0.010347500697171142792
0.010661453068981424294
0.010846395348602783787
0.010910626573971298967
0.010912563890147320561
0.010882909331663513999
0.010787582205245300343
0.010727653508469285962
0.010716085365046918235
0.010738117932944759789
0.01088703515154349627
0.0114668207352041987
0.012308095838968972219
0.012889344082574222261
0.013199016858088582008
0.013322154168531103249
0.013395363116243765023
0.013540150533187642404
0.013963489972888048704
0.014777003961074688942
0.01540855812447848236
0.015736580306492449488
0.015820839206103609609
0.015796088673799838636
0.015604459660078352432
0.015358121914037530312
0.015303276339028303032
0.015365874234451796371
0.015794275257635707888
0.016922751383576278145
0.017708993895756999087
0.01804105554912989115
0.018125252738008364173
0.01816576864704297356
0.018273359415441271097
0.018512956435103925662
0.018653793751298216458
0.018671762951947126763
0.018610694365471712464
0.018272855971259292784
0.017708643377059393731
0.017398006141337324371
0.017296371114533640873
0.017289791650105714588
0.017314793381264050043
0.017420970077210155835
0.017562892851035256242
0.017670757046751164182
0.017751254231798699323
0.017804385025363019673
0.017827930871880171004
0.01783264636749353968
0.017821693283169626199
0.017751603832971335484
0.017597021897091318782
0.017487867805960892464
0.017429240478656803787
0.017405656133238796984
0.0173985369062430624
0.017397903993105378467
0.017400859522180251587
0.017414145948579179413
0.017456777442969622499
0.017558677085636593268
0.01767636610535758962
0.017791938988854907877
0.017899181665582190176
0.018001862070421786877
0.018105136304317100138
0.018219587550405855203
0.01834828071538256028
0.018484907699771995632
0.018618149112102900383
0.018736027711387152894
0.018834608104977779153
0.018913938449988561968
0.018987297121006902617
0.019069564571565614935
0.01917047824410208004
0.019294586684723894626
0.019435465893721335512
0.019585091996782707374
0.019730953453802903969
0.019864597716578835662
0.019980477979776714581
0.020079730108561961999
0.020168837924620094254
0.020256355016987557388
0.020352570594938838161
0.020462325218215851597
0.024341683581359740973
0.024454985664775840543
0.024556125512892591073
0.024644110082644637982
0.024719379350263959855
0.024782367760341022372
0.024833476598333365654
0.024873097728974634391
0.024901943323666863445
0.024921302052943707789
0.024933186009087452556
0.024939736004312079015
0.024942931392537733004
0.024944122775010693638
0.024943632033855335506
0.024942349862131191901
0.024938885683368952617
0.024928448400543670033
0.024896186843900863089
0.024843929251142243125
0.024791954658912890991
0.024743466126367401337
0.024696336595151330284
0.024652610679535062049
0.02460998029492002942
0.024570662808168573787
0.024532584027928211468
0.024498300983566038275
0.024465744455261055623
0.024437265713920693078
0.024410206658745176728
0.024386377039658426596
0.024362462474558338466
0.024340165133300246253
0.024316731509190191163
0.024294666912958475663
0.02427167410992465274
0.02425022709119317027
0.024227651991925759634
0.024206517453115139471
0.02418418011052876973
0.024163178675449710486
0.024140553446520794656
0.024119101950533270579
0.024096291601088802581
0.024075648123213971852
0.02405422677686556987
0.024034815061815852089
0.024013739838361872203
0.023993768322881366128
0.023971552867253671792
0.023950019727644367845
0.02392566314044356976
0.023901741761130697317
0.023875417489159035667
0.023850809606514779965
0.023825387890254644263
0.023802740212289227179
0.023779203107899528347
0.023757319517309877926
0.023732898957946214208
0.023708624154793505462
0.023681151631883050335
0.023654070012379548038
0.02362509470865472444
0.02359797473490465175
0.023570158180846248475
0.023544626714091687614
0.023518156013886636763
0.023493165785533762918
0.023466343197625569306
0.023440261013485015618
0.023412159102310599323
0.023385233187960569046
0.023356837807947859742
0.023330215753840897325
0.02330250159224914186
0.02327697518143443528
0.023250522550979389746
0.023226103260537700468
0.023200200612655080129
0.023175634073842009408
0.023149189067911146028
0.023123882727059341669
0.023096441389852711418
0.023069826829643279298
0.023041264944017897376
0.023014318645733028434
0.022986880472737180464
0.022962049291651014105
0.022936686620490261135
0.02291307463605794445
0.022887874125821411342
0.022863671249525097107
0.022837453488509025512
0.022811906753574931472
0.022783898961672297695
0.02275658824712281994
0.022726846192309028277
0.022698829819967507315
0.022668690157115686801
0.02264141497126173283
0.022611972067548224974
0.022585684437688158255
0.022556971424001807935
0.022530878683876872509
0.022502390124073849004
0.022476141184201332834
0.022447860152046739818
0.02242155048263798009
0.02239286398154010857
0.022366159973975736908
0.022336928417602267688
0.022310848703631279422
0.022282638171538308308
0.022258053391093882839
0.022230849659519918288
0.022206760411819043144
0.022179684863541285211
0.022155734957821412306
0.022128443807693451428
0.022104439738549700595
0.022076840720513843386
0.022052914648601904674
0.022025724092676765564
0.022001857830539681832
0.021974346281047090618
0.021949587535222570694
0.021920610993178608894
0.021895095827356925861
0.021865372470792631548
0.021840117082840272006
0.021810846813321040777
0.02178614735823252227
0.021757718934587940568
0.021733811913453672526
0.021706109176766852364