/*--------------------------------*- C++ -*----------------------------------*\
  =========                 |
  \\      /  F ield         | OpenFOAM: The Open Source CFD Toolbox
   \\    /   O peration     | Website:  https://openfoam.org
    \\  /    A nd           | Version:  12
     \\/     M anipulation  |
\*---------------------------------------------------------------------------*/
FoamFile
{
    format      ascii;
    class       volScalarField;
    location    "0.0064";
    object      p;
}
// * * * * * * * * * * * * * * * * * * * * * * * * * * * * * * * * * * * * * //

dimensions      [1 -1 -2 0 0 0 0];

internalField   nonuniform List<scalar> 
75962
(
99656.216440990625415
99357.324395968651515
99299.56300072427257
99451.551052614071523
99378.912412349352962
99260.144494943946484
99201.940635444378131
99202.395855140537606
99254.083309660854866
99290.499946644558804
99298.338853086243034
99288.155861557810567
99297.233363676568842
99416.787486133296625
99512.469587007130031
99441.258822997799143
99295.98634720373957
99204.148217447203933
99208.880779299201095
99278.184713176902733
99332.864643821740174
99334.523293672536965
99324.095310750839417
99333.615767702911398
99341.515607063760399
99317.020403203190654
99282.775382280073245
99269.033082661873777
99255.748624949235818
99220.84730274611502
99183.842445175687317
99159.950369324811618
99137.245824410783825
99126.608140955591807
99149.223706899167155
99201.143177150734118
99248.536931728944182
99260.321546744657098
99228.714532778787543
99179.507889292071923
99141.090767175875953
99117.865335243594018
99101.664313257817412
99090.909819869484636
99088.387949575335369
99087.072248392665642
99083.445081841360661
99084.971453892299905
99097.868391604861245
99110.25721174904902
99119.939831984229386
99135.343449420615798
99151.249877523892792
99153.937195139413234
99142.12972989177797
99128.97926606227702
99122.639556254740455
99127.998710578991449
99148.087075007832027
99169.91954684376833
99170.019389555047383
99144.103604728225037
99114.621588137713843
99099.533160492312163
99092.543023566133343
99081.93434883900045
99082.136536178237293
99110.030901700010872
99157.882366182544501
99191.61313225167396
99197.531281292584026
99190.880352336971555
99188.197932390670758
99189.991150098634535
99187.482229827030096
99182.348965050812694
99183.768985419359524
99199.688680710678454
99225.071105473281932
99247.055693181697279
99257.137911854020786
99252.046691414245288
99233.716497278117458
99208.175301750990911
99192.169493177178083
99203.680529391640448
99243.102603518258547
99284.474683997337706
99299.230627896191436
99286.784657631491427
99272.50663974948111
99279.612871229532175
99308.65592934039887
99341.705598971588188
99362.195167599318665
99364.778293964802288
99358.866743987979135
99358.066997437243117
99370.515279884129995
99393.185559975754586
99415.635388377530035
99428.695474704465596
99431.826927811343921
99429.142418462724891
99421.697177678041044
99406.823942688934039
99385.580729979410535
99364.381869064323837
99348.699792271014303
99337.223665193436318
99324.475769490381936
99309.434405334715848
99297.56581368134357
99295.177831261782558
99303.512074458310963
99318.364232754072873
99334.089364793413552
99347.145083889496163
99356.669005451112753
99362.625531950659933
99368.610645978493267
99382.59374134115933
99408.954294833936729
99443.780579079611925
99475.451796993918833
99491.195251583209028
99484.550535288071842
99461.032673100358807
99435.672768979828106
99424.415304709531483
99435.282631596666761
99460.708751033162116
99483.080705176151241
99484.284907824607217
99461.055290475153015
99425.928598580198013
99397.177262601922848
99387.580793884189916
99398.549112038323074
99422.534942799597047
99452.367344031648827
99483.500995200549369
99511.740115650463849
99531.528552819159813
99539.408618715693592
99537.617168248892995
99532.88627389773319
99531.82620660115208
99537.461922642978607
99549.139673606012366
99564.50216077233199
99580.264888569407049
99593.950043506309157
99603.633884287701221
99605.200215979857603
99596.219585055543575
99575.797542077198159
99546.294727016604156
99513.183171824537567
99481.923714628850576
99455.583166790456744
99434.222677859273972
99416.492368907027412
99401.720198510156479
99391.200500741077121
99386.907904878549743
99389.271803474824992
99396.681023222990916
99406.046449446235783
99413.548558629656327
99416.715796793956542
99413.917434449045686
99404.812777902610833
99389.190724696381949
99366.990756519851857
99339.491169626489864
99309.896590733274934
99282.699615420147893
99262.291417283573537
99251.184665843713447
99249.062110472368659
99252.655716951019713
99257.258103488638881
99258.696812559253885
99254.778106117621064
99246.162508573572268
99235.785112147394102
99227.849752240697853
99078.133760580327362
99070.415707652282435
99067.107033480642713
99069.86708044889383
99077.101045440940652
99085.67811285618518
99093.438498745061224
99100.318488463963149
99107.294740857207216
99114.782124128207215
99121.73041697962617
99126.59173858021677
99128.54404030177102
99128.391921711925534
99128.014759413083084
99129.264571910680388
99133.021535153646255
99139.525970652481192
99148.580383351465571
99159.785556612143409
99171.381236137094675
99180.242774301063037
99182.321278694231296
99174.075185639085248
99155.102482143804082
99128.980803450365784
99102.296366279028007
99082.324791472477955
99073.656775205541635
99076.408272317246883
99087.281487353131524
99101.792993380484404
99116.426298805745319
99129.628937770161428
99141.326977343313047
99151.53209197743854
99159.598205605274416
99164.852292659459636
99167.348864768631756
99167.887641845474718
99167.357902411284158
99166.301645522558829
99165.017536541941809
99164.056868357991334
99164.801389670392382
99169.323240626021288
99179.587632204158581
99196.020901363895973
99216.728707035159459
99237.789483991786256
99254.95125484908931
99265.127007530827541
99267.78826810028113
99265.217185812041862
99261.706064740530564
99261.947151727654273
99269.002473981643561
99282.871852621436119
99300.170108775288099
99315.461049640216515
99323.286539196327794
99320.676881248087739
99308.921049713506363
99292.870279959912295
99278.743533092230791
99271.684618657382089
99273.79065108494251
99283.449565218237694
99296.569085157956579
99308.634494252488366
99316.419143356310087
99318.504119631776121
99315.338203619830892
99308.369213809375651
99299.581998400724842
99290.954466052382486
99284.417210193598294
99281.508790582040092
99282.979146037134342
99288.778776562510757
99297.249554952140898
99305.257768810013658
99309.517323464518995
99307.902972620242508
99300.488222228261293
99290.082908218450029
99281.40642618687707
99279.364300369619741
99287.234998545463895
99305.378022151489859
99330.954882503545377
99358.5541042850964
99381.978955562080955
99396.196283215977019
99398.797692412787001
99390.474557457957417
99374.381364788176143
99354.760910868484643
99335.487029016818269
99319.000403380749049
99305.97145960443595
99295.721057306232979
99287.13193121679069
99279.513965448815725
99272.869349159984267
99267.601094263009145
99263.859821520396508
99261.166119257031824
99258.434288324642694
99254.36904401810898
99248.033051753533073
99239.39573727689276
99229.353996044912492
99219.378872575689456
99210.90647011755209
99204.947481924973545
99201.980964567628689
99202.033237316194572
99204.935414428444346
99210.40185249086062
99218.008983169667772
99227.058709966397146
99236.408230221306439
99244.585174099032884
99250.065184841150767
99251.677810689259786
99248.933785816931049
99242.256599398082471
99232.630736417631852
99221.432698547607288
99209.930901081446791
99199.027794412657386
99189.188876989093842
99180.352916073272354
99172.351260529467254
99164.968715985465678
99158.170348993182415
99152.037959216948366
99147.071845544414828
99143.917313163110521
99143.453470230480889
99146.617978169771959
99153.567953949430375
99164.222378367354395
99177.919503714249004
99193.156849513557972
99208.209324290350196
99221.926175310203689
99234.164793050527805
99245.659968965672306
99257.467534451148822
99270.607980790256988
99285.278219035753864
99300.65297506058414
99315.217844578597578
99327.631207317579538
99337.328632948643644
99345.014193711249391
99352.509986640405259
99362.09907631004171
99375.470448186475551
99392.841553365098662
99412.618655390047934
99432.184182976227021
99448.643787547800457
99459.894926841720007
99465.576751527827582
99467.174400419840822
99467.35173951194156
99468.885699811638915
99473.72995801390789
99482.349949567083968
99493.400398617319297
99504.246823302994017
99512.113331923857913
99514.720733864611248
99511.176561817832408
99502.133409145986661
99489.396927822715952
99475.181395689010969
99461.347211782107479
99448.929553373818635
99438.090434865400312
99428.532574304452282
99419.846458737622015
99411.83480769227026
99404.868335036793724
99399.57673771190457
99396.628595002315706
99396.314086362952366
99398.29753037430055
99401.738057137103169
99405.580467782681808
99408.82564088604704
99411.010035285595222
99412.336384400870884
99413.332381418091245
99414.646336104473448
99416.587258585408563
99418.849570139864227
99420.488635610963684
99420.210119334355113
99416.864852400307427
99409.771463058074005
99398.985887208968052
99385.231186614822946
99369.914962973460206
99354.489842408511322
99340.106145619734889
99327.397413818558562
99316.405269073686213
99307.031263594544725
99299.241328952048207
99293.187451216581394
99289.28387579297123
99288.117797988641541
99290.245308230776573
99295.732731727330247
99303.856721027492313
99313.379609947107383
99322.97469384346914
99331.178493852217798
99336.710155694614514
99338.671597623717389
99336.797615088595194
99331.237731775589054
99322.353642435118672
99310.800123278648243
99297.191847594163846
99282.186730149784125
99266.60005406900018
99251.260947265647701
99237.198709596894332
99225.562375332679949
99217.18784657442302
99212.448674587620189
99211.261991192048299
99212.939179986628005
99216.11091088745161
99219.136351147346431
99220.762889863442979
99220.383716348369489
99217.911534794548061
99213.712452908832347
99208.70571600200492
99204.256227075136849
99201.616971364433994
99201.466658023709897
99203.888802671863232
99208.509099837523536
99214.608573446297669
99221.119933441455942
99226.799099799871328
99230.679917630171985
99237.806194357894128
99325.270118197513511
99486.320872180498554
99717.21285118778178
99501.264048444805667
99116.439982378826244
98983.726989095433964
99098.473147854296258
99226.682887810879038
99247.164320817042608
99249.342658939101966
99266.806774884767947
99328.248238408516045
99458.598812864438514
99529.793487703238497
99420.576972502734861
99238.980772666196572
99157.458097825641744
99193.533786709900596
99265.961015896478784
99316.358139418327482
99342.751090064324671
99345.380553606402827
99340.031759503326612
99326.858009216826758
99291.845445264596492
99254.012107277696487
99246.298731277420302
99264.75780518790998
99284.522317347611533
99281.86837078766257
99252.266344078016118
99214.867944366284064
99202.699204260105034
99227.256885691618663
99267.090447426075116
99287.63316786068026
99268.81028233935649
99214.146670694608474
99156.864652684642351
99120.41782194408006
99101.660834470749251
99086.773659746540943
99077.541705674273544
99085.189153753221035
99109.328463814454153
99134.334101008324069
99145.460082696343306
99136.941999410220888
99117.705632856115699
99112.440492308174726
99130.518871050720918
99152.169182649173308
99149.734550679422682
99125.490452261597966
99106.823332328131073
99105.387887068893178
99112.646206966193859
99121.243562384392135
99129.332224198908079
99131.553939258577884
99123.692269717008458
99113.954305392937385
99110.940411004397902
99107.297702557756566
99100.269870860909577
99105.04066195548512
99137.586152321804548
99182.9651429001824
99213.619052010617452
99217.801444037380861
99203.987769430314074
99186.438629293843405
99175.543560829712078
99174.706001795362681
99184.093937971934793
99197.498008369671879
99208.663806189579191
99216.001408020907547
99221.474299876470468
99226.131141108591692
99224.474206974366098
99211.263262386986753
99190.67195817278116
99180.268067174678436
99197.003664151125122
99238.934242565941531
99281.008742522215471
99295.07425263429468
99278.015620667123585
99253.415949188565719
99246.861811923619825
99266.227521308144787
99297.710716241024784
99321.416828816567431
99326.578898686289904
99322.549512054771185
99327.317499929733458
99352.296160835059709
99393.101301340662758
99429.572256574247149
99445.031618485911167
99439.246374491107417
99423.796866904944181
99406.729724050615914
99389.170710965598118
99367.883310748657095
99344.00706571151386
99321.421361245651497
99301.44556677241053
99284.172476905994699
99271.87699652108131
99268.756229356004042
99276.533173852003529
99291.627850863835192
99308.734289964049822
99324.281406251699082
99337.977090172920725
99349.181756909907563
99356.578006885974901
99362.597587269192445
99375.954782032509684
99402.643308458820684
99440.561635979174753
99476.622589460137533
99497.476988166556112
99496.041186805785401
99477.186358928825939
99456.050517188079539
99448.553719782226835
99462.102775892926729
99489.712888535825186
99513.220704945095349
99514.278984785050852
99489.829496856924379
99452.966708000632934
99423.972652245516656
99416.266227558255196
99430.400333827623399
99457.359645694930805
99488.273552941755042
99516.411335994343972
99536.577703914503218
99544.407466168515384
99539.00150680441584
99525.887244005352841
99514.978912496517296
99513.983473611340742
99524.379031111719087
99543.438819003757089
99566.198077663546428
99589.229468262405135
99606.375831282668514
99615.289434726175386
99612.809285784242093
99599.484445430964115
99578.395601446231012
99552.625523012146004
99525.448187767222407
99499.25606031047937
99475.531311514976551
99455.262171620604931
99439.312957111324067
99429.589798704764689
99428.355112802761141
99436.144135306763928
99450.131426765598007
99463.999259352392983
99470.829764438822167
99466.770383788185427
99452.812308608044987
99433.945655587071087
99415.608752160638687
99400.541353719119797
99387.030119957227726
99371.271209558821283
99351.372903092065826
99329.51238999326597
99310.476769332075492
99297.675824280406232
99290.748835080477875
99285.782586588029517
99278.407211110228673
99266.791504308581352
99252.322271359284059
99238.38596878106182
99228.466200983399176
99224.932771626015892
99228.301912062597694
99091.168792049007607
99085.801397157774772
99079.799092504632426
99077.664796465061954
99081.836596235196339
99091.428885501809418
99103.278987856028834
99114.126537024887512
99122.466439624258783
99128.593859571177745
99133.276650501153199
99136.657124137462233
99138.323301801443449
99138.312213057623012
99137.320041237268015
99136.556874378933571
99137.062421089605778
99139.405736709042685
99143.480551467655459
99149.324702375946799
99156.691445754651795
99164.445649163419148
99170.183804102663998
99170.30676399100048
99161.82524077949347
99144.067268781655002
99119.895362923591165
99095.479886802946567
99077.696657946318737
99070.745867962294142
99074.493759301869432
99085.071409812517231
99097.277550346436328
99107.299838912702398
99114.133990916452603
99119.082720450212946
99123.898214542132337
99129.400126897773589
99135.386568237940082
99141.153070513159037
99145.904687736212509
99148.948996669656481
99149.872386427872698
99148.99200590851251
99147.804130728472956
99148.870014007843565
99154.894473308348097
99167.33042670917348
99185.432571505196393
99206.119980671763187
99224.998087695857976
99238.166663784373668
99243.976369131822139
99243.515288044989575
99240.246861677165725
99238.651976317196386
99242.74746087132371
99254.357668178839958
99272.071676295425277
99291.476353691192344
99306.402048496674979
99311.549737425870262
99305.292453344474779
99290.254581631452311
99272.308801699400647
99258.19563198875403
99252.686127700610086
99256.840143872032058
99268.094924351200461
99281.580364758439828
99292.527705801010597
99298.056761717874906
99297.578477701026713
99292.392869128860184
99284.608231410791632
99276.513623221064336
99270.11456184128474
99266.852935235423502
99267.84818585087487
99273.500572244971409
99283.063682870008051
99294.357235987816239
99303.933216128803906
99308.477284404376405
99306.337741897805245
99298.127052917116089
99286.93490252715128
99277.570914965152042
99274.930218082183274
99281.960630338609917
99298.646985824831063
99321.834820150863379
99346.296945998183219
99366.578117228520568
99378.725822166205035
99381.128275685332483
99374.640550064854324
99361.910886784593458
99346.178032300304039
99330.234418886044296
99315.724374141165754
99303.082244880555663
99292.042867905445746
99282.173365588037996
99273.31917296742904
99265.579378187874681
99259.006399637917639
99253.478823660785565
99248.493970049952623
99243.345790873077931
99237.416423483169638
99230.480611036313348
99222.86016042229312
99215.4052319444163
99209.140604894448188
99204.976813941335422
99203.349050066695781
99204.151481050910661
99206.937974919957924
99211.21944438231003
99216.645304778896389
99222.913847542658914
99229.616794882327667
99236.077807014051359
99241.336346001669881
99244.23429664975265
99243.756065920635592
99239.344041319040116
99231.055261507659452
99219.574191667372361
99205.94746247776493
99191.560726919866283
99177.562772918783594
99164.859366487289662
99153.91647847070999
99144.998748178084497
99138.111622432450531
99133.132502830965677
99130.080775111899129
99128.83557313340134
99129.537457771497429
99132.375413463887526
99137.302509906934574
99144.423905648713117
99153.588174403193989
99163.85567606301629
99174.448586533573689
99185.082566905359272
99195.426742337614996
99205.5996928341483
99216.403231700402102
99228.861297604409629
99243.641362157621188
99260.661521869755234
99278.809700986559619
99296.326031193792005
99311.568272811011411
99323.807526135322405
99333.443996529429569
99342.023574650855153
99351.550698476246907
99363.752825563889928
99379.133928836366977
99396.845947715570219
99414.897161239408888
99430.776692718689446
99442.693203255112167
99450.331968417376629
99455.023169183681603
99459.044382326523191
99464.696268320578383
99473.151801373824128
99484.055728053048369
99495.678134835485253
99505.452385004362441
99510.908342837370583
99510.612998741533374
99504.556692886035307
99493.941282843763474
99480.768224026149255
99467.130678070345311
99454.485582059103763
99443.307680996149429
99433.323942060611444
99423.956375355614
99414.888921787001891
99406.33877333154669
99398.934208552862401
99393.666544702457031
99391.469957634413731
99392.694237109724781
99396.767541785127833
99402.427873539476423
99408.093303824978648
99412.405516732178512
99414.602770735087688
99414.789976994710742
99413.76321866971557
99412.472344833469833
99411.506577740554349
99410.81850477635453
99409.629729521271656
99406.697154071269324
99400.870170992129715
99391.498721132273204
99378.86708122958953
99364.124744532906334
99348.96275560768845
99335.091435641646967
99323.578299323664396
99314.652196396375075
99307.824357044577482
99302.3322595917125
99297.550371597666526
99293.383772231361945
99290.3162348857295
99288.988056458751089
99290.143499926722143
99294.301222225447418
99301.34941281277861
99310.30095397765399
99319.872664410548168
99328.710133409404079
99335.600579781559645
99339.68887206276122
99340.378714385893545
99337.529723230443778
99331.174298593570711
99321.732393913902342
99309.80903020077676
99295.930078916426282
99280.899344900084543
99265.779434347496135
99251.747454436917906
99240.109540533958352
99231.912546916515566
99227.500101019337308
99226.525425649175304
99228.180065005362849
99231.221652332911617
99233.992983850665041
99234.949822223148658
99233.381065503446735
99229.580299094450311
99224.434663339387043
99219.030122177966405
99214.54120156931458
99212.068886772714905
99212.250346908840584
99215.067305118733202
99219.942968594477861
99225.939957909315126
99232.021318066166714
99237.116304073802894
99240.239805932636955
99414.985365015934804
99392.860033480246784
99182.121545427493402
99196.018907405086793
99249.20820520388952
99162.671328658805578
99118.05828402042971
99236.091824068440474
99346.562010094959987
99312.817234103626106
99256.891903193376493
99268.355680577005842
99328.048259359726217
99437.931455238678609
99505.662133745267056
99401.818199890141841
99232.245933258425794
99191.741669129478396
99252.768268133178935
99281.981630454858532
99295.161199092603056
99341.280333593575051
99379.199922492538462
99369.174027140194084
99334.5539299773518
99300.869379031471908
99275.222986906344886
99269.123462052593823
99293.603988395596389
99331.343849217781099
99343.326667249697493
99318.16478916653432
99286.388565904169809
99279.38930500340939
99297.552732606651261
99312.904047681950033
99296.316758426764864
99243.349407890840666
99180.189803973262315
99137.377875326681533
99122.224923076748382
99117.67510302842129
99109.665241485345177
99106.209770931149251
99124.889156342687784
99164.779933996644104
99196.720081624400336
99188.077750784243108
99142.31191440904513
99098.769327911606524
99094.430334170276183
99125.388262700784253
99150.993684681947343
99139.5413546422933
99105.290423587284749
99085.834938400352257
99091.581579782126937
99101.235922109015519
99101.582590823774808
99102.404255697198096
99112.066080706077628
99125.241971168914461
99135.454901191289537
99142.458355692404439
99143.376918181224028
99140.883505920981406
99144.823704795082449
99164.603452628478408
99195.742095042092842
99221.419203520927113
99229.380498691607499
99217.718326068104943
99196.151536292571109
99183.803518209868344
99190.674602075610892
99207.97345460136421
99215.745409298571758
99207.375739114489988
99193.977255935897119
99191.70705990481656
99201.609195054479642
99208.139973379293224
99198.255591651090072
99178.543105008589919
99169.578539606940467
99188.634960974435671
99231.570136531387107
99274.950437564126332
99290.358522617083509
99271.71202938168426
99240.053141424432397
99222.409265757392859
99232.090635680244304
99258.109062424162403
99279.039694792285445
99285.116896211460698
99284.202334404544672
99294.672112249929341
99329.256659816586762
99381.332323592243483
99424.424920420278795
99436.525355671154102
99419.155102087126579
99392.475709614009247
99371.994102371594636
99359.167352369084256
99343.833809201430995
99320.858933512601652
99293.100704490367207
99265.864595312916208
99245.562314497248735
99236.929557299677981
99242.401669788174331
99259.403831837043981
99280.397065248005674
99299.129329583971412
99315.442230454355013
99331.692617121312651
99347.561629113173694
99359.85373075606185
99367.694282770244172
99377.093551200261572
99395.816519470929052
99424.632512944852351
99456.956389586615842
99482.002111301771947
99492.823085012991214
99489.771332629097742
99481.922997321089497
99480.278267627072637
99491.220393767755013
99510.947948507746332
99526.645806886939681
99525.239261513343081
99504.91023395342927
99476.744807172086439
99457.732564451667713
99457.243996428063838
99473.216312657285016
99496.744774712409708
99519.272521591774421
99535.907055253876024
99544.063166260311846
99542.137286319120903
99530.275381537489011
99514.261997148394585
99502.834177947588614
99503.286634255026001
99516.521127405067091
99540.639949578529922
99569.602652043380658
99597.77864718750061
99616.820361551086535
99621.44479669847351
99610.630982000482618
99589.529454301198712
99566.186283487215405
99544.202451952834963
99524.481539258064004
99506.279570220634923
99487.95539799593098
99470.910106382332742
99459.274964132971945
99457.528735630679876
99468.413586945156567
99490.088895430133562
99515.119134867185494
99532.668111393097206
99533.566640015123994
99515.589632246279507
99484.651358280301793
99451.882326412742259
99427.541365033539478
99415.73023581027519
99412.403970290717552
99409.453948660069727
99400.942853860222385
99386.384633950670832
99369.77148563391529
99354.244795506107039
99338.755936189001659
99319.927440899671637
99296.112688355147839
99269.635252298219712
99245.891314663822413
99229.919083883389249
99224.060717407337506
99227.303945968058542
99236.195696076872991
99102.522154103498906
99103.088423299428541
99101.121180011628894
99100.088430663585314
99103.292152345791692
99111.762937246414367
99123.767666189261945
99136.365479001397034
99146.683742328095832
99153.244017599907238
99155.934647154514096
99155.677341475136927
99153.660967463612906
99151.222804699238623
99149.301943652055343
99148.408091900564614
99148.714563441040809
99150.044870532423374
99152.126594643617864
99154.894055085169384
99158.466459205039428
99162.529734404277406
99165.396177781673032
99164.251171488809632
99156.410338891146239
99140.81295418094669
99119.595808428057353
99097.910589666396845
99081.457636552062468
99073.922827734772
99075.273504830081947
99081.80879679309146
99088.418277380929794
99091.691995950168348
99091.459846603320329
99090.160239327233285
99090.972302391484845
99095.803080193392816
99104.450208112830296
99115.003416161955101
99124.816265320027014
99131.565139242011355
99134.281116660786211
99133.928304606291931
99133.203507320751669
99135.566768692966434
99143.725018982775509
99158.179145326183061
99176.908782319733291
99196.082769554137485
99211.50853816982999
99220.184701489735744
99221.733896873905906
99218.509523961183731
99214.567323450217373
99214.30745681328699
99220.903989421611186
99235.221981612005038
99255.045137414970668
99275.404694870740059
99290.313720654536155
99295.271588650284684
99289.264224691141862
99275.393020181072643
99259.538809466845123
99247.884275449177949
99244.458018214252661
99249.527442775419331
99259.661104718907154
99269.922176028223475
99276.201453061308712
99276.691325432024314
99272.023489783401601
99264.305163435390568
99255.981077337070019
99249.251522958380519
99245.871773855513311
99246.933998463267926
99252.912558452706435
99263.456565317232162
99276.975026206462644
99290.740433163809939
99301.561581984249642
99306.584117617632728
99304.433504661137704
99296.155835373880109
99285.160337162800715
99276.073301004667883
99273.161255949220504
99278.709251222346211
99292.149381894501857
99310.407209880824666
99329.266734972203267
99344.678560784188448
99353.968038950886694
99356.44420869993337
99353.142256384599023
99345.802971337921917
99336.120325051946566
99325.329255663207732
99314.068862599757267
99302.587150297244079
99291.14425353842671
99280.115169350727228
99269.863806621055119
99260.561093140597222
99252.084689345763763
99244.054253586233244
99236.036179050992359
99227.78900611239078
99219.481167484205798
99211.652238109119935
99205.05691653060785
99200.500255293562077
99198.598087229416706
99199.547485794566455
99203.043582651109318
99208.336066136995214
99214.434956506011076
99220.4318189304322
99225.685872981877765
99229.868127920679399
99232.869391987129347
99234.663116687530419
99235.069881519142655
99233.648306630042498
99229.773957217053976
99222.944541471559205
99212.892619274527533
99199.909469815771445
99184.804858703762875
99168.816517019746243
99153.32349565376353
99139.586126768408576
99128.618027365897433
99120.943786950083449
99116.641388978532632
99115.288325761881424
99116.30132786888862
99118.930589101102669
99122.699884867324727
99127.159459901246009
99132.144260447195848
99137.72739913892292
99143.40427274229296
99149.086548124614637
99154.851611955222324
99160.742064893871429
99167.395827364176512
99175.660944580726209
99186.26386595852091
99199.833533183162217
99216.393724071720499
99235.449975558367441
99255.855369200187852
99275.889706394038512
99293.79648631020973
99308.564943015458994
99320.357101460089325
99330.23246675619157
99339.8875789000449
99350.936414880939992
99364.124827472056495
99379.127680389152374
99394.672912873153109
99409.133478224583087
99421.244072234578198
99430.768326216973946
99438.598152293532621
99446.27692216244759
99455.098451477810158
99465.654221720134956
99477.27285115919949
99488.182459343763185
99496.084636837811559
99499.143528361120843
99496.664681112000835
99489.25357351389539
99478.475002513048821
99466.264495740295388
99454.314018096847576
99443.552664466551505
99433.946153643119032
99424.921290285084979
99415.953810976585373
99406.961354588740505
99398.565174390678294
99391.910575319590862
99388.248311788076535
99388.345862446920364
99392.131364441345795
99398.553194886204437
99405.847745285544079
99412.118395541561767
99415.920743925235001
99416.595861683847033
99414.458822537388187
99410.650201986194588
99406.407718332760851
99402.559458699412062
99399.102013753043138
99395.27933091869636
99389.922115861903876
99381.968895859186887
99371.022804044812801
99357.731281308471807
99343.596871082263533
99330.460520497639664
99319.812719011184527
99312.404136936063878
99307.952038616640493
99305.394603617183748
99303.504268189935829
99301.260212982393568
99298.360155131551437
99295.418196830825764
99293.434542889313889
99293.449723071971675
99296.213156265919679
99301.86278397301794
99309.819234268492437
99318.802594888140447
99327.447293180710403
99334.484420722626965
99339.16162369158701
99340.93077632272616
99339.563868493787595
99335.038601961539825
99327.426275625024573
99317.351585960554075
99305.528683674434433
99292.783631028782111
99280.188035704413778
99268.81605232268339
99259.694177105993731
99253.669135249321698
99250.994876303258934
99251.18310997649678
99253.186175149356131
99255.709070869517745
99257.453065858499031
99257.322009084906313
99254.792380751445307
99250.188052957586478
99244.506278603337705
99238.950211769275484
99234.557956283650128
99232.092952207938652
99231.940255636058282
99233.9712073582632
99237.621203961374704
99242.070356228505261
99246.43514839981799
99249.961197177195572
99251.968777902569855
99251.84190678075538
99593.739874285587575
99310.834965030153398
99292.884178858716041
99355.234812286042143
99479.461961499619065
99483.823976528190542
99404.728869220387423
99404.15757011398091
99464.706211373471888