/*--------------------------------*- C++ -*----------------------------------*\
  =========                 |
  \\      /  F ield         | OpenFOAM: The Open Source CFD Toolbox
   \\    /   O peration     | Website:  https://openfoam.org
    \\  /    A nd           | Version:  12
     \\/     M anipulation  |
\*---------------------------------------------------------------------------*/
FoamFile
{
    format      ascii;
    class       volScalarField;
    location    "0.0064";
    object      p_0;
}
// * * * * * * * * * * * * * * * * * * * * * * * * * * * * * * * * * * * * * //

dimensions      [1 -1 -2 0 0 0 0];

internalField   nonuniform List<scalar> 
75962
(
99656.098477162056952
99352.654509698113543
99304.150536427492625
99453.942632046353538
99375.850487497460563
99257.992390650135349
99201.409107250205125
99203.794829962498625
99256.092860710050445
99291.876809527937439
99299.137936500716023
99288.833889062370872
99300.388771646292298
99421.906166560540441
99513.995387572082109
99438.187842494473443
99292.559757376773632
99203.093434619775508
99210.837809103322797
99281.164243554478162
99334.530300138518214
99334.795466309937183
99324.53231056232471
99334.50565266139165
99341.777708557841834
99316.520985453345929
99282.590250136883697
99269.35368128400296
99255.543912755718338
99220.048793547204696
99183.203852683553123
99159.45126799371792
99136.8671577032801
99127.041369883052539
99150.894569066222175
99203.385096384867211
99250.130580613462371
99260.562020606332226
99227.765716922731372
99178.406373139077914
99140.441910273875692
99117.526617373907357
99101.40833005947934
99090.816938494026545
99088.464355634772801
99087.281152480238234
99083.891377331106924
99085.887090398624423
99099.039159802530776
99111.164717071558698
99120.700423848305945
99136.116955806137412
99151.719351063773502
99153.867717717570486
99141.721400702052051
99128.619192658166867
99122.521227576566162
99128.258786572390818
99148.584070122175035
99169.990088545513572
99169.155333594768308
99142.667390465081553
99113.438690107868752
99098.807653152864077
99091.866781862903736
99081.382043342877296
99082.3243458163779
99111.165883022782509
99159.060380069291568
99191.935194204153959
99197.087690586529789
99190.339621126477141
99187.856387844876735
99189.688268161044107
99187.128475466437521
99182.222175037750276
99184.174442769566667
99200.599840353257605
99226.045977806206793
99247.67065196360636
99257.256864118040539
99251.743344786082162
99233.114244881799095
99207.626771696319338
99192.249955741368467
99204.687417968510999
99244.590759369879379
99285.452242682353244
99299.223380152470781
99286.255114737345139
99272.336916754982667
99280.22749265927996
99309.740291535941651
99342.634288726636441
99362.54544463212369
99364.656071136007085
99358.681924245727714
99358.226726559951203
99371.137521657612524
99394.037066620425321
99416.321590000807191
99429.0277947322611
99431.869873645599
99428.968664209285635
99421.285486971581122
99406.185697209308273
99384.902400272563682
99363.910262528588646
99348.488789579816512
99337.09029505259241
99324.252177487345762
99309.194799452176085
99297.532072290530778
99295.5168320897792
99304.185458333362476
99319.200456867853063
99334.91597995821212
99347.871438607573509
99357.251680911751464
99363.128865559425321
99369.257916982533061
99383.573249857668998
99410.285106648210785
99445.128511841408908
99476.333199914515717
99491.217255765441223
99483.712261875480181
99459.775176181399729
99434.620088053867221
99424.066408049882739
99435.647012067915057
99461.297991646511946
99483.16827215597732
99483.465947713644709
99459.518113455080311
99424.282844856803422
99396.059790888524731
99387.273202826821944
99398.899835333126248
99423.250951005538809
99453.222136192634935
99484.301973267778521
99512.278037200128892
99531.630687793338438
99539.051117890252499
99536.998130841209786
99532.265232792982715
99531.40440205737832
99537.297005319705931
99549.143819268210791
99564.6203093782824
99580.389252012377256
99594.012403897417244
99603.498908690511598
99604.723826956193079
99595.313601136687794
99574.466967442887835
99544.692232001005323
99511.528833987002145
99480.388599208701635
99454.224932170225657
99433.006699857025524
99415.376222613747814
99400.745290982929873
99390.467976919841021
99386.492640563606983
99389.169179520235048
99396.811116070050048
99406.236505331165972
99413.653510451360489
99416.620793201334891
99413.571800985955633
99404.212622337494395
99388.338589489081642
99365.923469887100509
99338.307590176773374
99308.758759062198806
99281.791816842669505
99261.755365276359953
99251.06696124660084
99249.282417280002846
99253.034786073345458
99257.591303914232412
99258.836452778807143
99254.686245031378348
99245.919678295249469
99235.550029554055072
99227.793621848570183
99077.008584566239733
99069.406814129761187
99066.352589596703183
99069.348968550300924
99076.690129712485941
99085.242607516978751
99092.918678108297172
99099.739754131122027
99106.701910684350878
99114.18225232991972
99121.093908138296683
99125.885450066300109
99127.784903893640148
99127.639828162427875
99127.3523804662982
99128.743163917199126
99132.664283017933485
99139.332981514016865
99148.547043810831383
99159.874101884677657
99171.489485718091601
99180.223734929546481
99182.012300635266001
99173.390421156029333
99154.110442976045306
99127.894027230475331
99101.403509687355836
99081.86840166291222
99073.716773124280735
99076.89045578596415
99087.994833879347425
99102.54693474866508
99117.098699238704285
99130.17820662871236
99141.745395633581211
99151.797336181130959
99159.674769760735217
99164.727184338029474
99167.05058206897229
99167.46602947867359
99166.861828425069689
99165.765975832531694
99164.477342910380685
99163.567709814480622
99164.447065977554303
99169.197094593779184
99179.741101279389113
99196.413263478185399
99217.21969649688981
99238.188366934104124
99255.090271714041592
99264.924389130042982
99267.288992428904749
99264.578607171293697
99261.142782555776648
99261.646683048107661
99269.04443610853923
99283.186532591847936
99300.557579443440773
99315.666485320893116
99323.103057588086813
99320.054968217154965
99307.999655653300579
99291.906062264795764
99278.011764414099162
99271.374099688444403
99273.937210652467911
99283.937032370042289
99297.202829746063799
99309.228385297523346
99316.844351402876782
99318.715941290414776
99315.355677963030757
99308.247639041132061
99299.393793480281602
99290.778294376592385
99284.341407576241181
99281.598524761589942
99283.276854936120799
99289.275785991165321
99297.851740753147169
99305.824428143590922
99309.9246940620651
99308.096608758482034
99300.521674136238289
99290.115921692646225
99281.649207988448325
99279.994907914966461
99288.337988578743534
99306.90013651305344
99332.708373069821391
99360.266901586306631
99383.382219883438665
99397.112620835221605
99399.19113666798512
99390.446467980567832
99374.119458832079545
99354.465024684090167
99335.306950799771585
99319.001961924790521
99306.143737307167612
99296.010346516603022
99287.485539896195405
99279.907316144584911
99273.304882286276552
99268.086175723408815
99264.381398880839697
99261.686096132209059
99258.900896881983499
99254.736182523702155
99248.286852146600722
99239.563366484755534
99229.497202171900426
99219.571662213973468
99211.212662907448248
99205.403402587835444
99202.59698588399624
99202.797952162931324
99205.829812650859822
99211.400974575954024
99219.080291088845115
99228.155429293619818
99237.467216323304456
99245.540783452262986
99250.859507122426294
99252.277255639739451
99249.338232264271937
99242.499926780306851
99232.763448064637487
99221.504798421810847
99209.98512942007801
99199.079915590540622
99189.237949663511245
99180.380340331321349
99172.345642525106086
99164.922271770672523
99158.091767740246723
99151.944069967372343
99147.00406564064906
99143.914758799000992
99143.56922207052412
99146.877721195138292
99153.97013086656807
99164.746924481238239
99178.510319647524739
99193.726665776848677
99208.680238749555429
99222.265564472341794
99234.391009505561669
99245.821506780936033
99257.612654419295723
99270.769309358845931
99285.448978577071102
99300.785791599584627
99315.266282988945022
99327.566619352030102
99337.168344520177925
99344.814857494420721
99352.358714151880122
99362.076034881392843
99375.611920064460719
99393.107583910081303
99412.909635875184904
99432.378798988909693
99448.628723804358742
99459.622487655971781
99465.091017546219518
99466.602680495954701
99466.85756220955227
99468.61211135382473
99473.751218753386638
99482.639890249003656
99493.822420931464876
99504.627394208058831
99512.283071767553338
99514.579256072785938
99510.718390384761733
99501.435801460960647
99488.581263688683975
99474.374081116780872
99460.641721148625948
99448.364965430504526
99437.652047367097111
99428.184490908839507
99419.548084920781548
99411.568726401514141
99404.635772745183203
99399.386718136025593
99396.492478670013952
99396.237041116139153
99398.270287331848522
99401.746107435232261
99405.608791376667796
99408.867349478372489
99411.075837731346837
99412.444595298497006
99413.499940987589071
99414.876578066308866
99416.85809714604693
99419.112282496455009
99420.674567864232813
99420.256892175850226
99416.726778359749005
99409.436012089965516
99398.476412123825867
99384.602406880221679
99369.242108449732768
99353.847581169276964
99339.560202312670299
99326.9823646798759
99316.12843516805151
99306.892754751141183
99299.237829499834334
99293.320151464664377
99289.55774885568826
99288.542474255882553
99290.823799983612844
99296.448044072574703
99304.663887940740096
99314.220798609647318
99323.783419834508095
99331.88995482858445
99337.274668287747772
99339.057421533740126
99336.996997126625502
99331.255205083158216
99322.213308760517975
99310.530486596588162
99296.809895139071159
99281.722130393856787
99266.09812233383127
99250.776054596193717
99236.800525915226899
99225.316967680249945
99217.132293182366993
99212.590425077112741
99211.581511954020243
99213.386033340473659
99216.608488429221325
99219.601043245536857
99221.131844185845694
99220.637011825441732
99218.075416384075652
99213.843073276118957
99208.863361923926277
99204.491745032049948
99201.96909219128429
99201.949852827819996
99204.480979281885084
99209.154283709271112
99215.237719026205014
99221.676692687629838
99227.243368656825623
99230.981040177852265
99234.772721924731741
99328.303058666657307
99494.699241094524041
99717.665392865397735
99489.305379537327099
99106.105194654097431
98982.584848676415277
99102.135151979804505
99228.519474805754726
99247.092204148997553
99250.041594154157792
99268.361416403669864
99331.74123171379324
99462.399446542563965
99529.196203260929906
99415.423371294746175
99234.551071176101686
99157.082227960592718
99195.907506084884517
99268.480403718072921
99318.159280889987713
99343.724391602067044
99345.736182419394027
99340.326720126278815
99326.67013694634079
99291.168160162094864
99253.970832847684505
99247.378874480724335
99266.411944137478713
99285.708375349160633
99282.049894743060577
99251.591214756146655
99214.338156911486294
99203.161300053208834
99228.509245026521967
99268.161933654177119
99287.729912544236868
99267.535262916018837
99212.194511802343186
99155.234585527869058
99119.470242908995715
99101.092893232460483
99086.3511802971625
99077.583373815388768
99085.915948936366476
99110.521104246057803
99135.457990787675953
99146.055033400902175
99136.809192688087933
99117.403513957557152
99112.656852149390033
99131.206431291473564
99152.442304649855942
99149.142497409397038
99124.604915873758728
99106.395243883685907
99105.387773437818396
99112.7828680058592
99121.347843518218724
99129.305434029447497
99131.226809796571615
99123.165651487244759
99113.495217522911844
99110.631828945421148
99106.872864522010786
99100.000876094505657
99105.484243508879445
99138.783314066167804
99184.002380938909482
99213.785988329735119
99217.085798885731492
99202.9268287892628
99185.518566231869045
99175.029508617939427
99174.715199271129677
99184.547499596708803
99198.110760243376717
99209.155718952169991
99216.345120185302221
99221.712683636549627
99226.277701103419531
99224.373644787221565
99210.8448012353183
99190.266285007659462
99180.471152174228337
99198.099948366041644
99240.408929737401195
99281.913119873221149
99294.911147381950286
99277.162913217121968
99252.761289551301161
99247.011202441033674
99267.070794488099637
99298.618523499681032
99321.856838051098748
99326.529417436395306
99322.53026663872879
99327.856924588690163
99353.547961259901058
99394.575978075736202
99430.558674421321484
99445.198478852544213
99438.813513914268697
99423.14436149050016
99406.06967041666212
99388.455854766056291
99367.091798038309207
99343.256124143081252
99320.799306434084428
99300.95854990335647
99283.852573616532027
99271.84670346416533
99269.134661416363087
99277.28742356634757
99292.556297411196283
99309.675978117622435
99325.160961651839898
99338.758424206316704
99349.838624572090339
99357.151175205799518
99363.299170721686096
99377.02744692354463
99404.16416303277947
99442.187991768194479
99477.77764871463296
99497.786733070854098
99495.490204449903104
99476.200993633974576
99455.255768192466348
99448.412123295362107
99462.610471623513149
99490.371178068671725
99513.313402565443539
99513.400628366915043
99488.193703362354427
99451.269452924127108
99422.869989697253914
99416.055708790023346
99430.850030728848651
99458.150805443845456
99489.072349970927462
99516.952178841733257
99536.664117716500186
99543.92416622757446
99538.061588529046276
99524.828581624664366
99514.185248421228607
99513.624846052654902
99524.437009618093725
99543.778485297909356
99566.644608959293691
99589.608452697066241
99606.539550280373078
99615.120636082050623
99612.239544859330636
99598.581156285814359
99577.258464961952996
99551.362075042488868
99524.163584617926972
99498.012061132307281
99474.364701363505446
99454.232305758676375
99438.487327658105642
99429.055389516695868
99428.194585939010722
99436.337149936836795
99450.509599651370081
99464.28568907979934
99470.80724646744784
99466.331569809146458
99452.075974202263751
99433.115896748451632
99414.861272749039927
99399.908590419014217
99386.408642112990492
99370.548561646268354
99350.557784542266745
99328.753816310767434
99309.946862719560158
99297.434458115152665
99290.698476542776916
99285.730003002376179
99278.204208407303668
99266.418766540067736
99251.873576436890289
99238.011313741211779
99228.299402313496103
99225.045605293184053
99228.664769168957719
99090.145448838040465
99084.682706681182026
99078.785096712177619
99076.90429311709886
99081.345693238079548
99091.092344549862901
99102.929698400912457
99113.650740356024471
99121.841751867643325
99127.87045288371155
99132.50539598922478
99135.864672049196088
99137.525487217673799
99137.538860758839292
99136.609630511695286
99135.9433812382631
99136.564584136664052
99139.019893348333426
99143.199318930317531
99149.15204415791959
99156.609279062395217
99164.394048274014494
99170.043604090053122
99169.941510518518044
99161.15609811784816
99143.132779238774674
99118.879538192108157
99094.654957406499307
99077.286787865014048
99070.818064141916693
99074.937462420610245
99085.665058804996079
99097.806099934721715
99107.647531125141541
99114.304319916904205
99119.141790356763522
99123.899815367505653
99129.358313031087164
99135.284657340438571
99140.967072486877441
99145.612523696167045
99148.539457910097553
99149.356936722106184
99148.424844454231788
99147.287131459321245
99148.52977387997089
99154.825263678925694
99167.545234821256599
99185.838790169829736
99206.542216262649163
99225.243699174345238
99238.110603078399436
99243.609348867743392
99242.945078409771668
99239.65887386421673
99238.245786750048865
99242.663794768377556
99254.611957051587524
99272.537004660727689
99291.910144642155501
99306.530961803757236
99311.204859229226713
99304.491137753720977
99289.188657383725513
99271.276205626156298
99257.476881405615131
99252.435775376012316
99257.050313203129917
99268.61198318406241
99282.185997498949291
99293.031325787334936
99298.354804074508138
99297.656164302374236
99292.302735553312232
99284.424872283940203
99276.321392802565242
99269.988303134450689
99266.861008753316128
99268.047241318898159
99273.914495680393884
99283.6583764962852
99295.022298042793409
99304.519718635681784
99308.866540493443608
99306.49738801571948
99298.127384085484664
99286.941229282019776
99277.794408364483388
99275.542890959462966
99283.027334521597368
99300.095721344099729
99323.470240620154073
99347.866403958774754
99367.858429154555779
99379.584365780028747
99381.549690733038005
99374.718243233743124
99361.797127728219493
99346.026482097979169
99330.155337564559886
99315.762791141183698
99303.232724728004541
99292.279696325524128
99282.472998482859111
99273.670458691194654
99265.975592869406682
99259.436460439799703
99253.921180592529709
99248.915216220077127
99243.717186760855839
99237.725302716775332
99230.740755626597092
99223.110550364624942
99215.699430963897612
99209.532160126458621
99205.503735846679774
99204.020772024188773
99204.950181153733865
99207.829822960135061
99212.171626283874502
99217.631603736284887
99223.909909693000372
99230.590807332933764
99236.991573662467999
99242.144977480056696
99244.896259540459141
99244.243793585395906
99239.654023855735431
99231.205607143405359
99219.60585473352694
99205.908677556362818
99191.495771118221455
99177.504211372914142
99164.821669752564048
99153.905942092314945
99145.018599842209369
99138.164382348884828
99133.224848630401539
99130.226818765077041
99129.038629525253782
99129.817117052924004
99132.730662194269826
99137.729706269339658
99144.917053825905896
99154.111537974866224
99164.35169303829025
99174.889407940441743
99185.450810217735125
99195.71691136098525
99205.836091733217472
99216.634326051469543
99229.135820047580637
99243.979323337131063
99261.038931680275709
99279.164968772034626
99296.589059920079308
99311.698497143079294
99323.809126307984116
99333.359805358719314
99341.926112941553583
99351.511926208666409
99363.816803290319513
99379.285805230188998
99397.023836789478082
99415.003595703106839
99430.721858431075816
99442.439391807623906
99449.920490605654777
99454.564300231082598
99458.671063674773904
99464.512776541276253
99473.196812417911133
99484.273155570306699
99495.939855071424972
99505.595710875088116
99510.80123945507512
99510.199910558643751
99503.870000498412992
99493.08163833861181
99479.863167463525315
99466.293024424114265
99453.781081133463886
99442.752641887564096
99432.888006198700168
99423.592258152581053
99414.566656048846198
99406.055942636710824
99398.712537730069016
99393.538081954087829
99391.451487241560244
99392.772409575773054
99396.901232954725856
99402.56186087228707
99408.179606129648164
99412.422797104882193
99414.564124581724172
99414.732569628118654
99413.734888855644385
99412.504323839631979
99411.597110676302691
99410.93015360935533
99409.695442625103169
99406.648789892351488
99400.654715660144575
99391.102383897959953
99378.325426540177432
99363.511031453308533
99348.369782069014036
99334.596717353211716
99323.226445561624132
99314.452832338036387
99307.757439629000146
99302.362342582986457
99297.655825534005999
99293.568455333486781
99290.598077721995651
99289.391926851996686
99290.694167451263638
99295.002028510309174
99302.168558564109844
99311.182448176492471
99320.75874954694882
99329.534916770397103
99336.310333759829518
99340.238792218791787
99340.746024075488094
99337.708957316775923
99331.170615931667271
99321.570239097054582
99309.512545925943414
99295.531874796957709
99280.45454073730798
99265.352130886385567
99251.408683243716951
99239.931409806536976
99231.940170337707968
99227.736594494854216
99226.937815313765896
99228.707577674751519
99231.783940713241464
99234.506028015646734
99235.351929817552445
99233.656285691613448
99229.762200814308017
99224.592256122967228
99219.240576198179042
99214.862614220954129
99212.52919872183702
99212.847934270874248
99215.770335562410764
99220.695067985900096
99226.669739622855559
99232.660091062163701
99237.618440860067494
99240.582092018186813
99417.923192879025009
99386.341618993115844
99176.301586669855169
99195.867483345442452
99246.649407689197687
99158.977949685111525
99118.776890099819866
99240.250371956179151
99347.888961706703412
99311.190909093144001
99256.573060764290858
99269.83643327736354
99330.811013544749585
99441.11291793838609
99505.09417901483539
99397.0046392466611
99228.846386479403009
99192.797553707670886
99254.723585195679334
99282.931693837948842
99296.701828081684653
99343.530652037734399
99380.381730823239195
99369.017349342844682
99334.018785151667544
99300.46269380323065
99275.222218092778348
99270.075652817744412
99295.368363210291136
99332.84803664626088
99343.536738062117365
99317.43340931343846
99285.836778799493914
99279.545999213194591
99297.936417345539667
99312.533736770463292
99294.743991938841646
99241.000946174157434
99178.026899229997071
99136.139304981930763
99121.703259563742904
99117.348661813957733
99109.389577687470592
99106.451748574589146
99126.006724413120537
99166.134674869361334
99197.123680135089671
99187.054104862851091
99140.593580673506949
99097.678261957349605
99094.630157233201317
99126.131711001711665
99150.983765685086837
99138.448419872089289
99104.139523916892358
99085.51540721328638
99091.808570902314386
99101.307210820814362
99101.477188877281151
99102.493470031869947
99112.407294879245455
99125.653788421259378
99135.743837502770475
99142.573172504504328
99143.273035344624077
99140.792832329359953
99145.070113745954586
99165.246491752288421
99196.393203962375992
99221.537638358000549
99228.766514822098543
99216.552139244260616
99195.091570308548398
99183.42285718266794
99190.989513390435604
99208.451555832434678
99215.797281569321058
99207.027237586007686
99193.722008832235588
99191.910639113964862
99202.005009171058191
99208.190097062441055
99197.823122495508869
99178.101122945619863
99169.799440736751421
99189.710111926382524
99233.041617521783337
99275.874741824925877
99290.16221365313686
99270.66634585839347
99239.021538785003941
99222.128992884943727
99232.561692603791016
99258.774159292326658
99279.351062391651794
99285.060671040817397
99284.278108325685025
99295.470308572796057
99330.839933265349828
99383.038740201416658
99425.349281557733775
99436.300146526977187
99418.207228776649572
99391.519863108260324
99371.360851647550589
99358.648618892024388
99343.141179272541194
99319.961100809392519
99292.147664165066089
99265.102265800102032
99245.212927894914174
99237.152412582639954
99243.177706576083438
99260.521859534084797
99281.557580855675042
99300.185431836667703
99316.432278750784462
99332.645167643713648
99348.451821781272884
99360.607593150896719
99368.391569443061599
99377.989908382165595
99397.050372604746372
99426.056741170497844
99458.184929020368145
99482.718113260212704
99492.928837511266465
99489.475924612546805
99481.623138412469416
99480.280604169165599
99491.560441091598477
99511.302336526365252
99526.546085006193607
99524.384733598242747
99503.520262101388653
99475.40152249285893
99456.957005714706611
99457.170102202609996
99473.618856509201578
99497.267485130782006
99519.628645525313914
99535.942675340964342
99543.673206681851298
99541.278570368871442
99529.100640723292599
99513.083594529918628
99502.021444840880577
99503.003528490138706
99516.7635023441253
99541.22987715411
99570.317034346328001
99598.344292055422557
99616.940797487812233
99621.059826168493601
99609.772469986317446
99588.485596994985826
99565.18306932815176
99543.290804484044202
99523.669866381329484
99505.488543254337856
99487.182242660492193
99470.256545817843289
99458.915627679496538
99457.61576116005017
99468.984053337349906
99490.967748826180468
99515.942824785946868
99533.028402559488313
99533.216305031819502
99514.597034035876277
99483.351903909162502
99450.708420337978168
99426.790273700913531
99415.417113282121136
99412.289656830354943
99409.255223635656876
99400.523803627424059
99385.819705453002825
99369.218928093279828
99353.745454051560955
99338.204329463012982
99319.20598215184873
99295.222342949447921
99268.728950301854638
99245.179590927029494
99229.558187195143546
99224.08767524533323
99227.637112944838009
99236.672696159439511
99101.673373055687989
99102.120686924507027
99100.155398328395677
99099.272805204396718
99102.702683887750027
99111.355946076684631
99123.415482624608558
99135.932028689596336
99146.082606015334022
99152.466936053693644
99155.039248884393601
99154.747532426277758
99152.780455741463811
99150.449759312847164
99148.654995764503838
99147.874723894841736
99148.26419102626096
99149.644228499717428
99151.761681850548484
99154.573176380843506
99158.204792639036896
99162.30769903062901
99165.132146328178351
99163.836715074721724
99155.760347689385526
99139.937182012421545
99118.639475240837783
99097.093973758877837
99080.968756906688213
99073.826239140456892
99075.470766852609813
99082.087129746447317
99088.572964937309735
99091.63515232077043
99091.239254150394117
99089.900687527362606
99090.791304509693873
99095.74419712976669
99104.473952858301345
99115.015595026285155
99124.713327997058514
99131.280002064959262
99133.823463061169605
99133.389633085520472
99132.730166268418543
99135.303851744291023
99143.744894419491175
99158.445276807789924
99177.283511808287585
99196.383117948134895
99211.569885810924461
99219.9324593233614
99221.217075648513855
99217.878569341293769
99214.017308006237727
99214.012891042177216
99220.96102098825213
99235.606954456292442
99255.596118978050072
99275.867474052123725
99290.441815223719459
99294.929062776514911
99288.491531028601457
99274.395750192619744
99258.599678400074481
99247.252540793517255
99244.257579266210087
99249.707367894981871
99260.046194167181966
99270.307691907582921
99276.439354845439084
99276.728387329247198
99271.891477894358104
99264.078069608644
99255.741300595371285
99249.077662930299994
99245.831708050871384
99247.078036619350314
99253.270201364415698
99264.01604816854524
99277.667538394292933
99291.453355149671552
99302.166624771722127
99306.97705313883489
99304.591511682403507
99296.164672143175267
99285.187018329510465
99276.306968128716107
99273.741161220299546
99279.668584645478404
99293.398596793049364
99311.777426161395852
99330.566996756184381
99345.74991647261777
99354.730782393977279
99356.910642072019982
99353.388673002831638
99345.924326633888995
99336.198888332452043
99325.413596637969022
99314.18053057162615
99302.731917920988053
99291.327971918100957
99280.345225532961194
99270.139561886171577
99260.871653071371838
99252.405699575785547
99244.357332253348432
99236.299486421456095
99228.010632015008014
99219.686759623247781
99211.88637932043639
99205.371446248158463
99200.941556845151354
99199.195940132660326
99200.306441941487719
99203.941459680951084
99209.32610684633255
99215.457588595891139
99221.432635827091872
99226.626033772205119
99230.725658012641361
99233.634840753918979
99235.332927300041774
99235.636319913261104
99234.099252241256181
99230.097153829294257
99223.135801045529661
99212.959826761900331
99199.876646949298447
99184.710997155780206
99168.705242533396813
99153.238930907071335
99139.561193549961899
99128.680552491758135
99121.106256172512076
99116.901556384400465
99115.635699219914386
99116.714498674671631
99119.391876424284419
99123.192671609736863
99127.665997706004418
99132.657383049081545
99138.223327512663673
99143.851978753489675
99149.476982333580963
99155.174878951322171
99161.008689379203133
99167.646280707282131
99175.941260283216252
99186.61497536690149
99200.279537222610088
99216.925509274456999
99236.033894282823894
99256.433105176896788
99276.38256212885608
99294.147519809324876
99308.760521692573093
99320.426638738295878
99330.22901336364157
99339.869824432767928
99350.948377937500481
99364.172279114485718
99379.179055894855992
99394.669502225529868
99409.024793754026177
99421.010747233071015
99430.442161234022933
99438.251834539274569
99445.996012423740467
99454.945869178540306
99465.627677861848497
99477.313223178163753
99488.180622438405408
99495.921024840383325
99498.734025361409294
99495.996701314201346
99488.384100199080422
99477.510272036219249
99465.321448784859967
99453.484623177995672
99442.87138060280995
99433.400851701604552
99424.479928046726855
99415.580724156316137
99406.640681292425143
99398.314965668163495
99391.776083802353241
99388.269481409050059
99388.527926622453379
99392.431688888042117
99398.890223924565362
99406.125742986652767
99412.257564432176878
99415.889016407352756
99416.412712537043262
99414.195162483272725
99410.389359645036166
99406.215233618757338
99402.459124065440847
99399.065574543099501
99395.240636140893912
99389.804686315677827
99381.722074244593387
99370.642648652254138
99357.263472903534421
99343.121927379543195
99330.063457177777309
99319.558271312256693
99312.313370310163009
99308.000067785353167
99305.531047851385665
99303.674607272769208
99301.429126081158756
99298.532569361865171
99295.634645603728131
99293.745204378064955
99293.904019454785157
99296.837574681776459
99302.642684409191133
99310.697516258485848
99319.70602937269723
99328.309864158320124
99335.253469433242572
99339.801166995370295
99341.406490571098402
99339.865491406890214
99335.162809744346305
99327.392017954451148
99317.191585796783329
99305.274568068416556
99292.489282896014629
99279.920889402477769
99268.637268031583517
99259.660370766432607
99253.817428059104714
99251.322242576105054
99251.653351700137137
99253.74247287826438
99256.281349858691101
99257.974335125516518
99257.747442099935142
99255.116016791202128
99250.443636994328699
99244.752578498664661
99239.25311334709113
99234.966884726454737
99232.624881750030909
99232.581505052701687
99234.686912694218336
99238.363302609694074
99242.786530297176796
99247.074591747499653
99250.483259895408992
99252.352058627206134
99252.079360473071574
99587.059550534380833
99307.199063759107958
99292.990547560897539
99359.233686413746909
99482.855713014432695
99483.186692572096945
99403.326045423498726
99405.374986693626852