/*--------------------------------*- C++ -*----------------------------------*\
  =========                 |
  \\      /  F ield         | OpenFOAM: The Open Source CFD Toolbox
   \\    /   O peration     | Website:  https://openfoam.org
    \\  /    A nd           | Version:  12
     \\/     M anipulation  |
\*---------------------------------------------------------------------------*/
FoamFile
{
    format      ascii;
    class       volScalarField;
    location    "0.0064";
    object      pPrime2Mean;
}
// * * * * * * * * * * * * * * * * * * * * * * * * * * * * * * * * * * * * * //

dimensions      [2 -2 -4 0 0 0 0];

internalField   nonuniform List<scalar> 
75962
(
926294.4401969909668
906432.74423027038574
897771.07712936401367
891557.99555778503418
886505.22612953186035
882044.56946563720703
877762.02740669250488
873541.5661506652832
869296.34801292419434
865040.80127143859863
860807.67243576049805
856635.79133796691895
852547.50900650024414
848469.08660507202148
844385.73135185241699
840429.70602607727051
836678.86110687255859
833105.97726821899414
829624.58768653869629
826143.52965927124023
822631.41480445861816
819125.46308708190918
815708.08128547668457
812419.10442352294922
809305.39794540405273
806423.06721305847168
803807.00103759765625
801467.128662109375
799399.83049583435059
797577.5628833770752
795964.7049560546875
794521.43484115600586
793209.29478454589844
791986.35435485839844
790801.89141654968262
789608.01166152954102
788391.07707405090332
787163.62922096252441
785945.53236961364746
784738.68955612182617
783529.48662948608398
782299.78857040405273
781028.79866600036621
779693.98823547363281
778277.09970474243164
776765.47466659545898
775157.55916976928711
773452.61108589172363
771656.24973678588867
769765.0929069519043
767771.19269752502441
765672.84866523742676
763460.92349624633789
761129.83652877807617
758703.59598159790039
756212.07155418395996
753677.49825668334961
751112.99846839904785
748528.05859756469727
745941.78626441955566
743391.49015808105469
740919.74722480773926
738548.73538017272949
736273.79753112792969
734079.84239196777344
731955.15984344482422
729889.93545722961426
727868.83007431030273
725874.71879959106445
723898.94140243530273
721944.33861923217773
720007.70209312438965
718073.57062530517578
716127.7381477355957
714169.58057022094727
712202.13758087158203
710220.19795608520508
708213.15650177001953
706171.83282279968262
704089.67763710021973
701970.79114151000977
699832.29905128479004
697698.57009506225586
695588.29900741577148
693503.75714492797852
691436.21193695068359
689371.50850677490234
687301.76735687255859
685240.06447410583496
683216.18994522094727
681252.30038642883301
679345.62314414978027
677479.75259399414062
675643.24367904663086
673843.18027305603027
672103.3211784362793
670439.12627029418945
668842.07339286804199
667284.51169967651367
665735.15679931640625
664175.60766983032227
662608.28118324279785
661047.54129028320312
659504.14357566833496
657978.09334754943848
656464.97805786132812
654959.98234367370605
653450.9179573059082
651918.10500335693359
650342.31707572937012
648714.32597923278809
647037.28054809570312
645317.96000480651855
643556.19364547729492
641743.17623901367188
639868.78996467590332
637931.77594757080078
635937.52152442932129
633887.64138603210449
631775.32134819030762
629589.48970031738281
627321.57245254516602
624973.46380996704102
622555.94025611877441
620083.17558670043945
617570.0566349029541
615036.65835952758789
612505.31744766235352
609993.35218048095703
607511.31591606140137
605062.76196670532227
602647.5468635559082
600267.99857711791992
597934.82294464111328
595663.62711715698242
593467.03000068664551
591348.30955505371094
589300.76748085021973
587315.13411140441895
585384.69112968444824
583504.18733215332031
581666.68707466125488
579863.63552474975586
578085.5053768157959
576325.16336822509766
574581.00529861450195
572854.65372085571289
571146.1883430480957
569448.16062545776367
567743.74103164672852
566010.8461742401123
564228.01640129089355
562384.12327194213867
560481.35153770446777
558533.13461685180664
556556.7889575958252
554568.33352470397949
552580.72668647766113
550602.68376731872559
548635.59737777709961
546668.63347816467285
544682.18332672119141
542661.89528656005859
540609.41053009033203
538536.98443412780762
536453.11556816101074
534355.19260025024414
532234.34953117370605
530087.86763381958008
527926.00608253479004
525765.05334091186523
523615.71734619140625
521481.27540016174316
519364.77886199951172
517272.46107482910156
515210.54733467102051
513183.00054931640625
511191.72525024414062
509235.95954132080078
507312.94211578369141
505420.38143157958984
503558.989013671875
501733.61603736877441
499951.15619659423828
498215.33628082275391
496522.1424503326416
494861.17011642456055
493221.62247467041016
432113.48224449157715
430736.47245216369629
429350.57518768310547
427953.04754066467285
426541.84343147277832
425117.66880416870117
423682.77290725708008
422237.77958106994629
420781.08996391296387
419311.77877616882324
417832.32434272766113
416347.60517883300781
414862.23241806030273
413378.50441932678223
411895.50648498535156
410408.34790802001953
408908.99241638183594
407389.8609504699707
405848.13425827026367
404286.80150032043457
402712.19138145446777
401130.43458366394043
399544.97288703918457
397956.48422622680664
396365.45565605163574
394775.48989295959473
393193.37019157409668
391624.64371109008789
390069.98775863647461
388526.66486167907715
386993.04748916625977
385470.75606346130371
383963.90435218811035
382478.64502716064453
381023.09918975830078
379605.63593673706055
378231.51157379150391
376900.31869506835938
375605.20481872558594
374334.64788436889648
373076.97575569152832
371825.40836524963379
370580.46200370788574
369348.07497215270996
368135.15569686889648
366945.27640914916992
365776.66887474060059
364623.59502410888672
363480.23420143127441
362344.36883163452148
361218.0477123260498
360105.47389221191406
359010.57206344604492
357935.32787895202637
356878.82297325134277
355836.29936027526855
354799.34441566467285
353758.58414268493652
352707.79840469360352
351646.82382774353027
350581.01883125305176
349517.55722999572754
348460.90193367004395
347410.28108978271484
346360.93570709228516
345307.47455978393555
344246.40699195861816
343176.28161239624023
342096.29685592651367
341005.95276641845703
339906.30108451843262
338800.12815284729004
337689.7071590423584
336574.7006721496582
335452.72315216064453
334322.10949516296387
333183.70211982727051
332039.35788536071777
330889.11868095397949
329730.18660545349121
328558.73781585693359
327372.0236873626709
326168.1712646484375
324944.94481468200684
323699.85103988647461
322431.56976699829102
321140.71882629394531
319829.13387107849121
318498.57578086853027
317149.53181457519531
315780.9532413482666
314391.35906028747559
312980.9259147644043
311553.02814674377441
310113.79611778259277
308669.94303894042969
307226.10740089416504
305783.81224822998047
304343.12807464599609
302905.83315849304199
301477.04437255859375
300063.71309089660645
298671.91871070861816
297305.26548385620117
295964.46671485900879
294647.34263229370117
293349.82313919067383
292067.99173355102539
290799.46243095397949
289543.01443481445312
288297.7015438079834
287063.46879386901855
285842.67850494384766
284640.04910278320312
283459.9731388092041
282303.54933547973633
281167.95650291442871
280048.67035102844238
278943.01975440979004
277852.04483032226562
276778.82212448120117
275724.66406059265137
274686.9897289276123
273660.52197074890137
272640.20770072937012
271623.09146308898926
270607.98051071166992
269594.11173439025879
268580.34297180175781
267565.36943244934082
266548.48148727416992
265529.52925872802734
264507.90035438537598
263481.49740219116211
262446.75773620605469
261399.50196075439453
260335.64098167419434
259251.01667022705078
258141.08685684204102
257001.48758888244629
255829.90126991271973
254627.63040351867676
253400.25209999084473
252156.21617889404297
250903.69192504882812
249647.27868270874023
248386.63094902038574
247118.05694389343262
245837.53097152709961
244542.41303443908691
243231.16837310791016
241902.25406265258789
240554.06257629394531
239186.20981216430664
237800.80429267883301
236402.21358680725098
234995.61550712585449
233585.61084365844727
232175.85833549499512
230769.41658782958984
229369.31596565246582
227978.79066276550293
226601.04837036132812
225238.52675247192383
223892.3077278137207
222562.6895923614502
221250.31769180297852
219956.84140586853027
218684.22714233398438
217433.25223350524902
216202.60758972167969
214989.5256462097168
213791.55727577209473
212608.52016830444336
211443.06303024291992
210300.1557788848877
209185.56595039367676
208103.85995864868164
207057.13199615478516
206045.39977836608887
205068.20553588867188
204125.72665596008301
203218.09432983398438
202343.66721153259277
201497.86678123474121
200674.07174491882324
199865.95222854614258
199069.76764869689941
198285.06011962890625
197513.42196655273438
196756.35140419006348
196013.79942321777344
195284.23325347900391
194565.81881332397461
193857.55855941772461
193159.38308906555176
192471.4172477722168
191793.21858215332031
191123.67959785461426
190461.45746994018555
189805.38394355773926
189154.63397789001465
188508.61368370056152
187866.73858642578125
187228.05411720275879
186590.86711692810059
185952.72275543212891
185310.94428443908691
184663.23866653442383
184007.48406600952148
183340.9633731842041
182660.30270576477051
181962.77932929992676
181248.17812728881836
180519.17963027954102
179779.45172309875488
179030.82724952697754
178271.90305519104004
177498.9969425201416
176708.56974029541016
175899.2935791015625
175072.94845390319824
174234.15010643005371
173389.36784744262695
172545.78686904907227
171710.12864875793457
170887.73731994628906
170081.77742958068848
169292.8089427947998
168518.90615463256836
167756.49151420593262
167002.11984634399414
166254.50311279296875
165515.31720352172852
164788.1312255859375
164076.27150344848633
163381.17266464233398
162702.38013076782227
162038.92795372009277
161390.53811645507812
160757.70824432373047
160141.12938117980957
159541.55559349060059
158960.44177055358887
158400.56428337097168
157865.62849235534668
157359.14236259460449
156883.48733901977539
156439.8793773651123
156028.89848518371582
155650.82746315002441
155305.45160102844238
154991.71096038818359
154707.53546714782715
947161.24221420288086
920229.6638298034668
908265.47980499267578
899295.13543701171875
892285.06415176391602
886660.59597587585449
881713.55462455749512
877037.55041885375977
872420.8174877166748
867799.30509757995605
863132.82573890686035
858429.17989730834961
853752.68829345703125
849133.53297805786133
844597.15058326721191
840279.1381721496582
836284.46331214904785
832562.63945388793945
829059.94167137145996
825699.93599891662598
822427.06488990783691
819217.12312889099121
816073.14846229553223
813002.20302391052246
810011.25934791564941
807148.08419990539551
804463.92304420471191
801979.60822105407715
799721.09976577758789
797696.09747505187988
795909.44718170166016
794353.2327938079834
792995.59284400939941
791788.15491485595703
790659.71182250976562
789556.41265678405762
788446.24334907531738
787313.09416198730469
786154.23174667358398
784963.67921257019043
783718.84793281555176
782403.36962699890137
781007.64664649963379
779530.67890357971191
777968.31183815002441
776313.16694068908691
774565.2515926361084
772729.22701835632324
770812.62880706787109
768823.8833065032959
766759.29423904418945
764605.22018432617188
762358.76985168457031
760020.06166839599609
757602.82045555114746
755120.05922698974609
752584.14135551452637
750007.96615219116211
747408.23645782470703
744813.63240432739258
742267.22484397888184
739814.38365745544434
737481.8134822845459
735265.43588638305664
733147.38788223266602
731110.38381004333496
729140.81646156311035
727217.19684219360352
725315.22726821899414
723423.18951034545898
721543.43398284912109
719670.87057113647461
717792.40985298156738
715900.30782890319824
713999.19766998291016
712091.5312671661377
710168.80060577392578
708218.13448905944824
706231.67598152160645
704205.21520614624023
702137.55276107788086
700043.65072822570801
697951.16166877746582
695882.18600845336914
693834.89306640625
691793.32737731933594
689744.49592971801758
687688.04253768920898
685642.60068702697754
683638.39317512512207
681695.65315246582031
679808.47452926635742
677956.34442138671875
676122.66149139404297
674309.03877639770508
672535.66808128356934
670823.3694953918457
669168.42362785339355
667544.8824520111084
665918.85917854309082
664268.44537734985352
662597.43517303466797
660929.79145812988281
659285.3994083404541
657669.80976104736328
656078.09889793395996
654503.27178192138672
652934.02104187011719
651353.33980178833008
649745.72079658508301
648101.79331207275391
646418.23332405090332
644694.74080848693848
642927.45413398742676
641109.16267776489258
639237.92617416381836
637320.45188331604004
635362.03063011169434
633356.46722221374512
631289.17826461791992
629145.68951225280762
626918.22740364074707
624607.56964874267578
622222.65403175354004
619776.69459533691406
617283.57328796386719
614759.48992347717285
612224.45893287658691
609696.07559204101562
607185.88508224487305
604700.26456451416016
602244.57134056091309
599826.05385589599609
597455.68181991577148
595147.3310718536377
592913.02335548400879
590756.52519226074219
588672.05661010742188
586649.40500259399414
584680.65896034240723
582761.18773651123047
580888.34976577758789
579059.37234687805176
577266.68474197387695
575499.74467086791992
573752.58286285400391
572026.55703735351562
570323.8586483001709
568638.70617866516113
566953.80245780944824
565245.03555107116699
563490.49044227600098
561679.11893272399902
559814.57275772094727
557910.16965293884277
555981.3394775390625
554040.95885467529297
552100.57875633239746
550169.36953353881836
548248.52001571655273
546326.83382034301758
544386.34294128417969
542415.1219310760498
540413.90946006774902
538390.55622291564941
536349.36452865600586
534285.71295738220215
532190.31621170043945
530059.84520149230957
527904.73296165466309
525744.86642265319824
523597.01643180847168
521469.62818336486816
519366.46536064147949
517289.32808876037598
515237.3851261138916
513209.99031066894531
511210.02727699279785
509241.67507553100586
507306.82139015197754
505405.93609809875488
503540.10433387756348
501711.68661499023438
499924.07357215881348
498179.1533260345459
496473.39226913452148
494797.29748344421387
493140.72853088378906
491497.35104560852051
433373.23137283325195
431974.18475341796875
430569.4121208190918
429156.85457229614258
427732.74115753173828
426294.22954368591309
424842.39916801452637
423380.91498756408691
421911.43289375305176
420432.427734375
418942.84330558776855
417445.29011344909668
415945.27351379394531
414448.00583648681641
412955.87292289733887
411467.06783676147461
409975.07657051086426
408470.27663803100586
406944.26306533813477
405394.5062198638916
403825.25181579589844
402244.38176918029785
400659.23872184753418
399073.91368103027344
397488.92948150634766
395903.41644287109375
394318.53932571411133
392738.65462303161621
391168.06708908081055
389607.38004493713379
388054.45875930786133
386508.4479866027832
384971.66536712646484
383449.15641403198242
381948.96155166625977
380482.13770484924316
379059.35279273986816
377685.36674690246582
376356.03207206726074
375060.19562911987305
373784.37919807434082
372517.82752227783203
371256.20149803161621
370002.13202857971191
368762.25718688964844
367542.71367835998535
366345.59675979614258
365167.81288909912109
364002.72721481323242
362843.99041175842285
361689.1214714050293
360541.07198143005371
359407.24245643615723
358295.86589813232422
357211.76797103881836
356153.51537704467773
355113.41063499450684
354079.99111557006836
353042.00481033325195
351991.95792007446289
350928.02808380126953
349854.0157527923584
348776.93352508544922
347703.05453491210938
346634.42413520812988
345568.11967086791992
344498.74260711669922
343421.82636451721191
342335.62129974365234
341240.49909591674805
340137.86409950256348
339029.9830150604248
337919.9942798614502
336810.23878860473633
335699.63104248046875
334583.88931083679199
333459.05545234680176
332324.53385925292969
331181.74717903137207
330030.57069778442383
328868.24801254272461
327691.67543792724609
326499.27080345153809
325289.89110374450684
324061.16843605041504
322810.1072883605957
321535.24065971374512
320237.60818099975586
318919.66681289672852
317583.7481517791748
316230.89638900756836
314860.51950263977051
313470.85895347595215
312060.97793006896973
310633.29988479614258
309194.46476936340332
307752.88584327697754
306314.45713996887207
304880.39761161804199
303449.24853515625
302021.17840194702148
300600.52630805969238
299194.71232795715332
297811.11996841430664
296454.5028133392334
295125.76972770690918
293822.43177032470703
292540.68744850158691
291278.05715370178223
290034.08805465698242
288808.35629272460938
287598.77755165100098
286402.55703544616699
285218.98260116577148
284050.67962646484375
282901.6275520324707
281773.91511535644531
280666.17178726196289
279575.01816940307617
278498.41340255737305
277437.61685180664062
276395.6706657409668
275373.69057464599609
274368.7874641418457
273375.40401077270508
272388.18403816223145
271403.5589656829834
270419.27155876159668
269433.29430770874023
268443.84522247314453
267450.28148460388184
266453.63109970092773
265455.61871337890625
264456.87271499633789
263455.46318054199219
262446.92505073547363
261425.45574188232422
260385.193359375
259320.81892967224121
258227.63969802856445
257102.0767765045166
255942.58728218078613
254751.01285362243652
253532.85599517822266
252295.9388370513916
251047.58196449279785
249791.72446823120117
248528.06671905517578
247254.07942771911621
245967.74171829223633
244668.37411117553711
243355.32579231262207
242026.69862365722656
240679.89828681945801
239313.61804580688477
237929.36845970153809
236531.10538101196289
235123.56042861938477
233711.00637435913086
232297.16374206542969
230885.42389488220215
229479.05995941162109
228081.22049713134766
226694.76150512695312
225321.76314735412598
223963.5112247467041
222621.10077476501465
221296.1839599609375
219990.85147857666016
218706.5720100402832
217443.07683372497559
216198.29665756225586
214969.6315746307373
213755.7650203704834
212557.62448501586914
211378.50522613525391
210223.34610939025879
209097.39862823486328
208004.65401077270508
206946.7969799041748
205923.64157676696777
204934.57980728149414
203979.72140121459961
203059.52134132385254
202173.07596015930176
201316.67712020874023
200483.97487449645996
199668.00815391540527
198863.78363227844238
198069.7304630279541
197287.23554229736328
196518.65553855895996
195765.38253402709961
195027.18717193603516
194303.00095558166504
193592.10527610778809
192894.62471389770508
192211.0214958190918
191541.07803726196289
190883.40057563781738
190235.84059143066406
189596.42568778991699
188964.0915584564209
188338.68050765991211
187720.32732391357422
187108.34535980224609
186500.24982070922852
185891.86416435241699
185278.5806999206543
184656.73493003845215
184023.83401298522949
183377.65325546264648
182715.64646148681641
182035.83371353149414
181338.42313003540039
180626.29188919067383
179903.32939147949219
179171.55006980895996
178429.47822380065918
177673.04393196105957
176898.11362266540527
176102.90531539916992
175288.74979782104492
174459.48537635803223
173620.37548637390137
172777.62896728515625
171938.3538932800293
171110.12994003295898
170299.5072135925293
169509.54937362670898
168738.4604606628418
167980.68007850646973
167230.15709114074707
166483.72360992431641
165742.40882110595703
165010.0643253326416
164290.85146522521973
163587.53958511352539
162901.40261268615723
162233.05217933654785
161582.93812370300293
160950.97577285766602
160335.99233245849609
159736.18513298034668
159150.71653175354004
158581.16873931884766
158031.60044479370117
157507.03189659118652
157011.74257659912109
156548.63471794128418
156119.6601448059082
155726.31706047058105
155369.54718017578125
155048.9354362487793
154761.91118240356445
918827.23072814941406
904111.51122665405273
897297.18048286437988
891186.65345764160156
885819.17332077026367
881140.18620109558105
876993.57077026367188
873117.20148277282715
869270.42651176452637
865347.54312896728516
861296.20464515686035
857046.73061752319336
852604.25164413452148
848058.82117462158203
843481.11446189880371
839044.27632904052734
834929.57370567321777
831135.71402931213379
827588.76656913757324
824250.99868965148926
821112.26385307312012
818117.65219116210938
815215.70045852661133
812417.34088706970215
809706.43395805358887
807080.06962394714355
804552.61058616638184
802137.1939754486084
799858.7752742767334
797746.92514801025391
795838.68206024169922
794158.45325660705566
792699.87524795532227
791407.5972785949707
790213.24409294128418
789078.49664306640625
787992.65927886962891
786940.95671653747559
785888.05798721313477
784784.64556312561035
783593.40689468383789
782300.69588279724121
780902.09689331054688
779397.78204345703125
777786.82090187072754
776057.69783210754395
774210.39375686645508
772271.89320373535156
770264.59269905090332
768190.84420967102051
766044.98394393920898
763815.0283317565918
761503.22351455688477
759124.54202842712402
756693.35221862792969
754209.93176078796387
751669.71296119689941
749081.92680358886719
746470.64564323425293
743874.4814281463623
741332.82015037536621
738879.76640701293945
736538.10304069519043
734314.71467971801758
732199.16911888122559
730173.09900283813477
728221.35660552978516
726327.76907157897949
724469.67710494995117
722628.13975524902344
720797.12932586669922
718971.12727165222168
717145.95198059082031
715318.47041511535645
713491.36330413818359
711666.97621726989746
709837.5269947052002
707991.71624755859375
706114.89949798583984
704192.54418563842773
702215.10504722595215
700194.62138938903809
698162.32261657714844
696140.37236213684082
694124.52902603149414
692096.0777702331543
690045.9141731262207
687982.62905502319336
685929.94221687316895
683914.76639556884766
681953.78213310241699
680044.51450157165527
678167.91007614135742
676305.87335777282715
674455.1077823638916
672633.34171295166016
670859.81560516357422
669132.61926651000977
667428.1300106048584
665714.80072975158691
663973.21915817260742
662211.43655014038086
660458.73500823974609
658739.93978881835938
657058.13369560241699
655403.09893798828125
653763.7714672088623
652134.09051513671875
650508.17940330505371
648877.35395622253418
647228.54858779907227
645549.90190315246582
643834.44542503356934
642076.13358306884766
640271.61352157592773
638427.15939712524414
636554.18339157104492
634654.02226448059082
632711.56016540527344
630704.17263603210449
628617.03048896789551
626445.85148429870605
624192.81880950927734
621865.26975250244141
619473.83830451965332
617029.15262985229492
614541.63381576538086
612024.70492362976074
609493.89352416992188
606964.70671463012695
604451.76469802856445
601969.30084991455078
599529.29315948486328
597140.17074584960938
594810.16410636901855
592546.47402763366699
590351.54416847229004
588221.29632186889648
586149.13151359558105
584130.51643180847168
582164.13386917114258
580251.10833930969238
578391.56608009338379
576578.3231029510498
574796.70942687988281
573035.11748123168945
571294.10334777832031
569578.64123344421387
567885.94498062133789
566199.57026100158691
564494.89664840698242
562749.61129760742188
560954.18408584594727
559115.97239685058594
557248.82657432556152
555367.31782150268555
553481.37441444396973
551598.14439010620117
549722.44591522216797
547852.15374183654785
545977.81734466552734
544087.83160972595215
542176.57132339477539
540244.65630149841309
538293.10018730163574
536318.05268096923828
534311.46975135803223
532265.38321495056152
530179.284423828125
528065.88409614562988
525947.24135971069336
523842.33289337158203
521759.65771102905273
519699.13107490539551
517655.41500854492188
515621.38955879211426
513594.7167854309082
511582.06074142456055
509594.7702465057373
507641.83894157409668
505728.09396171569824
503854.6719970703125
502019.05440521240234
500217.35887908935547
498447.34773063659668
496706.98099327087402
494991.33730888366699
493293.98876190185547
491610.73849296569824
433322.97407913208008
431889.68635177612305
430451.91049575805664
429006.23300361633301
427547.44772529602051
426072.75441932678223
424585.17910766601562
423090.61405181884766
421591.94054412841797
420087.85016822814941
418576.81715393066406
417060.31843376159668
415542.46266937255859
414027.96656227111816
412519.61295127868652
411015.71117973327637
409509.213623046875
407990.26001930236816
406450.96125984191895
404889.37284469604492
403310.28918266296387
401722.35849571228027
400134.12493705749512
398551.01550483703613
396973.94002532958984
395400.59246444702148
393829.38668060302734
392261.86989212036133
390700.63927841186523
389145.7990665435791
387595.49576950073242
386049.60878944396973
384511.52321243286133
382987.46039009094238
381486.49506950378418
380020.27969360351562
378598.97803497314453
377225.01129913330078
375890.79887962341309
374582.81967735290527
373288.5108470916748
372001.08002853393555
370720.33423614501953
369450.69078063964844
368198.1036434173584
366966.72981643676758
365756.30227088928223
364562.14575958251953
363377.71048164367676
362197.99167060852051
361021.78353309631348
359852.81568145751953
358699.6261157989502
357572.63629531860352
356478.1179313659668
355413.63740158081055
354369.10556983947754
353331.94272804260254
352291.2105770111084
351238.98775291442871
350171.31703567504883
349089.75986099243164
348001.00556182861328
346912.9823169708252
345829.79277992248535
344749.59064483642578
343666.71025085449219
342575.8031005859375
341474.83012962341309
340365.2130069732666
339250.2185173034668
338133.84955024719238
337020.1587085723877
335911.26764106750488
334804.91540718078613
333694.96972846984863
332575.57460784912109
331444.68611717224121
330302.8288516998291
329149.30181121826172
327981.3280200958252
326796.68281936645508
325595.36979293823242
324377.87534141540527
323142.73506736755371
321887.08715438842773
320609.20153999328613
319309.80715370178223
317991.11807441711426
316655.23927879333496
315303.30289268493652
313935.16314888000488
312549.42649841308594
311144.92553901672363
309723.52175903320312
308291.65473556518555
306858.25432014465332
305430.14802169799805
304009.08048439025879
302593.13991355895996
301181.24309539794922
299776.35655975341797
298385.16961097717285
297015.20998954772949
295671.67675018310547
294355.66740989685059
293064.95825004577637
291796.89652252197266
290550.92770385742188
289328.19136428833008
288128.80044555664062
286949.97367286682129
285787.57823753356934
284639.44011306762695
283506.82711791992188
282392.92987632751465
281299.75088119506836
280226.32253646850586
279169.79465293884277
278128.39666175842285
277103.14674758911133
276096.3043041229248
275108.24713706970215
274136.13601303100586
273175.18362998962402
272220.64927673339844
271268.3636531829834
270314.11693954467773
269353.78274726867676
268384.81234931945801
267407.74441528320312
266425.86509132385254
265443.10110282897949
264461.3804817199707
263479.1159839630127
262491.25249481201172
261490.60543060302734
260469.69052505493164
259422.21356582641602
258343.64785766601562
257231.27614402770996
256084.58893013000488
254906.06305503845215
253701.24422645568848
252477.25858306884766
251240.03757858276367
249992.03824806213379
248732.48714256286621
247459.63834953308105
246172.86896705627441
244872.7865104675293
243559.53472709655762
242231.63255310058594
240886.88485908508301
239524.52802848815918
238146.41869735717773
236756.2220287322998
235357.57728385925293
233953.36915397644043
232546.21029090881348
231139.05761909484863
229735.07694244384766
228337.26511573791504
226948.23774337768555
225570.10056686401367
224204.50198173522949
222853.0045337677002
221517.47749519348145
220199.86187934875488
218901.35114288330078
217621.76740455627441
216359.81831932067871
215114.20287704467773
213884.65585899353027
212672.66386032104492
211481.38040924072266
210314.92055320739746
209177.22072601318359
208071.08053588867188
206997.80708312988281
205957.56283187866211
204950.25592994689941
203976.3111572265625
203036.42422866821289
202130.41117668151855
201255.84748458862305
200407.59788703918457
199578.96349334716797
198764.03165435791016
197959.80053901672363
197166.66747665405273
196387.02848434448242
195623.10527992248535
194875.69772338867188
194144.47585678100586
193429.20723152160645
192730.59883117675781
192049.55855560302734
191385.85746765136719
190737.40954208374023
190100.92767715454102
189473.50970268249512
188853.92234802246094
188242.68918800354004
187640.80404663085938
187047.9590892791748
186461.34076499938965
185875.95781135559082
185286.28085136413574
184687.89674186706543
184077.80536842346191
183453.50983238220215
182812.33532333374023
182152.32205963134766
181473.88672828674316
180780.16341400146484
180075.1711540222168
179360.95429229736328
178635.8789005279541
177895.43688583374023
177135.03373718261719
176352.72687911987305
175550.14553642272949
174731.31399917602539
173900.93993949890137
173063.91361999511719
172226.41904449462891
171396.62269973754883
170583.31082153320312
169792.24055480957031
169023.11139678955078
168270.05027198791504
167525.35017013549805
166783.95092391967773
166045.50729751586914
165313.19267845153809
164591.0444221496582
163882.15287208557129
163188.47138023376465
162511.54992485046387
161853.02072525024414
161213.99344825744629
160594.11061859130859
159991.5633602142334
159404.48611450195312
158832.80144691467285
158278.9694709777832
157747.02168273925781
157240.86140823364258
156763.27593994140625
156316.32914924621582
155902.34687614440918
155524.16394805908203
155184.01633834838867
154881.78314781188965
154613.94019317626953
936435.60536003112793
913338.80749893188477
902471.45370101928711
893770.83979797363281
886401.56494903564453
880127.95091819763184
874844.91473197937012
870276.2871036529541