/*--------------------------------*- C++ -*----------------------------------*\
  =========                 |
  \\      /  F ield         | OpenFOAM: The Open Source CFD Toolbox
   \\    /   O peration     | Website:  https://openfoam.org
    \\  /    A nd           | Version:  12
     \\/     M anipulation  |
\*---------------------------------------------------------------------------*/
FoamFile
{
    format      ascii;
    class       volScalarField;
    location    "0.0064";
    object      rho_0;
}
// * * * * * * * * * * * * * * * * * * * * * * * * * * * * * * * * * * * * * //

dimensions      [1 -3 0 0 0 0 0];

internalField   nonuniform List<scalar> 
75962
(
1.154139812468394366
1.152081449751912956
1.1511672669359040988
1.1514383358995525786
1.1501566966976526363
1.1491433157730339687
1.1489969525413916696
1.1493802801381463041
1.1501124716777697543
1.1506779853759971921
1.1509270373288420508
1.1508152153502160253
1.1506378341579974744
1.1512545340537720939
1.1516750347734845406
1.150816640543763647
1.1494661777923167456
1.1486527485894966194
1.148719829604468945
1.1493274670816748806
1.149717626027896733
1.1495574948413855854
1.1493121004001696228
1.149420820317519798
1.1497733709732971263
1.1499951710315274855
1.150029937991941198
1.1499297163446413617
1.1495093098345718907
1.1487365960517015306
1.1479614982646486609
1.1474346813403224488
1.1471083097070073897
1.1470519786832775733
1.1473520222160278337
1.1478476151516008308
1.1481503771373426925
1.1479731286147321079
1.1473224107930246607
1.1465558559663335814
1.1460496184513668805
1.1459185998242005233
1.1460750148941956095
1.1463835424500650184
1.1466848116757530907
1.1467646626235465934
1.1465430309864266256
1.1461613131692909295
1.1458328942959223884
1.1456211599294221504
1.1455920474385639096
1.1457754363296215327
1.1459951773747514281
1.1459911475956834348
1.1456680156554894801
1.1451535066274625141
1.1446289356987124908
1.1442927720345881237
1.144298470410102464
1.1445850325485571464
1.1449117213949140393
1.1451206091303010037
1.1452381573492831368
1.1452769509967175576
1.1451374063315282736
1.1447923186251893757
1.1445084727893817256
1.1445730282656270127
1.1449945491345789872
1.1454577386098874214
1.1457174364693056834
1.1457292664069425037
1.1455183005487536985
1.1451167923035610041
1.1446208930188837005
1.1442650821167137387
1.1442743708333569241
1.1447099802213036579
1.1453755368480338372
1.1459453778684316472
1.1461830667700887432
1.1460383527456865504
1.145654573049492031
1.1452777793389690153
1.1451862836865285278
1.1455268743775564033
1.146167265885035258
1.1467099274744259052
1.1467944649466950136
1.1464097294014248263
1.1458716099339401051
1.1455313743572836938
1.1455293798357417678
1.1457724196458156651
1.1460847698744265344
1.1463256476246721505
1.1464746935197467348
1.1465925179823031055
1.1467523104251511334
1.1469702623186073254
1.1471995973770177102
1.1473758783086283053
1.1474722105479908674
1.1474830217270104438
1.1473868617329383568
1.1471586541459966035
1.1468318180118854954
1.1464978569994854762
1.1462362337438118942
1.1460539256217163739
1.1459039146527203457
1.145761126137888386
1.1456501387057786978
1.1456133891852895434
1.1456717065911798947
1.1458196195852241583
1.1460444917641792184
1.146335886148051264
1.146674180168390178
1.1470127174014792537
1.1473112099293911736
1.147560737664975905
1.1477429116715989199
1.1478083540748491576
1.147690624054212627
1.1473521532406278922
1.1468280461935338455
1.1462498082163696811
1.1458071715777220501
1.1456699387753221941
1.1459133289680889511
1.1464575918970709711
1.1471130933022051224
1.147660323320255582
1.1479815282385152919
1.1480843294062197391
1.1480417311385675561
1.1479207943057834207
1.1477471233316804966
1.1475244410291260966
1.1472944031644718432
1.147127992238682781
1.1470802835121829411
1.1471568555373090614
1.1473329857952354605
1.1475856098559717999
1.1478950605728406309
1.1482274802538483538
1.1485267107157948185
1.1487296117015517449
1.1487923041293037763
1.1486958048330919713
1.1484578071897442175
1.1481204772069677489
1.1477185165394701016
1.1472993552566697062
1.1469116311884386405
1.1466130132825620436
1.146465716591999584
1.146512154587133292
1.1467595128590786224
1.1471799414995189625
1.1477286399216941604
1.1483650839534671473
1.1490656874427700451
1.1498147248104975127
1.1505871760902151024
1.1513455425677245891
1.1520449317919154719
1.1526414335849934911
1.1531093417689897151
1.1534377334599625886
1.1536329352312781893
1.1537066466767762485
1.1536738560926471653
1.153559849806806259
1.153402795080058052
1.1532471837115436664
1.1531324318727016465
1.1530795727636207193
1.1530853221879906467
1.1531231690262755407
1.1531570867051381679
1.1531577539342645622
1.1531132739677432131
1.1530346312008945553
1.1529493179840928363
1.1528922921232942489
1.1513515010559804974
1.1512540533074508975
1.1511928057012592586
1.1511814730193472567
1.1512071520322195717
1.1512449787859191375
1.1512785183181908355
1.151308502626079644
1.1513433910409112126
1.1513861886290424064
1.1514275255827419731
1.1514540461671460836
1.1514588600630548676
1.1514485658298780901
1.1514386170345463078
1.1514438551122467835
1.1514711473591838775
1.1515220951630680268
1.1515948666367805675
1.1516857745507151911
1.1517796808934031016
1.1518503649315401383
1.1518641420579271983
1.1517922200466466087
1.151632328664241367
1.1514150132788405489
1.1511952487417309587
1.1510328710043706835
1.1509646668956199367
1.1509903258647258273
1.1510818279564052347
1.1512020234329773949
1.1513222658364183904
1.1514302747561031559
1.1515256918899532401
1.1516085539032578922
1.1516734746533565659
1.1517150665609428017
1.1517340656115691022
1.1517372400921177533
1.1517320442103677891
1.1517230655770394065
1.1517130009588056883
1.1517066583211061914
1.1517155503701272945
1.1517565490339380929
1.1518451581487683111
1.1519838652987695049
1.1521561368038981676
1.1523293066334052703
1.1524687120521397432
1.1525498273247534176
1.1525694799428032322
1.1525474307488616788
1.1525194622042402859
1.1525239301068386233
1.1525850979276619501
1.1527016545455313068
1.1528445672760463392
1.1529685736118508999
1.1530291274844963745
1.1530031422710222966
1.1529029333043281369
1.1527696227023607189
1.1526547866781011731
1.1526001899273567997
1.1526218030480381849
1.1527049157315270023
1.1528149552909525699
1.1529146361335556037
1.1529777910548342224
1.1529934760333306887
1.1529660117599811464
1.1529076968532887548
1.1528350332693060309
1.1527643223946251183
1.1527115043251445758
1.1526890399666713805
1.1527029516613500615
1.1527524599668450556
1.1528232280612411564
1.1528890615665228214
1.1529230175967875027
1.1529081588138292425
1.1528460150988366628
1.1527606750986352235
1.1526914958575074088
1.1526786441224263768
1.152748308566814428
1.1529021790393909619
1.153115586187366981
1.1533430892517124722
1.1535335695732475969
1.1536463034591220023
1.1536626683917894365
1.1535895833083851247
1.1534538577246415958
1.153290666955396393
1.1531316458756994958
1.152996345210453244
1.1528897779785138855
1.1528060816086542761
1.1527360976601168652
1.1526743593281414402
1.1526210380551071832
1.1525793625997926561
1.1525502071799027526
1.1525291747480044258
1.1525069714862987702
1.152472803398301604
1.1524191757777739742
1.1523462852937360612
1.1522620231240010558
1.1521788498525689093
1.1521086952834833639
1.1520597421560632156
1.1520357291684331091
1.1520366743533376752
1.1520611469470785071
1.152106814807667412
1.1521702125204054123
1.1522455085063167957
1.1523230821586776251
1.1523906012071993832
1.152435328873825604
1.1524476134292318541
1.1524235988827611354
1.1523671093388097031
1.1522865726839166545
1.1521935646570446998
1.1520986739770369134
1.1520091776388881044
1.1519287109018658821
1.1518564520727858635
1.1517908731683883516
1.1517300635308844736
1.1516738199966560785
1.1516229279539587083
1.1515818331425471399
1.1515559388862346424
1.1515526929916033438
1.1515796202215462518
1.1516377666000348068
1.1517262749960190948
1.1518393763451384437
1.1519644624751357309
1.1520874651662591504
1.1521993589771795108
1.152299451742191172
1.1523940692889687032
1.1524918729255655414
1.1526010543044653556
1.152722782181049288
1.1528497883735080443
1.1529695081593076544
1.1530709941009333885
1.153150007811844624
1.1532127505044200699
1.153274597932223422
1.1533544123612955445
1.1534658372518087344
1.1536100842442695846
1.1537735467732519457
1.1539344734159187045
1.1540690487428075794
1.1541604347920866314
1.1542063281163223998
1.1542195392998471082
1.1542221915733277271
1.1542369011267377132
1.154279166999069739
1.154352045614207567
1.1544436485876692355
1.1545321209920118566
1.1545947475208988564
1.1546133814800179085
1.1545814275428001316
1.1545048566028996984
1.1543988077425628713
1.1542815001465074332
1.1541679894717502552
1.1540664290121267488
1.1539778270390814718
1.1538996841480739786
1.1538286635525143442
1.1537633379564249392
1.1537068372657224291
1.1536642753644044124
1.1536410227394171546
1.1536392854126558127
1.1536561032919876446
1.1536845137755853408
1.1537159100973928272
1.1537422786594511148
1.1537601061525666335
1.1537712592037541182
1.1537801352081218376
1.1537919464063934871
1.1538089454827691327
1.1538282631482543739
1.1538418053866108526
1.1538388320752117622
1.1538099135845407694
1.1537496690895883145
1.1536588818162913928
1.1535438610496411282
1.1534165223414420964
1.153288989771630968
1.1531708082419871442
1.1530670228864894344
1.1529777606626068209
1.1529020809250232205
1.152839537012361415
1.1527912617030091624
1.1527605658844775061
1.1527522516369901329
1.1527708368590243726
1.1528167533483277829
1.1528839001937107867
1.1529620978396268871
1.1530404773459197454
1.1531071059153965574
1.1531516222835909158
1.1531667727479191221
1.1531504975512778532
1.1531039910961395911
1.1530302303386170681
1.1529344826154188652
1.1528215842712932204
1.1526969994998437219
1.1525675861636279773
1.1524403290043638837
1.1523239688469351094
1.1522280923252694596
1.1521594815260822742
1.1521210758199889046
1.152112036909396231
1.1521264607565917526
1.1521528334023596329
1.1521775329330297133
1.1521903567334066398
1.1521866150147437313
1.1521659296063404554
1.1521315233467950279
1.152090965706342951
1.1520553907764667922
1.1520349924088788551
1.1520351068952188189
1.1520560772003745065
1.1520945015027452829
1.1521443609205028746
1.1521970039584550349
1.1522423509900598937
1.1522726031002061831
1.1506449952980886131
1.1518941575098071706
1.1527581582325063803
1.1536799722420614245
1.151176900367346656
1.147953351500639263
1.1472346270263431567
1.1485761716428237733
1.1498959577669305432
1.1502710657310351028
1.1504360660361669932
1.1505423339121942927
1.1508090662013625849
1.1515305367925958713
1.151765002519590686
1.1506065764807282825
1.1489791000232232321
1.1482872034383531101
1.148644676398502984
1.1493112803198648475
1.149696403323129168
1.1497314905795099627
1.1495344825100290986
1.1494519643988774238
1.1495910191917191323
1.1497291040229593584
1.149769613022900705
1.1497597289555088196
1.1496229881869282075
1.149288157562811552
1.1487648420680125483
1.1481758449383139276
1.1477453854525878629
1.147711362057333595
1.1480600642302953851
1.1484766175918417197
1.1485632297856021022
1.1481173655153658064
1.1472452175957497111
1.1463749017841602384
1.1458574970817900773
1.1457553394273534142
1.1459315180260551958
1.1462693559055110448
1.1466684069050598893
1.1469607458543082945
1.1469628821979822586
1.1466368325662881222
1.1461103596201414057
1.1456362579753411879
1.1455052122030264794
1.1457490436353747754
1.1460582044239824295
1.1460436456154234897
1.1456294676124210152
1.1450547463673304005
1.1445302207953684803
1.1441558825466466853
1.1440192673728384332
1.1441687075955477848
1.1445160867358625811
1.1448964133898880124
1.1452064024417389909
1.1453705374714235887
1.1452682349084335467
1.1449392447615525104
1.1446586223905350632
1.1447214448061628911
1.1451004872206564933
1.1455525131147294982
1.1458468274042243884
1.1458658632580129844
1.145590560604614172
1.1451128767794642727
1.1446228956419433054
1.1443561033471694177
1.1444359880338916824
1.144826770711496744
1.1453621546052066282
1.1458181519824519601
1.1460111862376605174
1.1458572986260175952
1.1454465090434484686
1.1450332847206945441
1.1449335295719327288
1.145309464467694438
1.1460132482994462855
1.1466361429348697065
1.1467881413542466706
1.1464097277688061194
1.145794882735212683
1.1453273550219029708
1.1452277167793141199
1.1454501042395572874
1.1457937436546341559
1.1460648809076097177
1.1462319303819483718
1.1463819642803214638
1.146613717130193999
1.1469387152452317213
1.1472439939556242638
1.1474165548207009291
1.1474373410655958061
1.1473565345535892135
1.1471982709056343097
1.1469584175371509982
1.1466342138989951138
1.1462817322621459137
1.1459776469354594486
1.1457564850770456388
1.1456141554563337159
1.1455419937516257978
1.1455411273680180528
1.1456056852154363757
1.1457120644671499043
1.1458470806399494446
1.1460194942265824469
1.1462523296543525309
1.1465384295233886913
1.1468334982939154543
1.1470996510682509584
1.1473417209447043241
1.1475558346847865021
1.1477035972475528869
1.1476984199528248443
1.1474870065584632517
1.1470823818487181356
1.1465926046025280982
1.1461947488745771739
1.1460551875728663962
1.1462543108278246962
1.1467357659677319681
1.1473254450133065774
1.1478166008919119534
1.1480995099778585899
1.1481843997708451877
1.1481530621052011831
1.1480708503789238684
1.1479512860433349619
1.1477840462072799177
1.1475933885738376361
1.1474292276866595586
1.1473357918701621028
1.1473265546237121359
1.1473978708425442985
1.147554482449078872
1.1478042493043900674
1.1481224432579435479
1.1484412671918644566
1.1486826581256435187
1.1487828637669919019
1.1487239964297977224
1.148493704500442858
1.1481301949625373204
1.1476744089482990852
1.1471979884260059546
1.1467835579919674061
1.1464986159702708068
1.1463934295751119219
1.1464905636375168907
1.1467861509723713542
1.1472569305026669717
1.1478681383336022392
1.1485898498211339902
1.1493972584775655754
1.1502573226365733206
1.1511178074869585775
1.151906807565610924
1.1525565109310813572
1.1530310745826262142
1.1533408608332100798
1.1535326318274679025
1.1536596374664822573
1.1537542517779741935
1.1538128397947333692
1.1538146154113417818
1.1537534710363388513
1.1536542525790220992
1.1535597227706231305
1.1534982699934464012
1.1534660831543026571
1.1534310487985810489
1.1533598739585015913
1.1532426474943708872
1.1530972017483982484
1.1529578240751099383
1.1528583182291722853
1.1528212986699870601
1.152851647133792401
1.1514949194777535091
1.1514154238097713545
1.151329838071895928
1.1512763394771030612
1.1512753557128305726
1.1513197015426110958
1.1513838082275487107
1.1514419074209303329
1.1514827587648956975
1.1515095611637784501
1.1515285250326297017
1.1515402603094258005
1.1515407848318088835
1.1515300263974348471
1.1515133799257051272
1.1515005051126114832
1.1514996755020199259
1.1515152561917170182
1.1515461851795092407
1.1515927092996234293
1.151652433476773485
1.1517154792579529232
1.1517613398673145486
1.151759985334527725
1.1516870435980921528
1.1515377956308294749
1.1513370205450963457
1.1511364541512718596
1.1509926309781770559
1.1509391136755517948
1.1509734180260704495
1.1510625960531695178
1.1511635227013665705
1.1512452828058294951
1.1513004419753518626
1.151340321976319192
1.1513794199493010417
1.1514242672344732199
1.1514729171414681552
1.1515193877929708055
1.1515570799845864514
1.1515804697068705575
1.1515866015615685569
1.1515787827124073228
1.151569998510854953
1.1515816252168327161
1.1516355055131948237
1.1517425951786071092
1.151895497707437821
1.1520678541190376709
1.1522231845883392776
1.1523299392855963497
1.1523755915604454447
1.1523702025133717441
1.1523430619453465251
1.1523312717249769577
1.1523675077270700839
1.1524657924503933781
1.1526133206016442312
1.1527727608786029201
1.1528929758676567108
1.1529310936110179764
1.1528752023460737686
1.1527483991012519304
1.1526000818112591695
1.1524858282799030906
1.1524440598718754813
1.1524822139678223554
1.1525778942403146488
1.1526902964791381212
1.1527802250484608937
1.152824609517527632
1.1528193417986549729
1.1527757441571024888
1.1527113980328465015
1.1526452311188779554
1.152593629685196408
1.1525683629043366185
1.1525785363352993862
1.1526271933340892506
1.1527077264146035063
1.1528015425221993517
1.1528799027194360782
1.1529157437293902078
1.1528962082846627712
1.1528272769242737805
1.1527353128166428764
1.1526604185276108083
1.1526426057404906
1.1527051577224787238
1.152846603016931093
1.1530396940389169291
1.1532407221719334078
1.1534049460627433525
1.1535006443064625969
1.1535156828099151216
1.1534581988653558327
1.1533506577153409545
1.1532198644573581348
1.1530885279604625726
1.1529696754366705047
1.1528664617127051262
1.1527765104807596863
1.1526962320984330823
1.1526244005635821743
1.1525617885020686959
1.1525086867902694099
1.152463888428584271
1.1524230269011532801
1.1523802257980120256
1.1523304938111096352
1.1522722431931240461
1.1522084531506140426
1.1521464076674876598
1.1520946909568556826
1.1520607570969607636
1.1520479637248308702
1.1520551803149166048
1.1520785709105578754
1.1521141401221779432
1.1521591338032761698
1.1522111600940858622
1.1522668004980061163
1.1523203332086580097
1.152363597646834048
1.1523868564831187822
1.1523816895621807888
1.1523436573649379344
1.1522735033320887776
1.152177258831632134
1.1520638364443529511
1.1519448016847666505
1.1518296045060927302
1.1517255182843548766
1.1516361920280000497
1.1515636367204835633
1.1515077652467187175
1.1514675261320903576
1.1514431320243239121
1.1514335020781036878
1.1514399465006435186
1.1514638299851833736
1.1515047226355803467
1.1515634594924699652
1.1516385686246333186
1.1517221982415253301
1.15180832195723859
1.1518948367027621593
1.1519792380961297873
1.152062813208605041
1.1521523488451677064
1.1522561767750192363
1.1523793938925801505
1.1525207868514677489
1.1526707374227791458
1.1528146080074419544
1.1529391338138543777
1.153038777932217096
1.1531172943025971289
1.1531877969259811678
1.1532668767091776019
1.1533685642832436358
1.1534965004086126239
1.1536432724763410196
1.1537921276240226121
1.1539224062065149834
1.1540197546017370023
1.1540821891776815722
1.1541211590218514171
1.1541555134913636937
1.154203879136237898
1.1542753162630168262
1.1543661170032331054
1.1544615246371026096
1.1545402389193639703
1.1545823106199841757
1.1545766758161857268
1.1545240243843628569
1.1544347975265634165
1.1543256425865282555
1.1542136300934193738
1.1541103588416197212
1.1540193575443571383
1.1539380454161174416
1.1538615817178132783
1.1537875446224561404
1.1537179400881252267
1.1536580792920854144
1.1536161127266524318
1.1535995005872257124
1.1536107921967464485
1.1536449970566837742
1.1536916021631988816
1.1537376862920514231
1.1537723622959625835
1.1537897365417086881
1.1537909533681489638
1.153782707819348774
1.1537726908175127694
1.15376544154548899
1.1537602092844012613
1.1537502671651227448
1.1537252995952960166
1.1536758919685889957
1.1535969871714628621
1.1534913573222129735
1.1533688523460512432
1.153243675795416312
1.1531299182235239531
1.1530362098366084833
1.1529641908823708984
1.1529095482420685936
1.1528657577112537691
1.1528276221959770087
1.1527944062363228994
1.1527700821291229083
1.152759920030609786
1.1527700741040149968
1.1528047390214022361
1.1528628562219092046
1.152936257541495424
1.1530145139388998654
1.1530865234545069065
1.1531424727488079895
1.1531753820897381324
1.1531804325310077708
1.1531564508068627983
1.1531035929791528805
1.1530252943594607729
1.1529263849791406837
1.1528111804218601488
1.1526864840656263489
1.1525611943151026217
1.1524451994545736877
1.1523494311714932437
1.1522824377435294529
1.1522468103405749673
1.1522394539232609922
1.1522535000949094552
1.1522785465961822293
1.1523008799001503988
1.1523079118626540218
1.1522941133459208007
1.1522622797587169785
1.1522199905280763321
1.1521762309989171946
1.1521404785589342001
1.1521215175290921984
1.1521243040470883212
1.1521484035612381547
1.1521888270343745297
1.1522377387899274126
1.152286659583766415
1.1523270022493545817
1.1523509256809867374
1.1519592002432899047
1.1524106719978399749
1.1502665988913167716
1.149444685084501705
1.1491318164214476827
1.1483053425693177108
1.1483008527683811195
1.1496956492777696823
1.1508765767566140337
1.1507785096172813422
1.1504305161309982264
1.1504670955939717558
1.1507119104211227523
1.1512787191904563233
1.1515099630813887543
1.1504430491462067643
1.1489995947552178457
1.1487296635341630591
1.1493040864758008457
1.1495560048834416733
1.1495547986320266975
1.1496926817099941687
1.1497599596398584421
1.1496390443967512418
1.1496103136148874135
1.1497542866279937268
1.1498773575821807924
1.1498701555640218341
1.1497777879605448614
1.1495792222885989897
1.1491595324308270243
1.1486085164856065788
1.1482535327226663924
1.1483071650943115216
1.148643744496786967
1.1488791152228938763
1.1486596631847938443
1.1479244696329227171
1.1469715343265476371
1.1462096274616571101
1.1458595148471342196
1.1458749336131079932
1.1461163042243740495
1.1465066245666133415
1.1469816581435670066
1.1473572695286238243
1.1473492914069924886
1.1468063978398637115
1.1459672844665724778
1.145340961588566131
1.1452947784509583951
1.1457129938543295644
1.1460880520928626858
1.1459930738898731484
1.1454681587623205541
1.1448606251541615375
1.1443886036018739993
1.144050375567631006
1.1438800301238520873
1.1440068890652199673
1.1444366770752514295
1.1449792068604009998
1.1454047827406952376
1.145574783280790987
1.1454291006815600085
1.145079650357639256
1.144782025976712081
1.1447862620323105975
1.1451367520270498979
1.1456388920468498771
1.1460190049556415737
1.1460555183797442869
1.1457072437463955428
1.1451706120065943129
1.1447194816834831421
1.1445281672263312167
1.1446004665475586481
1.1448770215554731067
1.1452665008585738438
1.1456405501701272254
1.1458148692251244327
1.1456486129883634018
1.1452031057819027637
1.1447741497547549994
1.1447005013104174509
1.1451296217444526526
1.1458776722489996125
1.146535017813812507
1.1467061889324672297
1.1463167862233298866
1.1456562586106284751
1.1451309688405877374
1.1450012116652621419
1.1452272770044111816
1.1455764816770630521
1.145852947321625015
1.1460138095637519839
1.1461616319523955099
1.1464209398917055704
1.1467980806313879949
1.1471337532633112399
1.1472689974836844939
1.1471925688435469226
1.1470190320027378039
1.146830703203492785
1.1466285141495649036
1.1463593279215591458
1.1460339599302442615
1.1457216470105036077
1.1454839832513072917
1.1453582378109827822
1.1453463391645950509
1.1454301414663594638
1.1455697534552542471
1.1457129777394752246
1.1458417258702571218
1.1459929682485605618
1.1462092031875430465
1.1464853318114822667
1.1467657748618249602
1.1469973322475106592
1.147179554521888134
1.147335382382027813
1.147452882694779186
1.1474888131762939203
1.14739231452977819
1.1471585492005296203
1.1468449050607150141
1.1465730830578984012
1.1464690619737978317
1.1466089396103222864
1.1469695490723132991
1.1474314383123394023
1.1478422330471833579
1.1481122586493306414
1.1482405102637145422
1.148283657576614436
1.1482732213577202529
1.1482007810933119174
1.1480526370810115733
1.1478493624074848078
1.1476462162698006786
1.1474975654482972853
1.1474313492120082891
1.1474501772012275502
1.1475638834709775971
1.1477768479436512017
1.1480667002383009301
1.1483651411916877549
1.148604220288618194
1.1487170352581619337
1.1486750157311016451
1.1484550552488421715
1.1480766231896353258
1.1475952162392495381
1.1471112005246006937
1.1467332826628442444
1.1465187735539161817
1.1464906989574978891
1.1466461401372773921
1.1469649983364975654
1.1474413353588532871
1.1480809279394392775
1.1488827336711655569
1.1498249218053353538
1.1508459857272710369
1.1518427067961607424
1.1526939387574548501
1.1533058971295033768
1.1536559916091055911
1.1537995090550987598
1.1538414516115633734
1.1538820547916008863
1.1539702071912034675
1.1540855299989023486
1.1541718960904996383
1.1541883665569299122
1.1541359056438156294
1.1540491837826443167
1.1539535421746043298
1.1538401711550176909
1.1536835884337757197
1.1534752331200048836
1.1532406247617943418
1.1530299398641272735
1.1528885404808626447
1.1528373164402148099
1.1528675592990222931
1.1529490920171416857
1.1515557085104854984
1.1515212224508883931
1.1514659569131389105
1.1514202570822125171
1.1514120706295323249
1.1514498794540779514
1.1515192958276712076
1.1515962813146167765
1.1516575801373931665
1.1516914714598180947
1.1516972478438227689
1.1516822956953880475
1.1516559536854502621
1.1516285978261107115
1.1516072847024252379
1.1515956955390780347
1.1515949334386281766
1.1516033953941144929
1.1516188392660784423
1.1516406825392202506
1.1516696991361845548
1.1517027396071068956
1.1517251613044934277
1.1517134368875021622
1.1516456227681224345
1.1515138422166268928
1.1513369868235230342
1.1511583320065552627
1.1510247791772600934
1.1509657990226125346
1.1509797305616835672
1.1510348995131898242
1.1510889397218322383
1.1511144793828851363
1.1511111876856738867
1.1510999176374687725
1.1511069792728230166
1.1511475426088157992
1.1512191647732525901
1.1513054748485433976
1.1513844866607523265
1.1514374726221034972
1.1514574401493475886
1.1514534719363771487
1.1514486174483935521
1.1514714793708946683
1.151543541037823859
1.1516675733466248399
1.1518255671597719125
1.1519851507458926942
1.1521117031708167922
1.152181227715875611
1.1521918009534501959
1.1521638679418835238
1.1521314072414730045
1.1521306898962346832
1.1521873267321276479
1.1523075226419274841
1.1524719535592597985
1.1526389440893627381
1.1527591368468441679
1.1527961897842475825
1.1527430435430259248
1.1526265372375670282
1.1524958013616930508
1.1524016493455850885
1.1523764355922407887
1.1524210742901519477
1.1525063323092175072
1.1525912698232401166
1.1526424407020225971
1.1526456738482495634
1.1526068276340706298
1.1525435595403252798
1.1524760045909514528
1.152422157832998062
1.152396291975416931
1.1524071986928181577
1.1524586140162902392
1.1525473439414581911
1.1526598549202349275
1.152773341508294358
1.1528613974462635916
1.1529007387614860214
1.1528808019224630055
1.1528112398956620321
1.1527209514986838101
1.1526483051927149948
1.15262797642916337
1.1526777076646455011
1.1527915106667692147
1.1529431365760072214
1.1530975393708096099
1.1532216746333245894
1.1532943747519917022
1.153310993461796885
1.1532808527311613211
1.1532186166262072824
1.1531381890877026031
1.1530494196554799124
1.152957247333152635
1.1528634529462329361
1.152770060750752279
1.1526800774374981184
1.1525963584768896819
1.1525201768026316351
1.1524503804892622938
1.1523837892551971329
1.1523168995648824797
1.1522479426396556867
1.1521786248178236267
1.1521136538855942799
1.152059407712352268
1.1520225418831884223
1.1520080104319607717
1.1520171910465841769
1.1520472730348383372
1.1520917939865613633
1.1521424614100730377
1.152191862770170161
1.1522349119942791873
1.1522690902642018784
1.1522935860205438807
1.1523081258075249522
1.1523110278255392913
1.1522984450410749258
1.1522651245362194317
1.1522070148359668806
1.1521221488344208783
1.152013281717482851
1.1518874347934344726
1.1517550186338416651
1.1516274880649299828
1.1515151094565767576
1.1514260993466662875
1.1513645269802057491
1.1513307951636611026
1.1513212457960650958
1.1513308913605873052
1.1513535136822417027
1.1513851397913807961
1.1514220052902206515
1.1514628235263679734
1.1515080805843502798
1.1515536266920087805
1.1515990557904269842
1.1516451574979169603
1.1516926177170005996
1.1517470783586978289
1.1518156238286481052
1.1519041445190316697
1.1520175506608183458
1.1521555759857016188
1.1523137641010299248
1.152482339498297037
1.1526469235531309199
1.1527933022926140083
1.1529136456818966927
1.1530098029704622942
1.153090811666193316
1.1531707372932098465
1.1532627187571571348
1.1533724897444834756
1.1534969698142309991
1.153625394009907934
1.1537444111534718161
1.1538438588308848054
1.1539222228479100174
1.1539871608298493122
1.1540514189938926304
1.1541253556888351195
1.15421320896468238
1.1543089469389293811
1.1543975982786054413
1.1544602634971079524
1.154482279132932776
1.1544586844984470186
1.1543951630037023737
1.1543050689109639606
1.1542044249931695532
1.1541069083587218724
1.154019633204795392
1.1539418774655920696
1.1538687164399772378
1.153795781157543221
1.1537225528598911151
1.1536544304341520562
1.1536010649215797663
1.1535726975655180571
1.1535753307267015977
1.1536079382991462072
1.1536614987498727825
1.1537213310837053371
1.1537719251664730891
1.1538017811134899659
1.1538059040130490551
1.1537873432588485745
1.1537556379160214259
1.1537208862751819893
1.1536896049608191817
1.1536613613249482313
1.1536296293710903704
1.1535846922150005955
1.1535180060118828127
1.1534266650032802826
1.1533164033247254032
1.1531999022107606301
1.1530924057513503023
1.1530060781995219443
1.1529467806868183288
1.1529118051686846336
1.1528921427315201864
1.1528775419959449433
1.1528596136325510724
1.1528360650294289247
1.152812150943787417
1.1527961470378054187
1.1527966554328872295
1.1528197614658834969
1.1528664125379708416
1.1529316627589991651
1.153004999545264031
1.1530753607144141881
1.1531324812194290175
1.1531703263699129014
1.1531843338625753503
1.1531727032124350352
1.1531351188079788095
1.153072148514335149
1.1529888767155462848
1.1528910584278033724
1.1527856462215220201
1.1526816135311743761
1.1525878550027708336
1.1525129330632024605
1.1524638065614107862
1.1524423486195549682
1.1524443311200174289
1.1524609741152056497
1.1524814890691306157
1.1524951835105423648
1.1524931909477647007
1.1524715010957160555
1.1524330872598145259
1.1523863443732735856
1.1523412084002742084
1.1523060472345081351
1.1522868370760457335
1.1522864464396957995
1.1523036168168729887
1.1523335627776289947
1.1523695244799778692
1.1524042884977001577
1.1524317853599204131
1.1524466795965289112
1.1524440215864291126
1.1533464584596813118
1.1517459489075729806
1.1512214649570922109
1.1508371521789300118
1.1511362782682976746
1.1509971475215041714
1.1506510625121817437