/*--------------------------------*- C++ -*----------------------------------*\
  =========                 |
  \\      /  F ield         | OpenFOAM: The Open Source CFD Toolbox
   \\    /   O peration     | Website:  https://openfoam.org
    \\  /    A nd           | Version:  12
     \\/     M anipulation  |
\*---------------------------------------------------------------------------*/
FoamFile
{
    format      ascii;
    class       volScalarField;
    location    "0.0064";
    object      T;
}
// * * * * * * * * * * * * * * * * * * * * * * * * * * * * * * * * * * * * * //

dimensions      [0 0 0 1 0 0 0];

internalField   nonuniform List<scalar> 
75962
(
300.12940866309071453
299.75452449825979784
299.83729303179075032
300.22071024918193416
300.32446245805169838
300.23242097892483571
300.09824402432604984
300.00368031217419684
299.97016775134540012
299.93135165943874654
299.88875989501315189
299.88668157747247278
299.96550741643022775
300.16995447131040464
300.34148686178400567
300.34064742955251859
300.25351309915549791
300.19339811434815601
300.19671822650661852
300.24978226019663907
300.31029603390874172
300.35409600951481934
300.38711931929987031
300.3886694158895807
300.31927816961683675
300.18569892331396431
300.07361050592362517
300.0590301066897041
300.12725005281600943
300.22217976493845981
300.31325312753148182
300.37920565056225541
300.39629192779659661
300.38067080423348898
300.37331840133629157
300.40199903009852278
300.46472015594201821
300.54374209909923366
300.61583385880635433
300.66739488298787819
300.68485366136229686
300.64967150490628001
300.55983847864376912
300.44671023593093651
300.36035699522523146
300.33550731401419398
300.38285682201927784
300.48842577694148304
300.61426275816171483
300.70699419202242098
300.74386774259289723
300.74258114606840309
300.73246923409777764
300.74037040850782887
300.7884595629479918
300.88366993503490221
301.0028398783584862
301.10850709870618402
301.16876764844846548
301.15897589416215396
301.07147690592751132
300.9366701068798875
300.81672362888571115
300.76152200193558883
300.77686479299853772
300.83549125192979545
300.91235312293315474
300.98228772338973158
301.01701250850584302
300.9958919119066536
300.94391218127071852
300.92022514572443015
300.96770331141010502
301.07861814199912942
301.20137445738748738
301.28015114679618591
301.28346254073136379
301.21846654938224219
301.12064692746872652
301.03667674022062783
301.00351781336900103
301.02498387512372346
301.06952976865039773
301.09130851495689285
301.06833899205395255
301.01588844137125989
300.96828076374936245
300.94999538776687587
300.97017880059109984
301.03213007434158044
301.13090061942187958
301.24367937685178731
301.33352598117511434
301.36972551370928386
301.34860723106470459
301.29212149157586964
301.2348431074075279
301.20213461153548451
301.19884771727072348
301.21080650076214624
301.21827819020518291
301.2108158049082931
301.19437279254549367
301.1828835058784648
301.18498819435018277
301.19929021749436515
301.22062874218909201
301.24455533142889863
301.26635684260776316
301.2796879866892823
301.2803017174675233
301.27219823443959967
301.26581860387466349
301.26904125215907015
301.27973356323087728
301.28630099300130496
301.27493745194595931
301.23781039870209497
301.17755371436555833
301.10653726155373988
301.04656376466340362
301.02402921169561978
301.05665876405231529
301.14482252124031447
301.2705048085542785
301.40517656996490814
301.52096604662250456
301.60096621842347986
301.64115568999818606
301.64484605081713653
301.61547459068003718
301.55002859644423552
301.44453018554037271
301.30251246343362936
301.14624889307566491
301.01253371270172465
300.93756518075070971
300.94172142422621619
301.02170116371166841
301.1534497657358429
301.30451262674984036
301.44254526741775635
301.54026094904384081
301.57935661392929205
301.55612560129515032
301.48387396208005384
301.38830593662316915
301.29822108973917238
301.23721013393355861
301.21953758443623883
301.24965366014487245
301.32252156742782745
301.42615052735555992
301.54357052740948575
301.65322402236665766
301.73539957858156413
301.77474737741306399
301.76349729130384958
301.70195477161161079
301.59540016344050173
301.45104178462850086
301.27627143253016584
301.07884427745739231
300.86762170025110663
300.6528921011077955
300.44472317439772269
300.2507879190291078
300.07582145801728757
299.92195267595235464
299.78908825849993036
299.67646276633286107
299.58208227974000692
299.50333439933910995
299.43652885385051832
299.37764453727044156
299.32408708173375089
299.2757325712985903
299.23461777727567323
299.20366025004540234
299.18477759655928594
299.17759805483086666
299.17893927413683741
299.18390554296837536
299.18765061809511963
299.18688432757869577
299.18099982213311705
299.17187596209737421
299.16313939537695887
299.10916297427701238
299.11142565956998851
299.11789492409593549
299.12968172517776111
299.1450835295254933
299.16110102730465314
299.17563814915155262
299.18849507168039281
299.2004637472223294
299.21193425741603278
299.22209219528133417
299.22972813581401397
299.23425927328025864
299.236492246679461
299.23813345791057827
299.2408491949778977
299.24545142661963837
299.25219933146615858
299.26096210008745402
299.27142084019055801
299.28205786656877763
299.29016072676347449
299.29223107220775546
299.28522810485691252
299.26885651618385964
299.246279873185415
299.22325242563209713
299.2060920639203232
299.19875555342997586
299.20130309566928872
299.21085022079671489
299.22351335508460579
299.23626646937668738
299.24778771482471029
299.25802072290912292
299.26696071008535682
299.27402972799700365
299.27864544438199346
299.28087073170559052
299.28140655594938835
299.28099791729533763
299.28005848807930533
299.27878919886444464
299.27764824311765324
299.27787447927113362
299.28135763692000637
299.28990906083913615
299.30396898573457065
299.32190049761749151
299.34024885365829505
299.35524266742493182
299.36412941190832271
299.3664138058223898
299.36408758004080255
299.36092414012335894
299.36105416574429228
299.36717846771671248
299.37931480832605757
299.39451364366897224
299.40802033143143035
299.41505258985461069
299.41299273634763267
299.40293189525465323
299.38906668760637331
299.37679282862916352
299.37059047591907301
299.37230926341925397
299.38058169161831756
299.39187652070143031
299.40228175675599687
299.40898856907836034
299.41074323461322138
299.40791387516907207
299.4017489282868496
299.39398297737994881
299.38635914964697804
299.38057987850027075
299.37799915333675926
299.37926601441211005
299.38432365330680796
299.39171172058036063
299.39868403465175106
299.40236669186731433
299.40090003565978805
299.39433970284738962
299.38512827756454726
299.37738241915309345
299.37539435664166376
299.38204816621856708
299.39769025508309142
299.41987459274395178
299.44390240682434978
299.46437710806520727
299.47690538405879579
299.47937330045891713
299.4723635163624067
299.45860373016023459
299.44176999816073703
299.42521520284390135
299.41104045892569729
299.39980216575889926
299.3908848338817279
299.38330114508505631
299.37645057684562744
299.37035335741029485
299.36539701088656784
299.36176518604048624
299.35910061011094285
299.35651372153500915
299.35291388638654553
299.34748988713204199
299.34018607954550362
299.33173168970154165
299.32335327832475969
299.31626236043393874
299.31132375046922789
299.30895623604493494
299.30918807150567318
299.31186507576967415
299.31671829751400082
299.32335337873178105
299.33114810952088192
299.33911874545913179
299.34602215179285167
299.35058607371968264
299.35184019959979196
299.3493826780433551
299.34357018069778178
299.33521801675715324
299.32546937617507865
299.31538384593255842
299.30573546387802253
299.2969484768818802
299.2890140116031148
299.28183584473623569
299.27526914196278085
299.26929692347255241
299.26397981005737847
299.2597255275391035
299.25707304980574008
299.25677059579487604
299.25963395726802219
299.26580674181167296
299.27522624402502061
299.28731571390869703
299.30074909156900276
299.3139958603139803
299.32602643161993683
299.33670051350793528
299.34665657353525603
299.35682909270440177
299.36813413976017273
299.38077682265600288
299.39406850415929284
299.4067082119372003
299.41753298532995586
299.42604170254367091
299.43283166686421737
299.43946829197926718
299.44792006185616628
299.45963976254137151
299.47480267612274929
299.49200896813459849
299.50897125927320985
299.52317044845398186
299.53278678978387006
299.53753009992743728
299.53872782363322358
299.53873882264190343
299.54001281529713197
299.5442635553386026
299.55188369081736255
299.56166974265022418
299.5712807732313081
299.57826255364904
299.58061074345403085
299.5775535303806123
299.56968284237109401
299.55859984779834804
299.54625364604896731
299.53426862435759404
299.52353027656255335
299.51415026025898669
299.50583682659146234
299.49821262995607185
299.49110366289505691
299.48485431521430655
299.48005127995577368
299.47732016250404286
299.4769497213123941
299.47866623942695696
299.48173243224380258
299.48520220174509632
299.48816311063802686
299.49016838208837044
299.49136051124003188
299.49218482711870593
299.49321216785648403
299.49473414828543127
299.49651781470493006
299.49777566715539479
299.4974098708001975
299.49444193477734188
299.48828662172269333
299.47898515325573499
299.46714430397332762
299.453954883705876
299.44064509165809795
299.42818463188416445
299.4171069032588548
299.40744662784948105
299.39913626096364396
299.39218217422654789
299.3867585457631435
299.38326309894694077
299.3822296505278473
299.38414762365130173
299.38906180711285288
299.39631514417425251
299.40479146649153108
299.41329455731533926
299.42051508080203348
299.42531537593617941
299.42691086412048662
299.42508851731446384
299.42001492403358043
299.41204866903314041
299.40180426164789651
299.38985325081608835
299.37678661133543301
299.36331472608566173
299.35014333206731862
299.33813967968688985
299.32827257502447083
299.32124075165296517
299.31734488217585977
299.31649531718875323
299.31808212347766585
299.32090908853814426
299.32354970669291561
299.32492006344449464
299.32450007138066894
299.32222381934309396
299.31842274239699009
299.31391231377233453
299.30989739195621269
299.30748411366141681
299.30728207835733201
299.30937570286141636
299.31344643941577033
299.3188603497591771
299.32467219383664769
299.3297824858847207
299.33332318187490273
299.77208096367706958
299.72293050241341916
299.99479625932212912
300.43363483194235641
300.40861028889628415
300.09088186751802141
299.89675646321836666
299.90405449668600113
299.94342227951432278
299.90335668610538278
299.86846311407219901
299.89519426216060083
300.01529217042246955
300.22140831259116567
300.36576293425446238
300.32853302663113482
300.20620104396778061
300.14911316803556929
300.17084509099078105
300.21608388387170407
300.26623643105477868
300.33499304427976995
300.39314197756107205
300.39860639754903104
300.32161133876900294
300.17868855234900138
300.05493724079917683
300.03632105101866046
300.12881190522375618
300.27492878065760351
300.40159531942163085
300.46440298885954689
300.46432360858256061
300.43863263953591058
300.42344889065441293
300.43455752379639989
300.47180518144443795
300.52839368639024542
300.58972373778181009
300.6450245822522902
300.67189480474650054
300.64285632770560142
300.55195983256965064
300.43640461219956705
300.35636611880556757
300.35372752432419929
300.42856960381794806
300.54646860576076506
300.65716601923861617
300.72302305142403611
300.74275516691000121
300.73472066059503049
300.71832967916674306
300.71274082502696956
300.74706323955996368
300.842191023720261
300.97662067364154836
301.09758055603401772
301.15982884479876702
301.14503397053579192
301.05989987956030518
300.93562073654447886
300.82463242899092393
300.77248586973405509
300.7878303160916289
300.8531407245196192
300.94295105651343647
301.02703992430741664
301.06499439945440599
301.0374559401013812
300.97088530857035948
300.92304897953499676
300.94217091538160957
301.03534195048496258
301.16281102732870067
301.26271356302044069
301.28304913627516726
301.21409258418538002
301.09529853996957627
300.99169591457899742
300.9546586125519525
300.98929648500848089
301.05641159859396794
301.10271278701037545
301.09890637833819937
301.05297593038471859
300.99611494802707057
300.95876890055126296
300.95896176731491778
301.00487139512949852
301.0921012394093168
301.1969238370101607
301.28358971958328993
301.32097566058251914
301.30164296311289718
301.24498364765128144
301.18886402026737414
301.16501848921308238
301.1813466161239603
301.22014219698189663
301.24946766269289355
301.24926006710512638
301.22498318901102721
301.19887421104203895
301.18862686238327342
301.1982149535199369
301.21865062654035228
301.23897712004395544
301.25073323111638501
301.24863330558474672
301.23405651310940812
301.21636225561326228
301.20798856911835628
301.21540063314461122
301.23360045079004976
301.2500574231261794
301.25181982387260859
301.23202217081245635
301.19061355421450799
301.13536915818303896
301.08396454708673673
301.06159291945823497
301.0870743984986575
301.16322791090919964
301.27267633008148096
301.38948665301694518
301.4896156279651791
301.56038503408331053
301.60149973404088541
301.6170544027958158
301.60731598548528609
301.56486459316306536
301.47999515284811878
301.35215114365314548
301.20218918754972037
301.06804537459339599
300.9895541081938859
300.98946953540712457
301.06485004178244935
301.19099029320909722
301.33467789560739902
301.4625677161751014
301.54740024494753925
301.57251467458593197
301.53658306603801975
301.45556569866488417
301.35753480955156647
301.27188350740186706
301.2204821801734056
301.21529814998802976
301.25794540124820742
301.34278002433615029
301.45453534335086943
301.5762130208089502
301.68764017699191982
301.77193618747855908
301.81672018710520433
301.81351853431726795
301.75896576629179435
301.65427541528475786
301.50495222102938442
301.32024618962367413
301.11203187865493192
300.89407154751916096
300.67977289083319192
300.47921160005245156
300.29717036939058517
300.13305466918649245
299.98371934049242782
299.84703385913314833
299.72370493130449631
299.616747268708707
299.52862258234370074
299.45885565120767069
299.40292659563749567
299.35474075108993475
299.31043310764908938
299.27040930237046723
299.23804536430714052
299.21601281103443171
299.20387921963026656
299.19797985977169219
299.19388046020497995
299.18891085593912749
299.18286733786953846
299.17718197537055858
299.17355018782359366
299.17311435994048452
299.17594461547884066
299.11147591017117975
299.11571544187961535
299.1200520934743281
299.12805203505206464
299.14148322327167762
299.15925477027371926
299.1783483270595525
299.19573049136761256
299.20997511055094265
299.22129849012941349
299.23040661613879365
299.23751876794523241
299.24240316603123802
299.24522043183901587
299.24668874816325115
299.24794088869151665
299.24993257470168828
299.25319890848135174
299.25768702243703956
299.26347091563553704
299.27038058105620166
299.27746692706364229
299.28267774818669977
299.2829179237822359
299.27562249261620764
299.26023886791648465
299.23927525333175481
299.21809961992755689
299.20267714938000836
299.19663468037492748
299.19983504219379711
299.2089193606501567
299.21940315547374212
299.22802397940301944
299.23393926556911993
299.23827492277285955
299.24252697215439412
299.24738703800676376
299.25268529977989829
299.25783397681180986
299.26215279307416495
299.26501102094215412
299.26597733195666251
299.26524141136900425
299.26404719608456162
299.26462323888569017
299.2693874600830668
299.27970214355212875
299.29501047967448812
299.31268386093290701
299.32890335314016284
299.34024648230843013
299.34524352893714649
299.34481583913310487
299.34196849627517167
299.34061006556231632
299.34424245204940007
299.35445588469997347
299.37001269254398039
299.3870492957223064
299.40017762882484931
299.40478201917341039
299.39945194752095858
299.38647395328240464
299.37095114464921153
299.35873782633825613
299.35397582970927033
299.35758294292355686
299.36733311812940883
299.37899666429950685
299.38843250399685303
299.39313576097458736
299.39258895206648958
299.38791580867825814
299.38095402483725138
299.37371060601213912
299.36795706238348203
299.36497153420197037
299.3657401761552137
299.37060918744140281
299.37891855440653899
299.38875793094092614
299.39711172259546856
299.40108115694670232
299.39921137079693381
299.39201562589295236
299.3821655460067177
299.37384647536009652
299.37134476682984996
299.37727309736766301
299.39167160652647226
299.41183584101082715
299.4332313002478827
299.45109625036258194
299.46195313927432835
299.46435052515187181
299.45898672212729252
299.44813431921420488
299.43459538948957288
299.42079594983130164
299.4081701671637461
299.39710069754244159
299.38736237086772007
299.37858739083281989
299.37065499758818987
299.3636731344428199
299.35771534077889555
299.35270674498883636
299.34824022932997423
299.34372279102939274
299.33862185430280078
299.33272707822442271
299.32628924677862869
299.32001199828039262
299.31475695897142941
299.3113015510377295
299.3100253947524152
299.31084448728029201
299.31337494293632062
299.31718118170334719
299.32193497958076023
299.32735129690445319
299.3330702844134521
299.33852426948573111
299.34292142258419744
299.34530544406538866
299.3448306034771349
299.34101991307619528
299.33389821755139337
299.32401145303248313
299.31221622651327152
299.29967886628554652
299.28738504262946662
299.27613946365204356
299.2663833120877257
299.2583868373109226
299.25218835823108066
299.24770061708096591
299.24494319876998816
299.24380928227759568
299.24441762527027322
299.24693970672831256
299.25133979187273781
299.25771277844785345
299.26591969494927525
299.27511764308411557
299.2845885294685786
299.29404302147952421
299.3031590737820693
299.31202402080282354
299.32134544360468453
299.33204804974781155
299.34475875419821023
299.35944998981017307
299.37518435924846472
299.39043812794631094
299.40376881961282152
299.41451422108002589
299.42299025274496671
299.43051589125406053
299.43882385504554122
299.44941718151778787
299.46274186710417098
299.47806429675318896
299.49365503366152552
299.50732928663200028
299.51752978007255024
299.52399446609967981
299.52790710230806326
299.53128432027222061
299.53615945420739308
299.54357282339168478
299.55321304895181811
299.56354539112686552
299.57229507464813878
299.57726810741598911
299.57718567365350282
299.57202793445696898
299.56284926771155597
299.55141233869693451
299.53955792312586937
299.52856274304411954
299.5188354696957731
299.51012403285062646
299.50190777317959601
299.49390031459006423
299.48629431597140638
299.47965594075509443
299.47487866640483389
299.47280834055629839
299.47377281678450345
299.47728507114123886
299.48224131169070006
299.48724497067047423
299.49108710837344915
299.49307682489506988
299.49328485646350373
299.4923944793495707
299.49123521714727758
299.49033318282124583
299.48966388427049878
299.48856489567941708
299.48596644147039569
299.48087798127488668
299.47273715270563343
299.46178551686580249
299.44900937456748125
299.43585855848164101
299.42379679536065851
299.41373124759053326
299.40585176135130041
299.39974191048901275
299.39476426737502379
299.39041227683094348
299.38664553366248811
299.38392141631851473
299.38281712927954459
299.38397852484962414
299.38783411160056858
299.39424585239754606
299.40230635635913359
299.41085097868398179
299.41866203643502331
299.42465825608121577
299.42809389182252744
299.42847050078222537
299.42570664157329929
299.41988193375766514
299.41141079797858993
299.40086130476203152
299.38871551324126585
299.37567766732377095
299.36265990922646552
299.3506589832102236
299.34077788508506046
299.33389697127017826
299.33029058600078542
299.32963969694378648
299.33123006351831918
299.33397401679638961
299.33642701744690839
299.33724890703769006
299.33582910694491375
299.33243316894652253
299.32784422189291718
299.32302156522365522
299.31900549204334538
299.31677080140167391
299.31688892863905949
299.31935279668749672
299.32366547572377158
299.32900219158193522
299.33444309108421066
299.33903860627788163
299.34190257226686072
299.9768947374523691
299.77215143987524471
299.69488138522302734
299.96320559592868449
300.20096497680168568
300.15313158325551512
300.02897491438653788
300.0291980072532283
300.04881353027951718
299.96604966115017987
299.89050392495454389
299.91930907439171961
300.03845288071721598
300.22336572524943676
300.35953615762832669
300.31532892893613962
300.18276242286293609
300.14036999137960038
300.17685544560180233
300.19718069581773534
300.23850011129991344
300.34338648548697392
300.43824371357686687
300.43687409021089252
300.33909395304476675
300.19996187350170658
300.09101142248636052
300.07622231266049084
300.17583855841928653
300.34114336701247794
300.48436865593305356
300.55053311481873379
300.5478420982903458
300.51426877321489428
300.48166925246954406
300.46481688423818923
300.46925484357717551
300.49947308911492883
300.55807306984428351
300.63011531593650716
300.67776355556316048
300.66058307006409223
300.57325076889338789
300.46157034113599593
300.39546084542809012
300.41821619855835479
300.51478428986894187
300.62768446797815614
300.70758456910220957
300.74143449000587225
300.74337866112534812
300.72878416212131469
300.70633615405745331
300.69399766527106976
300.72751948492981455
300.82969784940712543
300.97242891145862131
301.09056578710476515
301.13632320978797452
301.10608829790680829
301.02304597460840796
300.92056311686877734
300.83933697786522998
300.81533594467373405
300.85570192735968931
300.93988810297065584
301.03089552645826643
301.09089451325911568
301.09349045172649539
301.03838518987220141
300.96103128830458218
300.91464857373608766
300.94064542387536676
301.04548892503254365
301.18654208835789632
301.29002324774000954
301.2940004019245066
301.19518062181356299
301.05231032002535585
300.94792610236305563
300.93230318541458246
300.99482350740339598
301.08084820957560623
301.13396180345051789
301.12780413996154039
301.07484185944446153
301.00941149161758403
300.96700555565456625
300.96610935697219702
301.00975242257800346
301.08719847497241062
301.17346729139325134
301.23880295402545926
301.25892057734137097
301.229940412062831
301.1748966804005363
301.13004671143659152
301.12442068480316948
301.16280830694665838
301.22188046292052377
301.26267381542282919
301.26138549310775261
301.22726828863477522
301.19192801256696157
301.17993524105060033
301.19434736582286405
301.21818695463667837
301.23360932822549785
301.23145035703805661
301.2117767158102879
301.18416086825550337
301.16232626416223184
301.15806418475256123
301.17365539622147708
301.199775759733825
301.22255419490704753
301.23218970582598786
301.22462497748665555
301.20010262869431017
301.16341983122134707
301.12622096205939215
301.10721218947827538
301.12365122817863039
301.18039984001774201
301.26836953537218733
301.36842939062927371
301.46131966347451225
301.53370594420141515
301.58148600184642874
301.6046423910086105
301.60189519409135528
301.56703432111788743
301.49233521352294929
301.37860668364839967
301.24499188881378586
301.12605767759038145
301.0582227801934323
301.06078351591531828
301.12898560831240502
301.23924520775238989
301.36045374727655144
301.46357813509087009
301.52656883708289115
301.53729573505489725
301.49588572389649244
301.41759698709478243
301.32787035414202137
301.25424395757136153
301.21701734541926498
301.22789408415610524
301.2860547679582055
301.38188662872317991
301.49620778260458565
301.6084903318301258
301.70129178964407402
301.76435780249659047
301.79328194914785399
301.78346302802594892
301.73145783781609452
301.63559956471237911
301.49641554447015324
301.32001836175339804
301.11766630127476674
300.90325629652892303
300.69065118135648618
300.48996962545288625
300.30529537435330667
300.1353578524489194
299.97717751606921865
299.83049365134201025
299.69923552106348552
299.58980897855394687
299.50678192694743984
299.44921436781271495
299.40966368437960909
299.37816745116947459
299.34777002838791304
299.31719959543244158
299.28966163458426308
299.26779359134786773
299.25041005173238773
299.23392074703889421
299.21583829706781898
299.19686833024292127
299.18037995311698296
299.16967673799388194
299.16614596776338431
299.16874079698834521
299.1747057075522207
299.13032490137953801
299.14073534649384101
299.14915832680378571
299.15823767969550318
299.170524488169292
299.18666737979935988
299.20499026998692216
299.22284219622883938
299.23770184706137343
299.24832130377848216
299.25469004101978499
299.25772751641153491
299.25859505339536781
299.25857762654993621
299.25859108727206603
299.25915040260747446
299.26045321118800757
299.26237758377351383
299.2647251973921243
299.26749698498713315
299.2708663162677567
299.27462902070618611
299.27736345829754327
299.2766314727262511
299.27008335082547319
299.25676607944501484
299.23850708309015545
299.21977017608537608
299.20550822671617652
299.19892949454646214
299.20001919287949477
299.20558870259418427
299.21123487769631311
299.21402691594545331
299.21382919144798507
299.21275007157771597
299.2135349134918556
299.21784000358138655
299.22551003171821549
299.23491383085826101
299.24375554961227408
299.24996679738006833
299.25260586060784362
299.25239875232597342
299.25161364758463378
299.25325883066813049
299.25976536138097117
299.27168922927404537
299.28739246556216358
299.30362588307093574
299.31677439812796138
299.32421318125489051
299.32557103313973812
299.32285455468070268
299.31956758047641642
299.31951791459727019
299.32545950574893823
299.33813100445195232
299.35556649728914635
299.3734044017397764
299.38642738252661957
299.39074368803539983
299.38550920082639095
299.37345764068265908
299.35972584497034177
299.34969043470289307
299.34683137479851212
299.3513434705181453
299.36020249128881687
299.36908836857702454
299.37441784776495979
299.37462485767707676
299.37027525042947218
299.36322751435704959
299.35564224054746774
299.34947326692656588
299.3462848607849196
299.34705035164535047
299.35218521857575524
299.36137120989445748
299.37320144358648122
299.38527912011517174
299.3948065937719889
299.3992777544089563
299.39746744428657621
299.39025520553389015
299.38058815669603518
299.37249844625841888
299.3697397977062451
299.3743677519290145
299.38595999399831271
299.40189005715581061
299.41849894433607915
299.43222986771678507
299.44068977543463461
299.44320207760273433
299.44060424557636679
299.43437501218716079
299.42598185138047029
299.41651661240541671
299.40656493259427862
299.3963779549981723
299.38621432321588145
299.37642724924643289
299.36735549617338847
299.35916226580508237
299.35174925573153359
299.34478701290851177
299.33789190282391246
299.33083784619748258
299.32374880110069171
299.31707026200115251
299.31143798220523422
299.30754033576857864
299.30591296068058682
299.30673850107564249
299.3097698263530333
299.31436908119695772
299.31967610424675286
299.32488695597049855
299.32942333749878117
299.33298347436630138
299.33547579492426394
299.3369039598061363
299.3371547490089597
299.33588677542854839
299.33258074707453034
299.32679098909022741
299.31824704605384113
299.30714537623566684
299.29413586454620599
299.28025734451335893
299.26669584369471977
299.25456380674523871
299.24477556613197748
299.23782546423126405
299.23381351226510105
299.23239782842307477
299.23309040729179742
299.23525173961769497
299.23847873756517401
299.24238952876015674
299.24684290253969721
299.25189735733846419
299.2570928417092091
299.26231527691010115
299.26759125194820399
299.27291504479785544
299.27880989232818365
299.28600589940543841
299.29515318779482413
299.3068364521524245
299.32112386170365426
299.33762698415199566
299.35537130004553319
299.37285931466237798
299.38853337619144668
299.40147391347858274
299.4117831678447601
299.42036019776850253
299.42867918363282342
299.43816172752377724
299.44948443584002007
299.46238620453829071
299.47576966677485188
299.48821602414557219
299.49861872277858765
299.50676942168394135
299.51345561282744256
299.52004573540983756
299.52769983458398428
299.53695917588100883
299.54724503216237963
299.55699967936419625
299.56418505396248975
299.56715542870790614
299.56526085415606531
299.55899812504696911
299.54971792781651629
299.53911257161104231
299.52867411866333214
299.51923141856042321
299.51076922957958004
299.50279680892811029
299.49486115817040854
299.48689118502505835
299.47942980152731707
299.47348108047492588
299.47014422525563759
299.47009960402232309
299.47329440282555879
299.47881807831032575
299.48513717152331992
299.49059781237667721
299.49393625800257723
299.49457489476606042
299.4927818230904677
299.48954355587181908
299.4859294698735539
299.48265327721088624
299.47970548963775173
299.47642092488973731
299.47177654200407915
299.464846842528857
299.45528962457620992
299.44367253904425752
299.43130539508882748
299.41978851359334612
299.41041353250273005
299.40382880767634788
299.39978744525285492
299.39737335722151101
299.39553879340928688
299.39342582297786066
299.39080472475649231
299.38823877983691091
299.38661548426676973
299.38683684299883225
299.38953301099860482
299.39478540374989279
299.40203990406496359
299.41013262574227838
299.417834583430988
299.42401513002624824
299.42800946596645417
299.42935401059719425
299.42788065912446882
299.4236188007414512
299.41668326945864465
299.40766559029111704
299.39722123408995458
299.38608243821653332
299.37517881037751977
299.36542625978313481
299.35768740662558685
299.35266736836689461
299.35056003740470487
299.35091998931943635
299.3528236509014846
299.35513891934806452
299.3567326910441011
299.35664966479311033
299.35443594904995734
299.35038100769793346
299.34536550208787276
299.34045271859480408
299.33656513837985358
299.33438373940276733
299.33425918119559128
299.33608484507954017
299.33937228962673771
299.34339513956558676
299.3473654051171593
299.35060612060556196
299.35249452311137475
299.35248941667242661
300.13358848147197477
299.70392082606366557
299.79341992699545472
300.09011151925938066
300.38626811149276818
300.42755562897127675
300.27758961016087369
300.16761087521308582