/*--------------------------------*- C++ -*----------------------------------*\
  =========                 |
  \\      /  F ield         | OpenFOAM: The Open Source CFD Toolbox
   \\    /   O peration     | Website:  https://openfoam.org
    \\  /    A nd           | Version:  12
     \\/     M anipulation  |
\*---------------------------------------------------------------------------*/
FoamFile
{
    format      ascii;
    class       volScalarField;
    location    "0.0066";
    object      alphat;
}
// * * * * * * * * * * * * * * * * * * * * * * * * * * * * * * * * * * * * * //

dimensions      [1 -1 -1 0 0 0 0];

internalField   nonuniform List<scalar> 
106891
(
8.6359831125196010615e-06
8.6279609647866205237e-06
8.6187646134276447302e-06
8.6109852054917498736e-06
8.6020009777133580421e-06
8.5942602366036805866e-06
8.5852094124930615086e-06
8.5773881042625771138e-06
8.5682508166437840831e-06
8.5604248590214526883e-06
8.5506439356902477327e-06
1.1397917042770565725e-05
1.1432244432502860405e-05
1.1461589872064373852e-05
1.1482802649566023164e-05
1.149423126748402514e-05
1.1496424885350675993e-05
1.1492829873678332513e-05
1.1488238409162275698e-05
1.1488394347708107598e-05
1.1498462921244471249e-05
1.1520669332764607966e-05
1.1553885458199010403e-05
1.1594550249990397689e-05
1.1637716277602416656e-05
1.167883318496057177e-05
1.1714473924038383394e-05
1.1743392596022015988e-05
1.1765954013142925405e-05
1.1782866471841514855e-05
1.1795433766935284944e-05
1.1804688431338874899e-05
1.1812293719131019214e-05
1.1818920427032776068e-05
1.1827078276143698494e-05
1.1838214938554455258e-05
1.1853715125755402856e-05
1.1873054582704783587e-05
1.1894994816966203999e-05
1.1917131065112060908e-05
1.1936791922120674165e-05
1.1953136633131433432e-05
1.1965755894611155606e-05
1.1975605508537334225e-05
1.1983812675165347463e-05
1.1991970455854530667e-05
1.2000528705393881298e-05
1.2010536484905045629e-05
1.2022081468605668117e-05
9.1675296411745736523e-06
9.1576297926118862966e-06
9.1492821980036954124e-06
9.1395356419753918145e-06
9.1311053514262686433e-06
9.1210729694652797488e-06
9.1124336166746475142e-06
9.102291900950386979e-06
9.0937047295589184658e-06
9.0837442947181694933e-06
9.0754236207853029747e-06
9.0656058904953618608e-06
9.0573654323846137918e-06
9.0475770539864817547e-06
9.0392048658971238973e-06
9.0291444535656196753e-06
9.0205248644561863817e-06
9.0102551680459624944e-06
9.0016176566969887047e-06
8.9905645063860028068e-06
1.2041665697244787251e-05
1.207460996562889234e-05
1.2098313266230244215e-05
1.2111640291987700498e-05
1.2115139210215100619e-05
1.2111251775047577483e-05
1.2103978121069549248e-05
1.2097081991524414379e-05
1.2094033491945814141e-05
1.2099312948089606233e-05
1.2125827792898994216e-05
1.2178924364242675209e-05
1.2235766039010457433e-05
1.229022737738214164e-05
1.2337234135830095743e-05
1.2373808517309375704e-05
1.2399286228783355167e-05
1.2414651641804661111e-05
1.2422013607047303137e-05
1.2424597741272775712e-05
1.2425002988509815452e-05
1.2426469313312268346e-05
1.2430752403328598687e-05
1.2440598183070864286e-05
1.2456126129648835147e-05
1.2476462972494169014e-05
1.2500294270252429536e-05
1.2524616356751145375e-05
1.2547379458665712152e-05
1.2566736922533828323e-05
1.2582739406255501392e-05
1.2595318313831911048e-05
1.2606274984091155782e-05
1.261632728833685453e-05
1.2627195403955378988e-05
1.2639402151647180104e-05
9.6440296027504177545e-06
9.6333742844388463457e-06
9.6245308920599849319e-06
9.6139778692986501172e-06
9.6049838186312029212e-06
9.5941471018009906105e-06
9.5850149991409780599e-06
9.5741406281904078675e-06
9.5652044762380222462e-06
9.5546432087326767251e-06
9.5460483865785604885e-06
9.5356486437386857595e-06
9.5270230228010495242e-06
9.5164340373409313657e-06
9.5074024864489432764e-06
9.4962773720994743913e-06
9.4868327525598385576e-06
9.4753608348645207502e-06
9.4658833778123211377e-06
9.4535297028909496528e-06
1.2659270563595638774e-05
1.2687770891407914404e-05
1.271055222869792872e-05
1.2728208578326874193e-05
1.2742584668099910555e-05
1.2756468763451081516e-05
1.2773241161810511927e-05
1.2794559520106798978e-05
1.2821838728309277653e-05
1.2854138501041093061e-05
1.2889119248636084813e-05
1.2923972893327050518e-05
1.295581938969908047e-05
1.2982976580260459454e-05
1.3004395720091670239e-05
1.3020806498824394703e-05
1.3032682569359645472e-05
1.3042034820229380249e-05
1.3049876314077431131e-05
1.305912997904280952e-05
1.3070829745534703182e-05
1.3087152244655498275e-05
1.3108054065028391314e-05
1.3133289534258226936e-05
1.3161114173237058829e-05
1.3189651943718686236e-05
1.3217378073340547317e-05
1.3242107733011726977e-05
1.3262700310219410912e-05
1.3278281031346189886e-05
1.3289820727459190664e-05
1.3297771476443941244e-05
1.3304026704503317465e-05
1.3309759357031365504e-05
1.3316846419411728378e-05
1.3326321893568377218e-05
1.0134306622449515504e-05
1.0124811784970423202e-05
1.0113256659586031415e-05
1.0103559520133133077e-05
1.0091783330372645341e-05
1.0082065336675991623e-05
1.0070383590516343816e-05
1.0061052335689305782e-05
1.0049862674933880116e-05
1.0040996738705036244e-05
1.0029998886994699679e-05
1.0021012472580739122e-05
1.0009625724117477102e-05
9.9999754205529246424e-06
9.987736995917172937e-06
9.9774389023392564418e-06
9.9647224418216313315e-06
9.9543926272759247694e-06
9.9407243936011420747e-06
1.3333745448099111781e-05
1.3387316923949874823e-05
1.3429111145478064523e-05
1.3458598108955452003e-05
1.347755035653344298e-05
1.3490520342363434883e-05
1.3501967900053261101e-05
1.3516086689677149013e-05
1.3534729602274607027e-05
1.355822718622376344e-05
1.358467351420364111e-05
1.3611636645394589547e-05
1.3636454044343739904e-05
1.3657767953080624857e-05
1.3675014328004252772e-05
1.3689747968311706352e-05
1.3703595334771852615e-05
1.3719751318701426429e-05
1.3739559572644446399e-05
1.3764992767668917214e-05
1.3795022187086184088e-05
1.3828026443575907752e-05
1.3862348644338778544e-05
1.3895545789090979981e-05
1.3926426958305409523e-05
1.3952905343043409025e-05
1.3975438297060320143e-05
1.399257650291974413e-05
1.4004765044261863603e-05
1.4011715316217217476e-05
1.4014369092200601257e-05
1.4013853740142406671e-05
1.4012668947057819118e-05
1.4013104744821202661e-05
1.0674296355921654889e-05
1.066163058359573288e-05
1.0651315096396933728e-05
1.0638617825189073695e-05
1.0628083316696280544e-05
1.0615212706589300046e-05
1.0604824707559556355e-05
1.0592260644134223556e-05
1.0582513563394418428e-05
1.057063651475221879e-05
1.0561441492229960512e-05
1.0549772283250031976e-05
1.0540364837695371007e-05
1.0528104459846873093e-05
1.0517806708491770067e-05
1.0504397271313681408e-05
1.0493266944426098573e-05
1.0479328367316189638e-05
1.046817345117037341e-05
1.045321246018586446e-05
1.4061049667282278381e-05
1.4091366636833122951e-05
1.4114346388097522123e-05
1.4131002206303713462e-05
1.4144384177960804864e-05
1.4157279659208102415e-05
1.4173457470299158486e-05
1.4195829432750076189e-05
1.4225862246437791608e-05
1.42627152599430486e-05
1.4304011588827750956e-05
1.4345546783969576697e-05
1.4383718971935719334e-05
1.4414234114530594005e-05
1.4435429023384008137e-05
1.4446321978110431887e-05
1.4449859312559030019e-05
1.4449545482569871825e-05
1.4450486098992835416e-05
1.4456825449984574692e-05
1.4470776998723827137e-05
1.4493029801829813597e-05
1.4521511167171897888e-05
1.4554214291194479387e-05
1.4588209000694589011e-05
1.4622180460521300716e-05
1.4653722922833973307e-05
1.4681822101613351168e-05
1.4705146989032454196e-05
1.4722678964819255361e-05
1.4734111440090189618e-05
1.474043379871323174e-05
1.4744092102374227988e-05
1.1216861276886201285e-05
1.120549829369731327e-05
1.1191456316914166083e-05
1.1180011762457979491e-05
1.1166000244568823223e-05
1.1154923455200339152e-05
1.1141389072740985188e-05
1.1131077470635181371e-05
1.1118401884449854736e-05
1.1108713245562843781e-05
1.1096243019957730881e-05
1.10862692025810747e-05
1.1073009389928642642e-05
1.1061989039837665479e-05
1.1047425801465695527e-05
1.1035486226393558039e-05
1.1020379197821014006e-05
1.1008436292506200722e-05
1.099221561076639886e-05
1.4797707147321274081e-05
1.4829120302267726985e-05
1.4857622302016980113e-05
1.488366449068897072e-05
1.4908088259967516092e-05
1.4932027656650851525e-05
1.4957165935314413032e-05
1.498473920337394629e-05
1.5014876477297260416e-05
1.5047317046941018152e-05
1.5079783809481404452e-05
1.5110262675763782534e-05
1.5134966396915063678e-05
1.515300578525608912e-05
1.5162828163012322317e-05
1.5167252034325054712e-05
1.5169690639803227187e-05
1.5175281360690134002e-05
1.5187834524097191066e-05
1.5208796088881953757e-05
1.5238179394579227878e-05
1.5273055859319683371e-05
1.5310956909176558823e-05
1.5348627347606883106e-05
1.5385127991448063365e-05
1.5418414932150688014e-05
1.544768960699426349e-05
1.5471654962548021345e-05
1.5489952165736064793e-05
1.5502238505932084176e-05
1.5509614121117281451e-05
1.5514584141484617661e-05
1.1801687278626048647e-05
1.1789207593450455979e-05
1.177381110997744743e-05
1.1761413614085265936e-05
1.1746228922887100112e-05
1.1734430267438797412e-05
1.1719912081058634482e-05
1.1708959431576964905e-05
1.1695327082603681495e-05
1.1684901376775787781e-05
1.1671386137837373145e-05
1.166059012079781732e-05
1.1646178272089263234e-05
1.1634369223193017422e-05
1.1618708029133233665e-05
1.160603929474141636e-05
1.1589885361030852681e-05
1.157724946206283793e-05
1.1559839012964619236e-05
1.5591413472193254886e-05
1.5634361144841316587e-05
1.5676632708113647711e-05
1.5716703709841588666e-05
1.5753248544284244054e-05
1.5786185090441970423e-05
1.5815423314167664976e-05
1.5842242057128025758e-05
1.5866273902835620465e-05
1.5888572171968534495e-05
1.5907820657242145805e-05
1.5923563039679163473e-05
1.5934533320082100601e-05
1.594134268840440572e-05
1.594608643024157782e-05
1.595213390372663396e-05
1.5963809983104123907e-05
1.5983989438099695561e-05
1.601361277778162544e-05
1.6050435710941183875e-05
1.6092606362710321706e-05
1.6136056691547431564e-05
1.617796007389689974e-05
1.6216180837002685627e-05
1.6249814691506672952e-05
1.6278031763925056503e-05
1.6300209005455852559e-05
1.6316280849139128812e-05
1.6327139073304912901e-05
1.6334377642961711726e-05
1.2405150309682119332e-05
1.2388595931225179496e-05
1.2375401199309244034e-05
1.2359247525517541894e-05
1.2346749597505439077e-05
1.2331316621784103524e-05
1.2319652072051250329e-05
1.2304961636872102678e-05
1.229359565141254816e-05
1.2278795419076179258e-05
1.226698335797883224e-05
1.2251329709183464799e-05
1.2238672948860012819e-05
1.2222059283705944413e-05
1.220887181629195484e-05
1.219190866134008381e-05
1.217880067161712933e-05
1.2160563819774202751e-05
1.647352856672947111e-05
1.6517608493186225531e-05
1.6554194609631125171e-05
1.6584538157944205011e-05
1.6609232517948769491e-05
1.6631747763614862994e-05
1.6652756602713334675e-05
1.6673973371336736263e-05
1.6694436888126068752e-05
1.6713844762129125433e-05
1.6730763867851246383e-05
1.6744737026308247372e-05
1.6757369379719539083e-05
1.6770376871428514857e-05
1.6786554358592120244e-05
1.6807579880758564261e-05
1.6835051327106628018e-05
1.6867836267798857997e-05
1.6904663190424400562e-05
1.6943981687933759865e-05
1.6984292309380353485e-05
1.702376782276966233e-05
1.7060898589624444823e-05
1.7094926906593426613e-05
1.7124303451099040616e-05
1.7148052944040620063e-05
1.7165584897299006209e-05
1.7178051270631116158e-05
1.3070503320036318043e-05
1.3053670921614904339e-05
1.3040081153476354832e-05
1.3023792737617846107e-05
1.3010897853766402994e-05
1.2995188588557796824e-05
1.2982879195152096467e-05
1.2967434249841536308e-05
1.2955060243858826767e-05
1.2939334796404462839e-05
1.2926507937505354385e-05
1.2910109930101046463e-05
1.2896906332672340684e-05
1.2879980915569673536e-05
1.2866684007285406156e-05
1.284954879108443312e-05
1.2836328775381558817e-05
1.2818647037288448414e-05
1.7338099541925777356e-05
1.7371822132821453062e-05
1.7403000521909097332e-05
1.7431375039831638405e-05
1.7459213415894819706e-05
1.7486088297844674353e-05
1.7513254601362494161e-05
1.7540050656574382085e-05
1.7566766817532666309e-05
1.7592348536965466777e-05
1.7616370548253893792e-05
1.7638682407973871493e-05
1.7659163136693960912e-05
1.7678786929051272129e-05
1.7698623488382808828e-05
1.7720913358043304127e-05
1.7745906608201974202e-05
1.7774897872906828992e-05
1.7807247151133174748e-05
1.7842109248331999128e-05
1.7877697208720178738e-05
1.7912276802375983451e-05
1.7945105900391556384e-05
1.7974987543770551884e-05
1.8001704058119468973e-05
1.8024964954490673412e-05
1.8045515823591587896e-05
1.3686222442821299476e-05
1.3666809168634450091e-05
1.3650542399121483333e-05
1.3631380859478666544e-05
1.3615179914854340598e-05
1.359632408317441506e-05
1.3579924543394519972e-05
1.3560716670476914429e-05
1.3544110925627333969e-05
1.3524277661474266889e-05
1.3507722071777751143e-05
1.3487873677300349603e-05
1.3471434422578231304e-05
1.3452140431165600175e-05
1.3435591897764961693e-05
1.3416358547410432006e-05
1.3399804725818200053e-05
1.8030116542238148862e-05
1.8031319447523277874e-05
1.8039467155704359781e-05
1.8060060015969268699e-05
1.8096827707027518328e-05
1.8147675018987230157e-05
1.8209445031631766373e-05
1.8274523211239678699e-05
1.8335962479382665157e-05
1.8388003995765104691e-05
1.8427847389329087382e-05
1.8455145325697773576e-05
1.8471168456968609485e-05
1.8478692369304814498e-05
1.8480917896681577837e-05
1.8482130450713162527e-05
1.8486034770712471854e-05
1.8496960590396322984e-05
1.8517675709503398078e-05
1.854857946626044951e-05
1.8587876957986995506e-05
1.8631628292248914372e-05
1.8675753547702650392e-05
1.8715814205317065808e-05
1.8750172039813274837e-05
1.8777030275437254277e-05
1.8797185248052154419e-05
1.4030596280540440931e-05
1.401270424971841794e-05
1.3986864499058701864e-05
1.3968803634010373865e-05
1.3942532190384403887e-05
1.3924037674324200254e-05
1.3897308591926755951e-05
1.3878638943523005479e-05
1.3851570228641242556e-05
1.3833152596490044513e-05
1.3806513721173213982e-05
1.3788666906272443728e-05
1.3762454273693533198e-05
1.374495337154275844e-05
1.3714140356009163179e-05
1.370677732875644756e-05
1.40770967869331121e-05
1.4068554777121233319e-05
1.4059768437380396787e-05
1.4051963346310651146e-05
1.4045511625313170695e-05
1.4042405380724741763e-05
1.4051226330358810614e-05
1.4100203634494702353e-05
1.4195907115258415754e-05
1.4284569648536470443e-05
1.4360387379099710849e-05
1.4420024523472412426e-05
1.4461873894131367966e-05
1.4486395212389373329e-05
1.4496045353578136704e-05
1.4495166862609176785e-05
1.448889529939057736e-05
1.4480193033051616818e-05
1.4470004867152108828e-05
1.4460273640734490593e-05
1.4452130946907762991e-05
1.4453310300623627854e-05
1.4487730393668139415e-05
1.4558233752299555157e-05
1.4618748870494037827e-05
1.4666827345285962878e-05
1.4701042376170169688e-05
1.4722980471873071053e-05
1.0893101221098877573e-05
1.0873184101989096637e-05
1.0858776233501143426e-05
1.0838553867941621458e-05
1.0823910903656730996e-05
1.08035615339503535e-05
1.0789113690541079636e-05
1.0768911607216630157e-05
1.0755094114162851599e-05
1.0735498810966013637e-05
1.0722272613119939331e-05
1.0703076317603104847e-05
1.0690103524124932292e-05
1.0667593288031361763e-05
1.0664843709053307166e-05
1.343032907888713297e-05
1.3432586110219327908e-05
1.3429943028390217667e-05
1.3426436778265587291e-05
1.3425251910818650845e-05
1.3431361743100730518e-05
1.3460781006133539685e-05
1.3515364949611326578e-05
1.3571913172438571164e-05
1.3623414501891275872e-05
1.3665191776171112375e-05
1.3694638899075346018e-05
1.3711986519039941922e-05
1.3720217172621156768e-05
1.3722772629164970527e-05
1.3724442693547951559e-05
1.372909912520866877e-05
1.3740268651768551396e-05
1.3759064979347880903e-05
1.3785465422089082153e-05
1.3817797066602981813e-05
1.3853424974967977777e-05
1.3889304849589308201e-05
1.3921838260856571104e-05
1.3948882004733838768e-05
1.396793914790945117e-05
1.3979179519820166604e-05
1.0375716617907285855e-05
1.0362565231744903094e-05
1.0344698576389749667e-05
1.0331573654717117404e-05
1.0313893217790192703e-05
1.030122278135048624e-05
1.028387356868071015e-05
1.0271860595830110247e-05
1.0254971965750721825e-05
1.0243277288784376675e-05
1.0226461114643867455e-05
1.0214737091625293892e-05
1.0195763802586203179e-05
1.0187327891645525841e-05
1.2916100943599876803e-05
1.2919201550192997962e-05
1.2926201003237298339e-05
1.2940250649100489054e-05
1.2961834704951018769e-05
1.2990183666055470904e-05
1.3022076980659040067e-05
1.3055238321007842203e-05
1.3086401170808323948e-05
1.3114251941246058837e-05
1.313817603043802226e-05
1.3158549291879495131e-05
1.3176577544065174992e-05
1.3192976599940971512e-05
1.3209175031507730441e-05
1.3225513866937450275e-05
1.3243672804961215489e-05
1.32639869268773277e-05
1.3287139322582337201e-05
1.3312553979509632042e-05
1.3339348741319922661e-05
1.3365873444194204352e-05
1.339009669559983263e-05
1.3410791215078303533e-05
1.342590801206892171e-05
1.3435755178375959813e-05
9.9824602632352584132e-06
9.965333200299557708e-06
9.9528051114778259329e-06
9.9361588264584643971e-06
9.9243495625260320285e-06
9.9082112879672373291e-06
9.8970220987256105343e-06
9.8812154542758979956e-06
9.8701526253909433476e-06
9.8541530507407999523e-06
9.8428192831020858752e-06
9.8248874227562590255e-06
9.8160661565425910648e-06
1.2430095714096245095e-05
1.2437661530105398368e-05
1.245267734496349086e-05
1.247538331187414747e-05
1.2504727931311622249e-05
1.253773483929677843e-05
1.2572117768747774616e-05
1.2604237564433226707e-05
1.2632211923693412612e-05
1.2655359106241191453e-05
1.2673983267435046798e-05
1.2689551212595920785e-05
1.2703425810895376956e-05
1.2717466436484741292e-05
1.273223228720389074e-05
1.2748904312888712474e-05
1.2767162133380624515e-05
1.2787201733414291842e-05
1.2808359081864099981e-05
1.2830162477023533687e-05
1.2851504825365790054e-05
1.2871025010860120429e-05
1.2888045864200757429e-05
1.2900867092505699917e-05
1.2909807413041812237e-05
9.5861821090001643399e-06
9.5741594724161279187e-06
9.558271500392725119e-06
9.5471780356102058063e-06
9.5319189714634918267e-06
9.521362270914127853e-06
9.5062797480291580041e-06
9.4956408817866773425e-06
9.4801488606420347531e-06
9.4690798663739770327e-06
9.4515911922078149626e-06
9.4429920273009415241e-06
1.2011903552590627922e-05
1.2005944519407987746e-05
1.2002033535728360902e-05
1.2004718627105704141e-05
1.2028126089869974161e-05
1.2070859931437492876e-05
1.2113241467280194357e-05
1.2152177568438766702e-05
1.2185151305736470262e-05
1.2211503601995146539e-05
1.2232497420740990929e-05
1.2249490092519009534e-05
1.2265262109408923573e-05
1.2281022446015425452e-05
1.2298470102446326473e-05
1.2317173446513005524e-05
1.2337354353576016855e-05
1.2358228371856638518e-05
1.2379065995321749047e-05
1.2398891628647598732e-05
1.2416396239805380788e-05
1.2430912189209322936e-05
1.2441487125968075654e-05
1.2448659842949300891e-05
1.1552226903805981479e-05
1.1549960800360715391e-05
1.1557605658313762265e-05
1.1591100333408764668e-05
1.163575585328906301e-05
1.1677894815980277972e-05
1.1715171815071422681e-05
1.1745716907038764111e-05
1.1769522067610901586e-05
1.1788206879451213738e-05
1.1803683855460771253e-05
1.1818297416335011633e-05
1.1833251226206699497e-05
1.1849686014738559055e-05
1.1867379383428801475e-05
1.1886097875552393833e-05
1.1905198370745750439e-05
1.1924142342597454232e-05
1.1941715157429484858e-05
1.1956925442731987656e-05
1.1969278367285056966e-05
1.1977828772950953394e-05
1.198356617004890495e-05
1.1185241406697014657e-05
1.1204881270496964499e-05
1.1223814441457369189e-05
1.1240965554594199347e-05
1.1256085945736669476e-05
1.1270042134686041887e-05
1.1284015055004806871e-05
1.1299921134884239522e-05
1.1319225771930933649e-05
1.1343089138623431561e-05
1.1371199417881715105e-05
1.1403049284364986048e-05
1.1436841583717128682e-05
1.1470874575235847362e-05
1.1502854542726422308e-05
1.1531063755611733481e-05
1.1554042391246164688e-05
1.1570691567070307581e-05
1.1581595474701050728e-05
1.1587017133786893164e-05
1.1588819317425131332e-05
1.0834459061774870639e-05
1.0851824974990942338e-05
1.0869588720586626041e-05
1.0888483835315697582e-05
1.0908352070486352362e-05
1.0929665887337096421e-05
1.0952677087104338124e-05
1.0977501616725555156e-05
1.1004377797238837746e-05
1.1033643212166987634e-05
1.1064453018437756096e-05
1.1094723678736415073e-05
1.1121958630011526901e-05
1.1143610509763796104e-05
1.1158449818797732929e-05
1.1165731919214972668e-05
1.1167099417785303822e-05
1.0531941952251221126e-05
1.0543870751053408241e-05
1.0560137250953895616e-05
1.0580815074766320691e-05
1.0605413853571440922e-05
1.063338547677059326e-05
1.0663555077516573472e-05
1.0693678477739034083e-05
1.0721054328177832094e-05
1.0743114313569036139e-05
1.0758577752644680564e-05
1.0766545892699062422e-05
1.0768647455355558591e-05
1.0142129543308550356e-05
1.0139262811415964693e-05
1.0143201198670809477e-05
1.0158978132240596674e-05
1.018350298048541955e-05
1.0213670393903286735e-05
1.024573875462457137e-05
1.0275667889499440718e-05
1.0299952690178811802e-05
1.0317779023406495722e-05
1.0328492265884383375e-05
1.0333439703514857706e-05
6.1041731410506743988e-06
6.232263852379281217e-06
6.2713735832299154414e-06
6.2663147689404079913e-06
6.2444366224436139768e-06
6.1690582724037994306e-06
5.9477988938443403851e-06
5.7042368456434164843e-06
5.5211686859642135835e-06
5.3975115353317476658e-06
5.3260052312974884956e-06
5.2946054932615836897e-06
5.2872471710663439365e-06
5.2897117563184033054e-06
5.3054047694554367997e-06
5.3634148615051592128e-06
5.5579403246259742106e-06
5.8850809268738909239e-06
6.1304706925911332742e-06
6.2778618431828306154e-06
8.3568566981399787876e-06
8.6069881417737095395e-06
8.7225331943833483181e-06
8.7483600908005154098e-06
8.7354818165680056275e-06
8.7042716970180044955e-06
8.6103189028281954881e-06
8.3339675953539391079e-06
7.9787424131066558017e-06
7.680202623917233823e-06
7.450203681558184926e-06
7.2930468752117660596e-06
7.2027978652726599865e-06
7.1674461352256423147e-06
7.1612900369659616764e-06
7.1677957010297060583e-06
7.2006351684856461528e-06
7.3171669879964281754e-06
7.6457389467327562909e-06
7.9884519454808651593e-06
8.21683219571360307e-06
8.3353210143029326997e-06
1.3507300257649140451e-05
1.3854590283318126827e-05
1.4052310486454538461e-05
1.4120090983694582825e-05
1.4115657207327312694e-05
1.4086204213877664043e-05
1.4016498364501406201e-05
1.3841303458100566939e-05
1.3486587898201424975e-05
1.3133344721591449247e-05
1.2835106917185308512e-05
1.2616656162644195507e-05
1.2489099857517318811e-05
1.2438273004634551236e-05
1.2425908824336254864e-05
1.2432050585636139265e-05
1.2482726820214155579e-05
1.2660039194127865129e-05
1.2982118825920818591e-05
1.3240719867176399153e-05
1.3403110797634163126e-05
1.3475047329981422985e-05
1.3488963394893363032e-05
1.3473431645007945967e-05
1.3430517971916089491e-05
1.331154636426692591e-05
3.0765809614034011544e-05
3.0956490320705844015e-05
3.101611847439463785e-05
3.1006596271273893469e-05
3.0945845347022453669e-05
3.0755904009187379135e-05
3.0341422221619828825e-05
2.9935477382760922996e-05
2.9605454089718499436e-05
2.9363181846729575667e-05
2.9219127125156114461e-05
2.9152510925481537078e-05
2.9126853549113389464e-05
2.9121028571440411321e-05
2.9168498513713557837e-05
2.9364018500572749461e-05
2.9751908492034436556e-05
3.0138800950194364014e-05
3.0461137112867258807e-05
3.0674366411648382538e-05
3.0774882438537071335e-05
3.0800434235778861728e-05
3.0784097973813492042e-05
3.0720260873372848102e-05
3.0512894183326756811e-05
3.0077380541900555945e-05
2.9681495569612116657e-05
2.9406039601555646144e-05
6.6764509063666315478e-05
6.679599208104574574e-05
6.6761408297179845352e-05
6.6655407615321424306e-05
6.6363598056635628684e-05
6.5934799994974327528e-05
6.5545610350728532398e-05
6.5212907066991842057e-05
6.4949281822631357549e-05
6.4772680111004171904e-05
6.4673561463018597382e-05
6.4632950280652385873e-05
6.4637886451871960289e-05
6.4737689360442089107e-05
6.496517125327925656e-05
6.5182788248035596697e-05
6.5354732179747886405e-05
6.5456539643335827318e-05
6.5489927092273931305e-05
6.5465297925353411611e-05
6.5404060352618830052e-05
6.5267148792114693914e-05
6.4959368823674183409e-05
6.4581616205629217104e-05
6.4247734280166600884e-05
6.3966988840747664429e-05
6.3767023746753954071e-05
6.3657116677983291929e-05
6.361701067491030764e-05
6.360581416985041953e-05
0.00010221393578764956429
0.00010195573822323725536
0.00010167000365319818055
0.00010136285785148292009
0.00010104685420570640728
0.00010073747125691769305
0.00010044860820024727015
0.00010018742182735778789
9.9954103097612856691e-05
9.9749851396716728426e-05
9.9579118681245634009e-05
9.9448706891037811674e-05
9.9360360215540823904e-05
9.9298741044944263418e-05
9.9232514395007534024e-05
9.9129313189296700427e-05
9.8971207808862753747e-05
9.8759977277201323837e-05
9.8508252343227110394e-05
9.8230813692858927723e-05
9.793901355512024101e-05
9.7644721964166783382e-05
9.7362891861068619854e-05
9.7109514313341475998e-05
9.6895843653174907771e-05
9.6724721792284433855e-05
9.6589914678644410006e-05
9.6481673710451291114e-05
9.6386527584559964616e-05
9.6290140250920904365e-05
9.6175397705938121579e-05
9.6032432680318987272e-05
0.00012303387932338023564
0.0001227841598227798973
0.00012252545331071501154
0.00012225368053182740675
0.00012197151535867724369
0.00012168611445759505393
0.00012140351542652294428
0.00012112381909725191092
0.00012084192967129699407
0.0001205569301758735028
0.00012027980943654462424
0.00012002828680581844407
0.00011981537949899854145
0.00011963360616204143027
0.00011945461867027630293
0.00011925097934977846401
0.00011901486687753975861
0.00011876213684848284846
0.00011851612903695333818
0.00011829078500284722481
0.00011808593346110893838
0.00011789340379854691796
0.00011770522396759098616
0.00011751738792079594259
0.00011732682464165001765
0.00011713062761559622435
0.00011692778003774029238
0.0001167210351495193317
0.00011651287523297772545
0.00011630462235094142823
0.00011609506347510590088
0.0001158840663958903358
0.00011567187126211396627
0.00016201330839027677094
0.00016107837805009490991
0.00016016664233836855487
0.00015931571115428068853
0.00015854269794541390732
0.00015781044205056179975
0.00013461408031717529655
0.00013440483960436950487
0.00013418055662369653613
0.00013393641449871532571
0.00013367634120933164833
0.00013340976442970407584
0.00013314397238947878795
0.00013287784020089596728
0.00013260420603770803295
0.00013232108173332678093
0.00013204422366697952116
0.00013179871516671995348
0.00013160244748799734544
0.0001314479993882703584
0.00013130154768351560003
0.00013112970859189892678
0.00013092337875940434017
0.00013070040750253988275
0.00013048628211803062118
0.00013029402668091990733
0.00013011940618302977554
0.00012994955203695518226
0.00012977349674612157805
0.00012958707221413640867
0.00012938934048324811301
0.00012918073857888520499
0.00012896478120651976864
0.00012874721420049714841
0.00012853256144882319219
0.00012832169372333762495
0.00012811217010350484536
0.0001279011199563454557
0.00012768998173640411556
0.00012748259883396301814
0.00015665250595469620691
0.00015572643271631473119
0.00015483417750794572208
0.00015400212967600082018
0.00015325298941689299566
0.00015256655335803387635
0.00015187858384172427313
0.00013344960520749241367
0.00013330482979625262146
0.00013312706124537942889
0.00013292092482555836037
0.0001327006225297965112
0.00013248332220920804362
0.00013228044222915807883
0.00013209361078239621463
0.00013191940820522513739
0.00013176107349883669725
0.00013163495492717148323
0.00013155917426268463714
0.00013153079518322645792
0.00013152099380599877238
0.00013148447257856955579
0.00013139181099292007986
0.00013125088446504676689
0.00013109408521872823513
0.00013095090591506538722
0.00013082784045705716635
0.00013071306690196592137
0.00013058866171180425115
0.00013044378770135016225
0.0001302761336501017254
0.00013008874867305249994
0.00012988678874035651176
0.00012967732894392328688
0.0001294675948259269569
0.00012926188038634895436
0.00012905978919388843402
0.00012885792099995215529
0.00012865468149325301602
0.00012845392102584125837
0.0001282616198829325115
0.0001280821880339714071
8.3461948102999808393e-08
8.3590000911028188344e-08
8.3717161907200645095e-08
8.3980246204042395908e-08
8.4159147503961227439e-08
8.4435105503513545845e-08
8.4856970769596851573e-08
8.5066444052811390652e-08
8.5424341872055575029e-08
8.5808739830797619068e-08
8.5912582796305893223e-08
6.7673602369903726927e-07
6.7653313683789095123e-07
6.7618430871115617756e-07
6.7571188094186352412e-07
6.7527272038817810472e-07
6.7517049528300739162e-07
6.7619458970700881142e-07
6.8022633954323315045e-07
6.8544252555268119244e-07
6.8973219732627428382e-07
6.9264184913044256846e-07
6.940995553390358711e-07
6.9432021081695650827e-07
6.9384407756297466853e-07
6.9317743702537698548e-07
6.9218331293135046331e-07
6.9024356789216131509e-07
6.86902835584106989e-07
6.838891302967805308e-07
6.8145693367729453982e-07
6.7964783930322331336e-07
6.7844997242126891937e-07
6.7771268416128496652e-07
6.7717868853780042027e-07
6.7662059878448187215e-07
6.7592974474068898253e-07
6.7514608263774538214e-07
6.7439540585767942166e-07
6.7375051989277736983e-07
6.7323465337255282213e-07
6.7278613389867414335e-07
6.7238726467180351157e-07
6.7203958677222935828e-07
6.7167961991160463548e-07
6.7129964655968286525e-07
6.7073990593943186283e-07
8.7599722932281665985e-08
8.7594821532442790134e-08
8.7672484354186351691e-08
8.7683838174013258383e-08
8.7755769507637781547e-08
8.7805759691589045619e-08
8.7886549001452863271e-08
8.7953908594893332945e-08
8.8077956313502089578e-08
8.813225383853072424e-08
8.8292730177808648587e-08
8.8389898411292716122e-08
8.8501003070967666645e-08
8.8739814754387249044e-08
8.8861556450818869388e-08
8.9112811239186131049e-08
8.946450409505536227e-08
8.9643501986952078121e-08
8.9992577389940105522e-08
9.0358245322438373905e-08
9.0427551237177821258e-08
7.0265666766815864675e-07
7.0590817048645671762e-07