/*--------------------------------*- C++ -*----------------------------------*\
  =========                 |
  \\      /  F ield         | OpenFOAM: The Open Source CFD Toolbox
   \\    /   O peration     | Website:  https://openfoam.org
    \\  /    A nd           | Version:  12
     \\/     M anipulation  |
\*---------------------------------------------------------------------------*/
FoamFile
{
    format      ascii;
    class       volScalarField;
    location    "0.0066";
    object      nut;
}
// * * * * * * * * * * * * * * * * * * * * * * * * * * * * * * * * * * * * * //

dimensions      [0 2 -1 0 0 0 0];

internalField   nonuniform List<scalar> 
106891
(
7.4882438403154472892e-06
7.4814043143294765885e-06
7.4734990639350271649e-06
7.4667814272756930156e-06
7.4589996160779841578e-06
7.4523393631270968228e-06
7.4446182466358923674e-06
7.4380647944103560898e-06
7.430480962573170702e-06
7.4240815029866737596e-06
7.4160456656201583176e-06
9.8901901553113648135e-06
9.9217921272231139314e-06
9.947990628455754308e-06
9.9662631366137175977e-06
9.9758092785325781516e-06
9.9777475132861311952e-06
9.9752806330670862453e-06
9.9722608766417512996e-06
9.9730101020764790992e-06
9.9814238133588511598e-06
9.9992896917632454048e-06
1.002609279568940164e-05
1.0059641435959634819e-05
1.0096505387605904665e-05
1.0133111725594712513e-05
1.0166148981284315578e-05
1.019365574509932075e-05
1.0214977627158505145e-05
1.0230191047823044268e-05
1.0240600869075646313e-05
1.0247814340268576662e-05
1.0254097791717463095e-05
1.0260469794956033138e-05
1.0268906083100021244e-05
1.028000602875172151e-05
1.0294264446436145571e-05
1.0310868475106565984e-05
1.0328908524894854219e-05
1.0346825563037412028e-05
1.0362840043345841653e-05
1.0376467647323170751e-05
1.0387182223064105827e-05
1.0395377050131254532e-05
1.0401649908741844857e-05
1.0407316570584728912e-05
1.04131098421112707e-05
1.042048872607274275e-05
1.0429963663861158165e-05
7.950374702103690455e-06
7.9413672744108664372e-06
7.933687021080941819e-06
7.9248431116632980792e-06
7.9172402859158125542e-06
7.908374165395196505e-06
7.9008326173882238583e-06
7.8920638493159609139e-06
7.8846636919812535546e-06
7.8760496383416214348e-06
7.8688133281463427412e-06
7.8602437317011570006e-06
7.8530374479524936562e-06
7.8445198582601024931e-06
7.8373199423568821239e-06
7.8287815003428091922e-06
7.8216336897020000699e-06
7.8131864969958838868e-06
7.8062063145659236113e-06
7.79718006071147692e-06
1.0448633949434868849e-05
1.0478064135947262061e-05
1.0499115592015509816e-05
1.0511203983912568725e-05
1.0515115891165874109e-05
1.0512987596093309442e-05
1.0507929659040798957e-05
1.0502643793329194245e-05
1.0499684145227712113e-05
1.0502857998739942736e-05
1.0523737793912290816e-05
1.0567853319695913626e-05
1.0616157046275059056e-05
1.066376324780376614e-05
1.0706137297632834364e-05
1.0740023957170307048e-05
1.0764012177420385208e-05
1.0778391984631396721e-05
1.0784915415382267218e-05
1.07867889402893489e-05
1.0786876809306481989e-05
1.0788415767586421274e-05
1.0792955396530737531e-05
1.0802551603135740853e-05
1.0816853170724236775e-05
1.0834786240400798272e-05
1.0855171331119715543e-05
1.0875622433510279816e-05
1.0894679546659463622e-05
1.0910928810351969414e-05
1.0924347763566713638e-05
1.0934631721473430079e-05
1.0943092185994776052e-05
1.0950306635434385214e-05
1.0957988960379260406e-05
1.0966998355691426486e-05
8.3635418648645824959e-06
8.3538182045037541376e-06
8.3456747780829907801e-06
8.3361294669969557243e-06
8.3280528270969827537e-06
8.318498408830068787e-06
8.3105103353080601641e-06
8.3010440969317003407e-06
8.2932292585922925558e-06
8.2839355950987429228e-06
8.276277320979241831e-06
8.2670268454090920071e-06
8.2593551231763031451e-06
8.2500854817339694662e-06
8.2423262187484695209e-06
8.2329371868758443345e-06
8.2251836057651995772e-06
8.2158161177180951448e-06
8.2082202990628190097e-06
8.1981439801257922206e-06
1.0982401609549922899e-05
1.1008242628374347014e-05
1.1029164076390197505e-05
1.1045716829180027461e-05
1.1059473155046190273e-05
1.1072803681040996614e-05
1.1088417864033369716e-05
1.1107496373564781485e-05
1.1131050163545040912e-05
1.1158255857910440802e-05
1.1187292775653347182e-05
1.1216165955224569325e-05
1.1242899449494790461e-05
1.1266411684556433586e-05
1.1285856790551714038e-05
1.1301569304405095163e-05
1.131345952167263923e-05
1.1322781780394680732e-05
1.1330154711090265862e-05
1.1338166154354205429e-05
1.1347972696505675787e-05
1.1361819979593744634e-05
1.1380009665196661681e-05
1.14024698219400433e-05
1.142758510384956254e-05
1.1453421585257942024e-05
1.1478288502300119735e-05
1.1500065501818694104e-05
1.1517739973152754679e-05
1.1530638491585521851e-05
1.1539720405648342771e-05
1.1545464755817595149e-05
1.1549543080629248617e-05
1.1552978114121998353e-05
1.1557441407201967854e-05
1.156394471974520482e-05
8.787829549946556243e-06
8.7791416959075675236e-06
8.7687876877518735865e-06
8.7601835733658022106e-06
8.7498852086972660772e-06
8.7414113342087848302e-06
8.7311955244054092459e-06
8.7229177309254170557e-06
8.7129031794811729846e-06
8.7048036830657356722e-06
8.6948322934230102627e-06
8.6866899322444931917e-06
8.676654456249249014e-06
8.6683733680976246159e-06
8.6581084383996958576e-06
8.6497377712815057515e-06
8.6394128463628545568e-06
8.6311754110453580877e-06
8.619999349114691354e-06
1.1565685280435155594e-05
1.1614073678318787545e-05
1.1652333250401840405e-05
1.1679647734017516316e-05
1.1697438276988824941e-05
1.1709735722177517432e-05
1.1720537664261350421e-05
1.1733354889641395706e-05
1.1749698987548438752e-05
1.1769808060223231687e-05
1.1792033540296957087e-05
1.1814434202214831374e-05
1.1835074555056304514e-05
1.1853116176765712155e-05
1.1868287034965312331e-05
1.1881942734186032911e-05
1.1895208356856945222e-05
1.1910407451564354714e-05
1.1928256382590467685e-05
1.1950262469264009028e-05
1.1975797685074264184e-05
1.200404022794698632e-05
1.2034100847422581253e-05
1.2064060547114680179e-05
1.2092604512329646076e-05
1.2117331585577037514e-05
1.2137997211731699061e-05
1.2152940141520873554e-05
1.2162592419644466661e-05
1.2167095527466269953e-05
1.2167722756901828727e-05
1.2165741859553937267e-05
1.2163339245298128525e-05
1.2162303665724718489e-05
9.2557382245871241879e-06
9.2443463173350353437e-06
9.2350569983328966215e-06
9.2238439555912704897e-06
9.2146479308271368362e-06
9.2035070841332788612e-06
9.194498710265540167e-06
9.1834791251193196432e-06
9.1747130667057226277e-06
9.1639109009904718247e-06
9.1553148529772197079e-06
9.1445709484130960007e-06
9.1359226148443996654e-06
9.1250643121617123777e-06
9.116235320131648687e-06
9.1050400285133866742e-06
9.096060960827088583e-06
9.0847771742055836091e-06
9.0758881952785885606e-06
9.0635836085447706885e-06
1.2194188868327467096e-05
1.2222840749271178027e-05
1.2245005436381570021e-05
1.2261085945284290897e-05
1.2273762209328147065e-05
1.2285860920593902321e-05
1.2300979624883204045e-05
1.2321789801279501474e-05
1.2349244451838569243e-05
1.2382093607299992597e-05
1.2417921387335882353e-05
1.2452992260323034134e-05
1.2484446580751681861e-05
1.2509217645378172229e-05
1.2526640515634170349e-05
1.2536354521807755642e-05
1.2540813438747887e-05
1.2542391678918156676e-05
1.2544664629543255438e-05
1.255067195160682072e-05
1.2562398836837291015e-05
1.2581085323505895442e-05
1.2605754647273484059e-05
1.2635136013601860568e-05
1.2666539665418603656e-05
1.2698080182480312494e-05
1.272676201808896549e-05
1.2751172109264493167e-05
1.2770219996641820842e-05
1.2783577310293890735e-05
1.2791645485626268412e-05
1.2795696689605579751e-05
1.2797814443835118243e-05
9.7245300090735967201e-06
9.7145518136315627255e-06
9.7023681563976164888e-06
9.6925378394055209329e-06
9.6805058285929894164e-06
9.6709305041997478702e-06
9.6590345019835220143e-06
9.6496847147675663759e-06
9.6380480728167097862e-06
9.6288613462612076063e-06
9.6172759373192904202e-06
9.608033245303643902e-06
9.5962640661678605582e-06
9.5868145920386092931e-06
9.5746719548491409019e-06
9.5650620472972172793e-06
9.5528237113483833553e-06
9.543277317723814591e-06
9.5298354667612906793e-06
1.2832625886404193803e-05
1.2862303242198493892e-05
1.2888659862287921143e-05
1.2912290942932605709e-05
1.2934524922140692153e-05
1.2956832348282543304e-05
1.2980776410972043216e-05
1.3007000248226673842e-05
1.303489913673899703e-05
1.3063516241246955307e-05
1.3090527736614531818e-05
1.3114517752683361182e-05
1.3133134308064720126e-05
1.3146732902167971693e-05
1.3154784768832101919e-05
1.3159874335608254953e-05
1.3164315701841120229e-05
1.3171494639696789363e-05
1.3183843692910611641e-05
1.3202398928560851361e-05
1.3227684206930875752e-05
1.3257992945420300375e-05
1.3291760368353680902e-05
1.3326055917223922744e-05
1.3359388001896256083e-05
1.3389214718010210861e-05
1.3414397578184908299e-05
1.3433882387549737924e-05
1.3447908745782554562e-05
1.3456843152643182927e-05
1.3462007899498523771e-05
1.3465448734706752257e-05
1.0229692093262382518e-05
1.0219016848149953668e-05
1.0205872607326849932e-05
1.019534755427435477e-05
1.0182348517995985841e-05
1.017212763212838717e-05
1.0159313834970742398e-05
1.0149330742198972582e-05
1.0136798552907355159e-05
1.0126925540013959398e-05
1.0114404893700114187e-05
1.0104435352427065223e-05
1.0091667289001075424e-05
1.0081529833981527449e-05
1.0068426781074897702e-05
1.0058160852650976561e-05
1.004497607378197943e-05
1.0034783199386352671e-05
1.0020230831326367655e-05
1.3521136946280832926e-05
1.3559799382636031798e-05
1.3597310380883314957e-05
1.363297397391478382e-05
1.366614450556475698e-05
1.3696805398487394808e-05
1.3724489223999660693e-05
1.3749611026758000901e-05
1.3771144218984328786e-05
1.3789637174269795699e-05
1.3804166129343915879e-05
1.3815139111266874013e-05
1.3822638943531964574e-05
1.3828110350736710573e-05
1.3833549633542578531e-05
1.3841297046719700623e-05
1.3854099505442700344e-05
1.387356774677634056e-05
1.3900159074072498296e-05
1.3932197977268174824e-05
1.3968709453144668216e-05
1.4006653007509181549e-05
1.4043664791908182557e-05
1.4077599793277649034e-05
1.4107217957882110308e-05
1.4131482675408865425e-05
1.414986996394635712e-05
1.416263909034050456e-05
1.4170918094070780529e-05
1.4176242123332370986e-05
1.0750800119159641734e-05
1.0736755355223178991e-05
1.0725548820156888833e-05
1.0711649551630772657e-05
1.070073210536378179e-05
1.0687044514406889882e-05
1.0676401535900160682e-05
1.0662969401196084403e-05
1.0652358793268381317e-05
1.0638834977209565093e-05
1.0628085325175580574e-05
1.0614298886589462664e-05
1.0603416116023906237e-05
1.0589411602283341991e-05
1.0578554662485054156e-05
1.0564485929952079771e-05
1.0553705618262450733e-05
1.0538271374060346962e-05
1.428539670648703311e-05
1.4324397688271269606e-05
1.435674342860897656e-05
1.4383862216475731599e-05
1.4406387942986490492e-05
1.4427181532233683729e-05
1.4446506795045425386e-05
1.4465472632484938716e-05
1.4482961328030512224e-05
1.4498745154435599281e-05
1.451209111696644416e-05
1.4523338185634095067e-05
1.4534454401134949716e-05
1.4547104023000079521e-05
1.4563372350387213539e-05
1.4584035978121199725e-05
1.4609807976249147539e-05
1.4639325379816846826e-05
1.4671493589703710298e-05
1.4705299036207451863e-05
1.4739866866884095703e-05
1.4773874288671919923e-05
1.4806059432532100816e-05
1.4835664445261006201e-05
1.486120266652548764e-05
1.4881769285129535732e-05
1.4896744412094343999e-05
1.4907002330465113777e-05
1.1324867869541062625e-05
1.1310537963308626752e-05
1.1298852662815771455e-05
1.1284654875394534002e-05
1.1273228593164329238e-05
1.1259225312820245576e-05
1.1248075372420076627e-05
1.1234162275984516135e-05
1.122292404160986797e-05
1.1208855259314050136e-05
1.11974264030887952e-05
1.1183082595497389808e-05
1.117166216860614281e-05
1.1157189190518135611e-05
1.1145940650875301139e-05
1.1131384203825262752e-05
1.1120194343388018358e-05
1.1104983494512454117e-05
1.5032497114527161095e-05
1.5061897531229193766e-05
1.5088832040549985725e-05
1.5113396397809659695e-05
1.513780518269728143e-05
1.5161732657632160401e-05
1.5186165073424413703e-05
1.5210350866096524012e-05
1.5234403300178817864e-05
1.525734306968473283e-05
1.5278743981644840377e-05
1.5298590021558600079e-05
1.5316947713173075527e-05
1.5334748518899243142e-05
1.5352850837459133641e-05
1.5372994406788193232e-05
1.539518713318443742e-05
1.5420419884630060707e-05
1.5448189040052192277e-05
1.5478003160099985784e-05
1.5508609459736643119e-05
1.5538693995629483874e-05
1.5567672320622970294e-05
1.5594412117602285265e-05
1.5618407434827699323e-05
1.5638968670677810759e-05
1.5656385914537380652e-05
1.1855253707336398835e-05
1.1838334805448435079e-05
1.1823990419588541228e-05
1.1807050836426570832e-05
1.1792657936357093488e-05
1.1776010041874021846e-05
1.1761566163618729979e-05
1.1744782800566688812e-05
1.1730327371466272606e-05
1.1713114026130545971e-05
1.1698753431204165292e-05
1.1681489329097953037e-05
1.1667150946338390944e-05
1.1650277978372102023e-05
1.1635742296501861459e-05
1.1618911524682219529e-05
1.1604364974505041293e-05
1.5629544550891133779e-05
1.5631132215498054326e-05
1.5637672591114076283e-05
1.5654173241453930675e-05
1.568444477739222478e-05
1.5727304280610446936e-05
1.5780522712635133419e-05
1.5837820021389646062e-05
1.5893198422576050306e-05
1.5941262776201181145e-05
1.5978823350564923977e-05
1.6004820332080884146e-05
1.6019895541725103774e-05
1.6026434348739164221e-05
1.6027596456378642714e-05
1.6027643132652528611e-05
1.603019582402227141e-05
1.6039130005937313731e-05
1.6056806952521981475e-05
1.608352390279424324e-05
1.6117779705764923736e-05
1.6156246299132906165e-05
1.6195439115070954777e-05
1.6231446870208362604e-05
1.6262576009311077566e-05
1.6286843178495187529e-05
1.6304545808579317664e-05
1.2149436281221012802e-05
1.2133669832579658756e-05
1.2111055546606021017e-05
1.2095279569174170251e-05
1.2072528305426641714e-05
1.2056632702419201839e-05
1.2033690665338549747e-05
1.2017734811061238267e-05
1.1994424867879841483e-05
1.1978467031682078477e-05
1.1955180735356088845e-05
1.193934460941709312e-05
1.1916116838517853521e-05
1.190037838543939354e-05
1.187321558118149859e-05
1.1866430685111012812e-05
1.2200166236993029679e-05
1.2193025393461887998e-05
1.2184834902835041054e-05
1.2176861473980896068e-05
1.2169842078596602043e-05
1.2166014241356453018e-05
1.2173261069961983051e-05
1.2216283382971158321e-05
1.2301173543401189867e-05
1.2380843149707516286e-05
1.2449532741656884274e-05
1.2503601612536596583e-05
1.2541076282688206882e-05
1.2562179848682198999e-05
1.2569331804909651389e-05
1.2566848537962053983e-05
1.2559728299711154099e-05
1.2550909656097189259e-05
1.2541401180305497198e-05
1.2532929725391661301e-05
1.2526409942102443448e-05
1.2528396032010263695e-05
1.2559350079782767126e-05
1.2621762616213312466e-05
1.2675247912514184942e-05
1.2717444335142063505e-05
1.2747070044767048121e-05
1.276559543150248817e-05
9.430370429762831671e-06
9.4131648128455216057e-06
9.4008246321589849565e-06
9.3835302701397823899e-06
9.3711029817778537131e-06
9.3537183432093230778e-06
9.3413611826638799098e-06
9.3238834625341797803e-06
9.3117755422144390378e-06
9.2944866884663268999e-06
9.282597541331089237e-06
9.2654652817439196082e-06
9.2537303968749746118e-06
9.2338748556927329402e-06
9.2312251718936957364e-06
1.1637931628264207314e-05
1.1639338784242663684e-05
1.1635905628918295876e-05
1.1631510888049536226e-05
1.1629382088176034858e-05
1.1634271242476281768e-05
1.1660304776978281069e-05
1.1709284590573418503e-05
1.1760764498424625962e-05
1.1808078601738029395e-05
1.1846497640564737099e-05
1.1873273784033135165e-05
1.188834031948097368e-05
1.1894362701162428843e-05
1.1894726781043586059e-05
1.1894135147548454563e-05
1.189647950357681781e-05
1.1905192085019707855e-05
1.1921391032078910844e-05
1.1945003590684149871e-05
1.1974352785103458519e-05
1.200677313910996525e-05
1.2039175982085293022e-05
1.2068129478168052303e-05
1.2091721359337265514e-05
1.2107951045283170025e-05
1.2117239361486414342e-05
8.9817484950496684918e-06
8.9707006413944713247e-06
8.9555848860744024034e-06
8.9445228281074282226e-06
8.9294054517727455969e-06
8.9184660193205519014e-06
8.9032946472280921174e-06
8.8925839189530887742e-06
8.8775165459345114474e-06
8.866896440403985137e-06
8.8518471733072802784e-06
8.8412802959085204916e-06
8.8246086826357991452e-06
8.8171662080235528846e-06
1.1189404858682419308e-05
1.1191103866259541626e-05
1.1196147912412812936e-05
1.1207629325812126328e-05
1.1226281072656198477e-05
1.1251584271023523157e-05
1.1280704746489515913e-05
1.1311436113181291152e-05
1.1340595166170770245e-05
1.1366596486342819543e-05
1.1388485001978909634e-05
1.1406347519186000455e-05
1.1421131898451055309e-05
1.1433632262685944675e-05
1.1445546127573673472e-05
1.1457778989442106866e-05
1.1472300625635568932e-05
1.1489660297948994276e-05
1.1510418619818231113e-05
1.1533764140294347706e-05
1.155843969476475084e-05
1.1582551527817092765e-05
1.1604099130684288711e-05
1.162206494063445177e-05
1.1634937711718057232e-05
1.1643309498594003366e-05
8.6416409654422950175e-06
8.6272629885321429051e-06
8.6167251004847976258e-06
8.6024194279929998703e-06
8.5920756555251542484e-06
8.5777769253801038123e-06
8.5676219131173412836e-06
8.5533948853608429192e-06
8.5433030282230123224e-06
8.5290262546257546346e-06
8.518921683620008493e-06
8.5032943076225397461e-06
8.4956468645931223105e-06
1.0766098217717499507e-05
1.0772095982216865626e-05
1.0784811414374923639e-05
1.0804599292298559885e-05
1.0830581467794637093e-05
1.0860107924484808573e-05
1.0891087458990851341e-05
1.092024957901415861e-05
1.0945852371127833165e-05
1.0967027925434651316e-05
1.0983750699239580486e-05
1.0997026890556768991e-05
1.1007976536448094731e-05
1.1018475132248115901e-05
1.1029528912687665263e-05
1.1042703785774404772e-05
1.1058065058332026051e-05
1.1075791584390200841e-05
1.1095011677904009865e-05
1.111488160435265524e-05
1.1134092725326191986e-05
1.1151335935298691644e-05
1.1166139362230873201e-05
1.1177285742969396027e-05
1.1185253211276936655e-05
8.2993331439093109874e-06
8.2892171977987984412e-06
8.2754918504411903289e-06
8.265653049393792133e-06
8.2519923082825773761e-06
8.2422847675165166273e-06
8.2286373547914837392e-06
8.2189254809744270063e-06
8.2051625850898142196e-06
8.1953974667759603624e-06
8.1802624109670685968e-06
8.1728952039838268537e-06
1.0402726334962127328e-05
1.0397680330535172358e-05
1.0394580174036370586e-05
1.0397306898052741139e-05
1.0417987983450919008e-05
1.0455528571479590563e-05
1.0492887937580093604e-05
1.0527434119527146709e-05
1.0556935963596962352e-05
1.0580549871608382182e-05
1.0599000303134949728e-05
1.0613233880270627407e-05
1.06257561525521064e-05
1.0638010224066446634e-05
1.0651954602543639404e-05
1.0667550252358559744e-05
1.068502167993110494e-05
1.0703473395088441506e-05
1.0721977245341633315e-05
1.0739493435481769739e-05
1.0754866383929121307e-05
1.0767646134945823986e-05
1.0777156388058192543e-05
1.0783899267235947999e-05
1.0004736601233307818e-05
1.000286594785583596e-05
1.0009522583110896007e-05
1.0038492298263728279e-05
1.0077213805996392646e-05
1.011386644930596906e-05
1.0146583738119699795e-05
1.017382454580378376e-05
1.0195330850975066556e-05
1.0212153255495272635e-05
1.022564941245864978e-05
1.0237801322704306176e-05
1.0249871178906728609e-05
1.0263204761923982566e-05
1.027789282459892398e-05
1.0293789911067109525e-05
1.0310221614973625234e-05
1.0326589597689065332e-05
1.0341812886256594416e-05
1.0355096737628783569e-05
1.0366099804050026061e-05
1.0374013961874287336e-05
1.0379588876083339991e-05
9.6864090130639693042e-06
9.7031384281106491447e-06
9.7193078867716532331e-06
9.7341035745990557403e-06
9.7474732591543911722e-06
9.7601824218581822621e-06
9.7731153794625956748e-06
9.7876702362055752508e-06
9.8048360609179351804e-06
9.8254903561932992179e-06
9.849416953218918279e-06
9.876358800893520284e-06
9.9049512939505465758e-06
9.9338184525739428474e-06
9.9609883316405264486e-06
9.9850098566968102518e-06
1.000471733018420434e-05
1.0019259918740408883e-05
1.0029155838260095593e-05
1.0034497572920187268e-05
1.0036683703317800665e-05
9.3805891690948452584e-06
9.3963884067198314906e-06
9.4127816190479872031e-06
9.4302096289921310965e-06
9.4482979512945232083e-06
9.4672594365384984418e-06
9.4872306026744908857e-06
9.5083293053639319239e-06
9.5308350330369422885e-06
9.5551840451350408194e-06
9.5808477260404283955e-06
9.606256622289029051e-06
9.6294614793417485793e-06
9.6483579959564399705e-06
9.6617868657546077544e-06
9.6688341167677584512e-06
9.6706439066623247334e-06
9.1216911865903568216e-06
9.1327853201528506357e-06
9.1471991460627121324e-06
9.1648922869594184301e-06
9.1854207833871286527e-06
9.2084565177414991367e-06
9.2333150075358348262e-06
9.2584471371829061192e-06
9.2817990084442277129e-06
9.3012049372525128059e-06
9.3153432372845349066e-06
9.3230659464026782669e-06
9.3254763476469618329e-06
8.7841904233424225888e-06
8.7821926411967821103e-06
8.7855171041439771723e-06
8.7984688462520181169e-06
8.818517271410960913e-06
8.8433654375856756249e-06
8.8702561679938198789e-06
8.8960075387426887177e-06
8.9175763483964911834e-06
8.9339390342970850095e-06
8.944086369732561154e-06
8.9488792286803957565e-06
5.3097279080799702616e-06
5.424769976102683755e-06
5.4637520466888724169e-06
5.4645228136218928656e-06
5.4500117463008859655e-06
5.3877895702479963917e-06
5.1969426088200919376e-06
4.9849020563522718536e-06
4.8251848333476099546e-06
4.7170890827643829733e-06
4.6540916566260313099e-06
4.6252421837395635388e-06
4.6161408036918883172e-06
4.6143358734240382687e-06
4.6232080648074549913e-06
4.6687961830461517632e-06
4.8335856576802713652e-06
5.1161558722250611496e-06
5.3302090646923978398e-06
5.4615240590334860298e-06
7.269275343391185261e-06
7.487011050511671973e-06
7.5908060614349820046e-06
7.618934349117327614e-06
7.6144610340628375667e-06
7.5937964294871088494e-06
7.5171539309223817804e-06
7.2796249391064742472e-06
6.9707752935187063337e-06
6.7106579678306357286e-06
6.5102776443333573971e-06
6.3733117285631682916e-06
6.2939241435338764107e-06
6.2608783090712283149e-06
6.2513515804428094403e-06
6.2511045376129181281e-06
6.2727798733226836008e-06
6.3672349012244688898e-06
6.6473963866935415769e-06
6.9434697550938505838e-06
7.1436742254345023749e-06
7.2516811087214323983e-06
1.1769722584432671121e-05
1.2063831550600234553e-05
1.222971342058968143e-05
1.2286157412861954582e-05
1.2284347623209990394e-05
1.2265084512304708493e-05
1.2213726567315546847e-05
1.2071414598745026429e-05
1.1770435448241533819e-05
1.146727724915945082e-05
1.1209460201534895315e-05
1.1020117309901289386e-05
1.091023732298952488e-05
1.0867601583502720257e-05
1.0857658488759992275e-05
1.0861270288014670073e-05
1.0900027799381151671e-05
1.1045210703795936644e-05
1.1314512759708345764e-05
1.1527656097075231835e-05
1.1658379822389480061e-05
1.1714119749312377876e-05
1.1724884431228972621e-05
1.1715863740009442828e-05
1.1687863820040300119e-05
1.159631797089513511e-05
2.6828378204759585049e-05
2.6977190930190023111e-05
2.7014122312472208892e-05
2.6996023386062570625e-05
2.6941061583107711618e-05
2.6782700192619358204e-05
2.6436305970868974384e-05
2.6101323084043012083e-05
2.5832926569999914516e-05
2.5637065786927831334e-05
2.5520350707529667147e-05
2.5465450170155561668e-05
2.5443731341084399307e-05
2.5439526153341244607e-05
2.548203413880630516e-05
2.5651003045383063511e-05
2.5982720601709172344e-05
2.6306136011960109183e-05
2.6566715790931981879e-05
2.6728905729141391756e-05
2.6793969630719082457e-05
2.6799067135864767798e-05
2.6776676274611230742e-05
2.6723826678783687004e-05
2.6556688360333985421e-05
2.6197315853960004804e-05
2.5873835176625050228e-05
2.5652855369662074675e-05
5.8214209350496535112e-05
5.8219487375700154197e-05
5.8179959313321224113e-05
5.8092449082424729039e-05
5.7855424803018744349e-05
5.750676498539890769e-05
5.7198095843194285512e-05
5.6942078830380196165e-05
5.6745622170164298841e-05
5.6618645395723117032e-05
5.6545732291782613613e-05
5.6505351839942429785e-05
5.6487889705276265995e-05
5.6544045172101484891e-05
5.671163650857090696e-05
5.6874417213788404e-05
5.7000040774295787779e-05
5.7065330940149731496e-05
5.7073099681644985052e-05
5.7036477832565962221e-05
5.6978305906309502089e-05
5.6865245425023001739e-05
5.6611624289050194029e-05
5.6299920664371899009e-05
5.6025879175674935754e-05
5.5794146265439770616e-05
5.5626542226395476055e-05
5.553057236087183111e-05
5.5489996479973694289e-05
5.547158435355848652e-05
8.9227715115719073626e-05
8.8967227140378897163e-05
8.8689247073985068314e-05
8.8405106020546269556e-05
8.812730098057087525e-05
8.7867001722955929304e-05
8.7632710229185241152e-05
8.7427965621243909243e-05
8.7251815340762579215e-05
8.7100771754151758088e-05
8.6969980026168386042e-05
8.6855255383573861066e-05
8.6752294780592621119e-05
8.6654124019703145055e-05
8.6550007755536477656e-05
8.6427387791106265072e-05
8.627508400824424582e-05
8.6086984458726427578e-05
8.5863017291039098557e-05
8.5609844823539982131e-05
8.5338986993703402797e-05
8.506558025416486625e-05
8.4806242475510116739e-05
8.4576004036045719777e-05
8.4384885400425323513e-05
8.4234815540656159485e-05
8.4119362852642584616e-05
8.4027897057122296742e-05
8.3946753201950813751e-05
8.3862767658388182143e-05
8.3761593586338949254e-05
8.3634994708436420576e-05
0.00010724598619483595289
0.00010698954181943785553
0.00010673580508688638579
0.00010648445414899149035
0.00010623609614466085385
0.00010599213845226885297
0.00010575381499642728088
0.00010552133229221400323
0.00010529331998574828955
0.00010506814162425152871
0.00010484568583800756426
0.00010462773184227052749
0.00010441616074802927876
0.00010420970202132921615
0.00010400328825854461123
0.00010379157919544869197
0.00010357264045200873187
0.00010334987474733840958
0.0001031290732886777471
0.00010291523360414506086
0.00010271095538633318066
0.00010251660324852940938
0.00010233108298260075095
0.00010215305920139611414
0.00010198004363245501266
0.00010180890224177677184
0.00010163673119493878518
0.00010146262792967864353
0.00010128620941883433027
0.00010110822712254202769
0.00010092873429765133618
0.00010074864668814352423
0.00010056751868813427401
0.00014141285871687312901
0.00014061802074225899931
0.0001398408960171050651
0.00013908709092830105368
0.0001383600490335086411
0.00013765209440729848272
0.00011717844278987362338
0.0001169589713781540478
0.00011673921902556837454
0.00011651790562786190999
0.00011629573802352163316
0.00011607477398543753606
0.00011585678862701148282
0.00011564159037072352582
0.00011542729828553561263
0.00011521269271399770223
0.00011500011831405181008
0.00011479470500216377028
0.00011460078372766374741
0.00011441732666812665716
0.00011423759175635208761
0.00011405429551858809161
0.00011386510155067831591
0.00011367340059457764533
0.00011348465542618684811
0.00011330199984436801661
0.00011312494508318184886
0.00011295109645440022238
0.00011277831179975591927
0.00011260560777197266584
0.00011243230367408866622
0.00011225793359952421951
0.00011208265947595599668
0.00011190730087302798695
0.00011173276096699371652
0.00011155912260582445303
0.0001113860092281368844
0.00011121266122031970018
0.00011103962928294236988
0.00011086724579138726454
0.00013643635308823728403
0.00013563681159078821363
0.00013488022105174847574
0.00013417333906022021225
0.00013350872812259949578
0.00013285907753859922198
0.00013219350899314828815
0.00011607174681516497367
0.00011591315238175208652
0.00011573870095649347375
0.00011555515053212691179
0.00011537185612036880147
0.00011519745048372389336
0.00011503731168966228329
0.00011489365757106861335
0.00011476831860783107283
0.0001146648664134445548
0.00011458679837061430575
0.00011453188237708985685
0.00011448676633018851662
0.00011443173380905136756
0.0001143500540548773967
0.00011423851061516520776
0.0001141091033661399218
0.00011397778439618497812
0.00011385307138517431088
0.00011373263112007113592
0.00011360914069630805468
0.00011347642208811680039
0.00011333245317843533486
0.00011317825593231561638
0.00011301641850044908831
0.00011285015499746578178
0.00011268264441938223921
0.00011251606789434661672
0.00011235076346516156734
0.00011218579793573754189
0.00011202034806161403728
0.00011185506145328189486
0.00011169227570283222822
0.00011153392313765268199
0.00011138072819598833897
7.2426002776269283803e-08
7.2527031209894676477e-08
7.2624526044527639867e-08
7.283938204875254693e-08
7.2982190247834202836e-08
7.3211218655193910702e-08
7.3571184618019084193e-08
7.3751081412076670767e-08
7.4062935223480334361e-08
7.440137914969212659e-08
7.4497813725156493024e-08
5.8720214067877027357e-07
5.8703705503035904252e-07
5.8679495520569184317e-07
5.8650693544111991069e-07
5.8628313707963944421e-07
5.863366264399882845e-07
5.8730740009241756907e-07
5.9080963232749461799e-07
5.9528931340315086495e-07
5.9893503384050086406e-07
6.0139446487343761858e-07
6.0262925533757851038e-07
6.0282685825529995536e-07
6.024389237469519786e-07
6.0188570970640594034e-07
6.010371166158160421e-07
5.9936553953777758227e-07
5.9648536766867776421e-07
5.9391471667899670843e-07
5.9187456190283510066e-07
5.9037996261140907176e-07
5.8939183045620689624e-07
5.8876140713058882419e-07
5.8826846410570759379e-07
5.8773611200413312253e-07
5.8709531470626560524e-07
5.8639285846249697257e-07
5.857338028635847839e-07
5.851697149779293555e-07
5.8471251073620329064e-07
5.8430724746314426321e-07
5.8393714514759495462e-07
5.8359520353042788781e-07
5.832120657488042493e-07
5.8277685409176877141e-07
5.8216688446572471148e-07
7.5974384310028649386e-08
7.5975986466311867346e-08
7.6049422517216413426e-08
7.6066001123415629943e-08
7.6135447217458709028e-08
7.6185912986119836669e-08
7.6262106947970050878e-08
7.6324472450156090585e-08
7.6433092112595715581e-08
7.6477369025820613888e-08
7.6609923725440290068e-08
7.6684259948289409968e-08
7.6767641377713072018e-08
7.6961158727269119998e-08
7.7053937821005589582e-08
7.7261164929218772821e-08
7.7560101981019024402e-08
7.7713496733313190691e-08
7.8018058292816870693e-08
7.8341025310646049051e-08
7.8408373176475621541e-08
6.096636202700298919e-07
6.1249240788701475225e-07
6.1445092822754817935e-07