/*--------------------------------*- C++ -*----------------------------------*\
  =========                 |
  \\      /  F ield         | OpenFOAM: The Open Source CFD Toolbox
   \\    /   O peration     | Website:  https://openfoam.org
    \\  /    A nd           | Version:  12
     \\/     M anipulation  |
\*---------------------------------------------------------------------------*/
FoamFile
{
    format      ascii;
    class       volScalarField;
    location    "0.0066";
    object      p;
}
// * * * * * * * * * * * * * * * * * * * * * * * * * * * * * * * * * * * * * //

dimensions      [1 -1 -2 0 0 0 0];

internalField   nonuniform List<scalar> 
106891
(
99352.817958814281155
99350.727640716082533
99349.50267649894522
99349.07576439868717
99348.90136191539932
99348.029099100778694
99345.644809274410363
99341.311236602356075
99335.141524079139344
99327.612017482009833
99319.565318131746608
99172.292156432464253
99145.84430976578733
99136.103622232651105
99139.410392261299421
99146.171743966770009
99146.77893700133427
99137.831057204733952
99123.466569849755615
99113.134839537597145
99115.532385168640758
99133.252343920757994
99160.275297069209046
99184.382558036231785
99193.74118600662041
99183.137242407217855
99156.958873634794145
99126.807076037774095
99105.44341365560831
99099.80487728312437
99107.324878299114062
99118.348015989075066
99121.917531574261375
99112.40645652738749
99092.910601789044449
99072.723214793091756
99061.739061686574132
99064.964286617672769
99080.126386006144457
99099.908343794028042
99116.721143304122961
99126.933384958145325
99132.552086852083448
99139.220008049014723
99151.932807164877886
99171.605103904381394
99193.736095215863315
99211.109624490054557
99218.086360457949922
99331.415227260207757
99338.739081605657702
99346.421750279696425
99353.286063318912056
99358.428649876936106
99361.389001395000378
99362.30885243335797
99361.914653364292462
99361.161717541617691
99360.836389918797067
99361.294365460475092
99362.375645101841656
99363.560928078150027
99364.123947292508092
99363.164724234942696
99359.907110116779222
99354.065988180067507
99346.073198451718781
99336.749134377532755
99327.076449211846921
99168.49798122116772
99158.330873076891294
99154.498710305226268
99150.916072039326536
99142.676942998019513
99128.816120467308792
99113.598470243116026
99104.308009497559397
99107.078832535640686
99123.123270771713578
99147.37464869262476
99170.358906479217694
99181.936909094336443
99176.801324662563275
99156.93786190188257
99130.954651113512227
99109.24226598336827
99098.544824725860963
99099.36472701713501
99106.125973226589849
99110.814485260227229
99107.974176308358437
99097.439469541321159
99083.733824830982485
99073.093440065102186
99069.837655444542179
99074.607582271608408
99084.540967523280415
99095.383019520755624
99104.481156210240442
99112.443557647973648
99122.162105542767677
99136.688278980582254
99156.535972580924863
99178.913325458663167
99198.786603883709176
99332.629109772969969
99340.631253472718527
99348.513118139380822
99355.099465911625884
99359.755152165365871
99362.431132191326469
99363.638579287478933
99364.307959676181781
99365.481183380048606
99367.841931994567858
99371.387948578136275
99375.408046923184884
99378.768620518676471
99380.333357857001829
99379.218141439036117
99374.935035453774617
99367.538138169038575
99357.837059079844039
99347.089925574618974
99336.533356808489771
99198.731855066100252
99185.777109995062347
99173.082701299397741
99159.530298983052489
99144.931982343885466
99129.539001500103041
99116.092524335399503
99107.938923265959602
99108.047207367460942
99116.844925509343739
99132.038953745228355
99148.438903644520906
99159.775149383596727
99161.466648909641663
99152.619110033207107
99136.630526812979952
99119.257468388226698
99106.153015713251079
99100.27327447917196
99100.949671621303423
99105.124314847926144
99108.676592327450635
99107.777431253838586
99100.989835936168674
99089.768695409205975
99077.913596603597398
99069.858974186819978
99068.165767816914013
99072.86196779893362
99082.628103209877736
99095.826851597157656
99111.230895206419518
99128.391214146904531
99147.231562879300327
99167.316299942744081
99187.450689730612794
99346.84111853428476
99354.04229810074321
99359.377464481352945
99362.516063701958046
99363.950095680280356
99364.754019455373054
99366.182461891439743
99369.228576552515733
99374.296454287250526
99380.989591005665716
99388.083778930566041
99393.82542751346773
99396.552462677354924
99395.250162103053299
99389.778086436068406
99380.769561956491088
99369.541279972094344
99357.78545327980828
99347.027544480893994
99216.513496578190825
99195.912746363479528
99175.541163563364535
99158.667661668616347
99145.774894472400774
99135.261896064199391
99125.330185974875349
99117.60231432573346
99113.638496153507731
99114.593826570504461
99121.006765297584934
99131.382795550336596
99141.584088706367766
99147.623756235159817
99146.706939018113189
99138.343479492119513
99125.443471680846415
99112.970597605017247
99106.076370478142053
99107.250165536737768
99113.631123913903139
99118.615573917588335
99116.048665029375115
99103.743849248479819
99085.025709888519486
99066.649170475036954
99055.888360461540287
99057.220958123900346
99069.938528445301927
99089.3775111764553
99110.149044725127169
99128.795215625781566
99145.031564951772452
99161.157808090996696
99352.024853235110641
99358.202479437095462
99363.424313505311147
99366.548753576120362
99367.527889827339095
99367.296846672121319
99367.369894396950258
99369.325140450033359
99374.1744478676992
99381.917003057082184
99391.518409410040476
99401.195103862701217
99408.817679400075576
99412.455198984171147
99410.994352387322579
99404.521226053897408
99394.212871812909725
99381.939199980799458
99369.825966128744767
99359.618691888696048
99248.596365007324493
99223.161623164327466
99200.250915665674256
99184.402520079398528
99174.348252761061303
99164.749651015168638
99151.566341247220407
99133.31468638755905
99114.197641348277102
99100.962676010793075
99098.481981742967037
99108.381010321973008
99127.990293787283008
99149.822630443813978
99164.674581523097004
99166.246341663165367
99154.771609360846924
99136.963512080692453
99122.015129623308894
99116.23662684984447
99119.30481832769874
99124.623428197985049
99123.613656053435989
99111.537622706484399
99090.34740117873298
99068.400273076855228
99055.63161318017228
99057.660873541870387
99073.46105438239465
99096.592522390390513
99119.405328049848322
99137.064927542494843
99149.786097455682466
99376.078776353722787
99377.946674543709378
99378.15384697902482
99376.885896761261392
99375.27402503900521
99374.919940957930521
99377.302598642403609
99383.294138741955976
99392.72614516550675
99404.230871255596867
99415.583875141805038
99424.337725707882782
99428.481540149252396
99426.978727516616345
99420.075168760493398
99409.226898928929586
99396.648839222296374
99384.817905014788266
99375.667171031687758
99251.824566802795744
99228.964638527133502
99214.809196295595029
99206.254866066607065
99196.208975739951711
99179.186628015580936
99154.252701179255382
99126.564287127519492
99104.526588479580823
99096.703683945001103
99107.394569234355004
99133.392930931338924
99164.740958692782442
99189.152215575537411
99197.387563035968924
99187.292229515209328
99165.170382850221358
99142.099854026077082
99127.407084939419292
99123.644869381736498
99125.71755878062686
99125.109692415251629
99115.992850479000481
99099.664429037584341
99083.336791024979902
99075.046921933913836
99079.318256317332271
99095.18748481797229
99116.665427902014926
99136.579750121964025
99150.836144659027923
99160.576191747895791
99401.530380119525944
99399.656755925010657
99396.975343793354114
99394.001281813441892
99391.80880497142789
99391.754236904787831
99394.922719256719574
99401.694793116956134
99411.582596668187762
99423.186153387359809
99434.398729545049719
99442.916367519908817
99446.894104408303974
99445.498495199848549
99439.081489513686392
99429.090931518105208
99417.62836498991237
99407.101265375298681
99399.401764764697873
99254.965218682351406
99242.577136179766967
99235.133691405353602
99225.798739961232059
99209.38364012799866
99185.668118520450662
99159.20095966765075
99137.742310891015222
99129.082899250133778
99137.352256016165484
99160.468586094808416
99190.110620839550393
99213.887151997216279
99221.905756418971578
99211.71520162091474
99188.708746585951303
99162.854603874351596
99143.207730905342032
99133.721206083340803
99132.007339763091295
99132.065231492480962
99129.309812229519594
99123.07071936596185
99116.364612067904091
99113.689769695076393
99118.029633586396812
99128.956405255186837
99143.018329895858187
99156.383965312837972
99167.296512352229911
99427.396343532251194
99423.543889247055631
99420.605534291680669
99419.322025443863822
99420.453861867063097
99424.535770460555796
99431.544373013064614
99440.736169303359929
99450.768727149872575
99459.986232095063315
99466.747566595935496
99469.783026761448127
99468.559377282828791
99463.484096434680396
99455.86154846388672
99447.366877549196943
99439.838377827371005
99434.654989863600349
99266.225497985782567
99260.515908753790427
99254.6917624064954
99245.201026106311474
99231.132028512452962
99214.593413290160242
99199.611336963906069
99190.794741171426722
99191.642119049196481
99202.210440504641156
99217.552819005039055
99230.099769132619258
99233.560882387173478
99225.416334723864566
99208.191378811825416
99187.918491132208146
99170.873859619387076
99160.785968612224679
99157.838414541445673
99159.296833466651151
99161.617156820211676
99162.790412447822746
99162.707229492341867
99162.493490856591961
99163.453696264143218
99165.880687329903594
99170.359420357563067
99177.627159592229873
99459.036901417537592
99455.940843064629007
99454.841841890549404
99455.886564101427211
99459.010523565477342
99463.859722032968421
99469.895153589357506
99476.502677182244952
99482.981331316841533
99488.542015220184112
99492.441197657142766
99494.21679021633463
99493.795176036743214
99491.459338114233105
99487.94932301674271
99484.15530115753063
99481.095935995472246
99479.417133163617109
99285.229696102105663
99283.902903520021937
99284.312994737032568
99283.627095478528645
99279.853249164181761
99272.967938702728134
99264.263311985458131
99255.636793928191764
99248.475811289958074
99243.317280273753568
99240.456652477863827
99238.519005722278962
99235.525435833391384
99230.292712362919701
99223.156527104394627
99215.872670060445671
99210.461018026937381
99208.434642001622706
99209.774046876482316
99212.729729592552758
99214.956114255590364
99214.898747063445626
99212.027674097276758
99207.008248179394286
99202.35423303754942
99201.58152567371144
99207.496680918819038
99495.543732215694035
99496.727243212444591
99499.713610404302017
99503.748398564319359
99508.003423716698308
99511.775753214242286
99514.614170948931132
99516.375380374956876
99517.221506849018624
99517.527637527498882
99517.774700449881493
99518.386601471589529
99519.567551907210145
99521.391113242018037
99523.64286835337407
99526.084211010413128
99528.287971639801981
99316.072087132663
99311.770443121553399
99315.248404234473128
99324.602129600243643
99335.335422646283405
99342.672662810640759
99342.977612892485922
99334.113916005124338
99316.164841179124778
99292.5499770748429
99269.464389467990259
99252.893815912990249
99246.179864906400326
99248.952475152051193
99257.498742931362358
99266.926978179588332
99273.776433423670824
99277.324680467601866
99278.425587226622156
99278.05837927221728
99276.198837178133545
99272.325672712642699
99265.982726899033878
99257.4707512028981
99248.7480308831
99243.005555260955589
99243.181494657968869
99542.548612696526106
99545.682631879069959
99548.445793220191263
99550.052701734632137
99550.130336919115507
99548.755030844375142
99546.405525343521731
99543.903866153908893
99542.241265025790199
99542.286832217418123
99544.548878841465921
99548.988546785461949
99555.087697115261108
99561.786409035048564
99567.943985752994195
99572.439277583413059
99340.534177438617917
99338.030124972807243
99344.825480031082407
99358.545905753795523
99374.495977384547587
99386.882604939572047
99390.316480138106272
99381.091010087358882
99359.067994408862432
99328.694800417171791
99297.607394665712491
99273.782032773189712
99263.149850260888343
99267.162566708924714
99282.262916266423417
99302.186282353053684
99320.946962785412325
99334.651258315177984
99341.476197152835084
99341.14532631583279
99334.614559299501707
99323.350240292566014
99309.65357298226445
99296.928875160010648
99288.490718101049424
99286.146879151827306
99289.867625880302512
99298.137119916733354
99575.487693543429486
99574.956061967386631
99573.014598642432247
99569.890876202785876
99566.166752814999199
99562.674209383592824
99560.342376994653023
99559.987140507262666
99562.094346182057052
99566.693463149815216
99573.269368966313777
99580.927780759651796
99588.3917282497423
99594.458637585790711
99598.182953697789344
99362.262447048648028
99370.801874798358767
99385.56902204680955
99401.898548609548016
99414.283246823426452
99417.474653950586799
99408.181326570076635
99386.572654875883018
99356.633973297473858
99325.386856414435897
99300.639438554935623
99287.739383975771489
99289.335913580245688
99304.153051829242031
99327.29552383745613
99352.255115021267557
99372.782749585923739
99384.558587646868546
99385.926264152294607
99377.683798395577469
99362.71076211714535
99345.661666911910288
99331.902664653302054
99325.029240958625451
99325.484742489017663
99331.04823826313077
99338.190004584030248
99586.602379806150566
99581.389827230043011
99575.938598037770134
99571.23460964988044
99568.249466854162165
99567.72108091575501
99569.96412456863618
99574.812304449194926
99581.648184935140307
99589.481564536268706
99597.22092402895214
99603.703914817117038
99608.087226302988711
99609.962930009831325
99396.870443705076468
99409.491052608340397
99422.207673288212391
99430.66900443880877
99431.192721483850619
99422.179612576801446
99404.344711627127253
99380.624763407162391
99355.259741039728397
99333.464744201424764
99320.150255414831918
99318.023386537097394
99328.259765133057954
99348.897907042017323
99374.598441531401477
99398.154309192104847
99413.426073885595542
99417.295688287500525
99410.099104316017474
99395.583408202845021
99379.683004411170259
99367.983543961294345
99363.296560300674173
99364.940305894357152
99369.533419831597712
99372.946925883661606
99581.541637548463768
99574.278817564510973
99569.25513623477309
99567.493968102076906
99569.390986778351362
99574.621238686842844
99582.258825988741592
99591.015245447590132
99599.486296831164509
99606.507930380306789
99611.223256814861088
99613.361435223196167
99613.208592780400068
99428.748574815239408
99435.401746095652925
99438.20585574254801
99435.586070408884552
99427.509549814945785
99415.237365394481458
99400.405810082927928
99384.53337826654024
99368.787768045323901
99356.337193380764802
99350.499545440034126
99354.39915045053931
99368.756420695601264
99390.337553501187358
99412.712178071582457
99429.183063684686203
99435.539792298935936
99431.725915667804657
99421.520049072249094
99410.425319571600994
99402.853251125619863
99400.375140532079968
99401.451614272926236
99402.684815057407832
99401.292467624574783
99569.015180039772531
99564.036116948002018
99563.468367338704411
99567.384422033312148
99574.937944347431767
99584.598257449062658
99594.573045964949415
99603.172999451708165
99609.239762469092966
99612.277058041654527
99612.553904867017991
99610.91936353930214
99442.060717217216734
99440.602807518924237
99436.682695143812452
99431.024606742037577
99424.784011743991869
99418.571734753495548
99411.487771281623282
99402.523944615022629
99392.010214200345217
99383.161260253793444
99380.611294728223584
99387.317589780956041
99402.155847410482238
99420.192853911445127
99435.334763203005423
99443.422432454957743
99444.140534349207883
99440.348415257962188
99435.871138915361371
99433.182992297894089
99432.458006255183136
99431.891090606688522
99429.354187521661515
99424.166988984696218
99440.53272309586464
99438.842720660511986
99437.570695951435482
99437.191658480951446
99437.461138840895728
99436.741973118259921
99432.557788085876382
99423.524387058074353
99412.771631300463923
99404.934290406556102
99404.086860627925489
99411.067126469089999
99423.141513119611773
99435.690208941916353
99445.017358898883685
99450.371297095902264
99453.275002780239447
99455.409415685469867
99457.059051900796476
99457.245155771888676
99454.71021231157647
99449.193847317335894
99442.017035051860148
99448.911759139387868
99454.495052642843802
99459.104023203224642
99460.969556870055385
99457.672427784389583
99448.961769843066577
99436.851757716809516
99425.18175129123847
99418.141162938525667
99417.787913144609774
99423.566065807652194
99433.022961666050833
99443.467769582231995
99453.431126211711671
99462.556657093897229
99470.159594907876453
99474.74050652947335
99474.794856176275061
99470.101817154340097
99462.498298557693488
99454.910656798980199
99478.464789835750707
99468.471346113045001
99455.013559173516114
99440.824980961595429
99429.242199037151295
99422.989649458191707
99423.168264466890832
99429.468340125211398
99440.820922509694356
99455.21229013048287
99469.848683592092129
99481.511208694573725
99487.318710800856934
99485.944750286085764
99478.800744269785355
99469.661485938981059
99462.346175624799798
99438.137586818178534
99427.470323563262355
99423.204030693450477
99426.900626421891502
99438.824966600601329
99456.77098600527097
99475.803840767475776
99490.156354085265775
99495.758540439783246
99491.915138056341675
99481.896940563470707
99471.150726491105161
99464.099027235031826
99432.423031833677669
99424.966088007582584
99426.63799566803209
99438.690411560586654
99458.728691704032826
99480.34534963304759
99495.778232337746886
99499.992427888573729
99493.074965045219869
99479.994023073799326
99467.638290142262122
99460.742151631391607
99380.670400727147353
99337.947294553989195
99291.912308313956601
99253.876300372750848
99234.351306762866443
99239.121057081210893
99266.014758896591957
99304.827423583337804
99341.80641938347253
99367.115363423916278
99379.393867419013986
99383.891597809590166
99387.047058432697668
99392.191244063826161
99398.193230657998356
99403.606637780132587
99409.760775983173517
99419.206138304478372
99432.508015645522391
99447.101823372693616
99405.717055667279055
99379.153888394954265
99339.178337532895966
99294.957303819202934
99256.152398902864661
99233.39663006956107
99235.023344893619651
99261.564267569105141
99303.440439819343737
99344.601001256058225
99372.434896906270296
99384.500748391234083
99387.707108233516919
99390.870266699173953
99398.033302156400168
99407.889900609807228
99417.622471615526592
99426.750152630527737
99436.545031417932478
99447.519668141263537
99457.436963091400685
99463.171084609799436
99410.263744647032581
99413.662268783300533
99402.104129719547927
99377.052904152835254
99340.197561603301438
99297.91531390590535
99258.674899758392712
99232.803980849363143
99231.203874483995605
99257.176371971872868
99301.767440750118112
99346.925050551712047
99377.13808536225406
99388.945360649959184
99390.85366737091681
99393.735533696468337
99402.804754505050369
99416.738919514347799
99430.774814901058562
99442.614664270629873
99452.608341155588278
99461.123091027649934
99466.5019383780309
99466.972570081867161
99462.1016618404974
99453.294139619814814
99398.091601330321282
99411.701177683920832
99411.692364121292485
99398.605693350691581
99374.690315201165504
99341.140737636655103
99300.855982124980073
99261.141318513851729
99232.425413536155247
99227.578807551326463
99252.937489741336321
99300.036413452282432
99348.949506944045424
99381.337863767679664
99392.813534329136019
99393.178921431783237
99395.675115715406719
99406.919219806615729
99424.378092831146205
99442.320445210032631
99456.812052774403128
99467.362246155666071
99473.361341229930986
99474.41052377273445
99470.220093450247077
99461.361879109768779
99450.080973996024113
99438.427205893138307
99377.422777568135643
99402.096681648501544
99413.062235865494586
99409.848956278161495
99395.27619483480521
99372.300674647136475
99341.911872472628602
99303.678327863759478
99263.323371438062168
99231.898216889589094
99224.070562715671258
99248.910359208763111
99298.371652394882403
99350.778948354534805
99385.112620593281463
99396.177578383110813
99394.902137597033288
99396.918425171796116
99409.743322353970143
99430.810100200586021
99452.367345795544679
99469.262602743358002
99479.697564185451483
99483.799944174592383
99481.076930433977395
99472.532394431953435
99460.389559421862941
99447.317633099417435
99434.704869394132402
99422.794553649058798
99345.993861085531535
99381.365654979817919
99405.699837442021817
99414.389440236933297
99408.442946608207421
99392.451850096607814
99370.321045839751605
99342.50081084620615
99306.272457201426732
99265.122438366699498
99231.1063433305535
99220.62097494120826
99245.001696520281257
99296.892859399027657
99352.460687386381323
99388.559781972842757
99398.988581307057757
99396.148518348127254
99397.354204572868184
99411.785992641263874
99435.814253468706738
99460.650825614953646
99479.642953588583623
99490.487980402132962
99492.558742202134454
99486.677028429839993
99474.474952613847563
99459.476218224706827
99444.857310870793299
99431.727519530017162
99419.126210807880852
99406.423909012752119
99347.383916461680201
99384.605839824173017
99408.66929425028502
99415.543260496211587
99407.360102475446183
99390.111161907261703
99368.738417995788041
99342.862974392730393
99308.39879356828169
99266.477472480110009
99230.055712278975989
99217.446475953329355
99241.539557236785186
99295.738265905936714
99354.057340579747688
99391.554267690182314
99401.29318146816513
99396.819066498603206
99397.465506779932184
99412.866313701248146
99439.390059620098327
99466.981410386171774
99487.716312341566663
99498.638557689089794
99499.454391676888918
99490.912254382157698
99475.743889625271549
99458.515112774155568
99442.831944163946901
99429.349853744526627
99416.564651977954782
99403.012402759850374
99389.562345397658646
99263.503729410367669
99242.882234138494823
99224.278911453060573
99234.531084149843082
99285.434059173465357
99352.711845306446776
99348.318252176555688
99386.954021003155503
99410.932064662658377
99416.523402940831147
99406.673850957813556
99388.563118051053607
99367.682607855080278
99343.228753971896367
99310.056651042032172
99267.464183319534641
99229.015014224583865
99214.888215526734712
99238.930733780536684
99294.90931958341389
99355.430162709730212
99393.810756397448131
99402.881901335058501
99397.21435207570903
99397.291042026598006
99413.349077897466486
99441.635873625986278
99471.372555388647015
99493.40914153601625
99504.419622760324273
99504.200446224815096
99493.759975774359191
99476.614270141624729
99457.889477102318779
99441.311900918968604
99427.694106216498767
99414.881837054141215
99400.771813527622726
99386.32490030588815
99375.356947185311583
99272.31256497297727
99264.251706647119136
99241.522542864695424
99220.799890849433723
99231.137398962426232
99283.965763935717405
99353.609686111944029
99348.879613227603841
99388.315582928291406
99412.262618540422409
99417.088184466701932
99406.329448612581473
99387.764890094782459
99367.130187486181967
99343.497678853673278
99310.827266237800359
99267.965065870710532
99227.990386849443894
99213.27764158762875
99237.569433521246538
99294.575045910969493
99356.406029148958623
99395.093947678396944
99403.749624822259648
99397.297960821771994
99397.118254325861926
99413.449881013890263
99442.837610827627941
99473.620913212493178
99496.449307126720669
99507.410448527545668
99506.475199238906498
99495.156922688955092
99477.122421837659203
99457.468047343412763
99440.456792448938359
99426.876157924707513
99414.104534746744321
99399.634641988770454
99384.755879221876967
99373.618569611906423
99370.185450413540821
99244.180260986715439
99264.401140080924961
99288.722539234760916
99313.992181837747921
99336.957268674610532
99354.840502771781757
99365.919858874956844
99369.689155753629166
99366.904440204292769
99359.309556548061664
99348.8586038343783
99175.088810576213291
99173.001393661717884
99159.710653666799772
99131.570722864838899
99093.854514811406261
99057.986627315200167
99034.515517722815275
99028.992023698447156
99039.309610373311443
99058.054481155297253
99075.71336900483584
99086.696163963715662
99090.32052974702674
99089.72011077470961
99088.931924896067358
99089.912231566820992
99090.6918900852761
99086.815751678179367
99074.557065147120738
99054.649090535676805
99032.644205888864235
99016.233221189046162
99010.652099990504212
99015.773599576335982
99026.875004286135663
99037.775869080171105
99045.247710678901058
99049.878709887998411
99054.053459538437892
99059.388178738910938
99065.921176860763808
99073.657743860938353
99084.58322872914141
99102.041190736126737
99127.232064666881342
99156.77783951802121
99322.936956182558788
99311.679556577408221
99300.199485592587735
99287.93212773835694
99274.841168884231593
99261.793295145820593
99250.461578526417725
99242.916117922330159
99241.099142781778937
99246.295717199289356
99258.857392189529492
99277.954450756471488
99301.429028804690461
99326.165307670409675
99348.792847291624639
99366.420027676183963
99377.229432704873034
99380.652945604364504
99377.343001136439852
99368.907126117774169
99357.433721288078232
99177.052507491229335
99176.445882586747757
99165.873993318688008
99141.051222469599452
99105.775155619572615
99070.15656120730273
99044.156103268745937
99033.890690735846874
99038.580909005337162
99051.432466591984848
99064.493211454289849
99071.053490037549636
99070.245431471790653
99066.033291572646704
99063.891673833932145
99066.947914177726489
99073.080802027281607
99075.958991398802027
99069.2209530100954
99051.711414039848023
99028.989575540123042
99009.840752713687834
99001.570026657514973
99005.856779247376835
99018.536773074942175
99033.029652749115485
99044.539578902127687
99052.14037227157678
99057.274322316850885
99061.852863829073613
99066.957647460076259
99073.625190819700947
99083.958794289836078
99100.609780420389143
99124.337469195437734
99151.885407050183858
99320.51024188559677
99312.103934704791754
99304.715806833832175
99297.407338828910724
99289.446978203792241
99280.84796398288745
99272.625357369324774
99266.543371335515985
99264.597298042222974
99268.385239820447168
99278.584447242144961
99294.818704433491803
99315.589045254455414
99338.311953533979249
99359.792837151631829
99377.004454222726054
99387.896598703548079
99391.704298560274765
99388.92605152730539
99380.966975290779374
99369.633940926782088
99182.59960510712699
99172.27817721797328
99151.317204544480774
99121.379318884573877
99089.048602190960082
99062.759494222875219
99048.05775401853316
99045.591853890306083
99050.611123197886627
99056.478804033831693
99058.009830393042648
99054.184679073659936
99048.619533285615034
99046.802591162908357
99051.776525156194111
99061.287152184231672
99068.278135054046288
99065.537289216837962
99051.013679759198567
99029.627001899149036
99010.275588167482056
99001.074854290360236
99005.297652211622335
99019.904576583387097
99038.154200041026343
99053.979475058673415
99064.793553121999139
99071.024299566663103
99074.522916718939086
99077.302799152268562
99081.469138056520023
99089.495408011018299
99103.647827307984699
99124.525392004754394
99319.117221783890272
99315.876697681975202
99313.365384486824041
99310.300471515030949
99306.05044286516204
99301.025904430061928
99296.549337496442604
99294.400864998082398
99296.350439915258903
99303.602810545678949
99316.295906761471997
99333.408902276234585
99352.947892644529929
99372.285471612689435
99388.657121584823471
99399.814458257882507
99404.539952675375389
99402.857675967024988
99395.846668332305853
99385.040867688992876
99192.065322884358466
99179.199944289779523
99160.779988672307809
99137.021276425963151
99110.58698402052687
99086.675314529144089
99069.636084409678006
99060.553221475813189
99057.377330566363526
99055.918517299898667
99052.911055148550076
99047.858136042967089
99043.428370948880911
99043.335718581278343
99049.209446643435513
99058.104564009496244
99064.180138446710771
99062.103540556534426
99049.995058132772101
99031.816209945245646
99015.500996608854621
99008.709923125847126
99014.706310529960319
99031.357257075418602
99052.709274970446131
99072.261012458911864
99086.150384129228769
99093.553976797309588
99095.7573763786786
99095.494458091721754
99096.102705684155808
99100.919691026792862
99112.291414721505134
99130.25783559816773
99333.723107413316029
99333.933916005800711
99335.330385874185595
99336.291067784579354
99335.786514617444482
99333.756008399199345
99331.125944773622905
99329.422188924494549
99330.303008461472928
99335.174756662629079
99344.685812856740085
99358.366479238015017
99374.714160252580768
99391.546725443986361
99406.425894750922453
99417.146584287445876
99422.237583051421097
99421.30104336932709
99415.005092434075777
99404.541979967732914
99189.09801117493771
99171.193101441618637
99152.019614585675299
99132.218919245526195
99113.20868164053536
99096.799843085740576
99084.147546292777406
99074.696610403741943
99067.196235718976823
99060.899816936449497
99056.386570387636311
99054.89722118685313
99056.953116613236489
99061.492613742200774
99065.770510938353254
99065.967340748480638
99060.122779973156867
99048.814208946161671
99035.537555641014478
99025.962902988161659
99025.080716653581476
99034.803435712805367
99053.046393210897804
99075.172284435699112
99095.717381934999139
99110.655519784166245
99118.352391132648336
99119.584617389147752
99117.354323433173704
99115.731052400820772
99118.639110450589214
99128.325740538653918
99357.807074094351265
99361.327354331020615
99364.709979470397229
99366.95934793962806
99367.777053208541474
99367.596668888392742
99367.499884213990299
99368.892191356004332
99373.066040731646353
99380.772205585584743
99391.866362603162997
99405.268288725041202
99419.226553166721715