/*--------------------------------*- C++ -*----------------------------------*\
  =========                 |
  \\      /  F ield         | OpenFOAM: The Open Source CFD Toolbox
   \\    /   O peration     | Website:  https://openfoam.org
    \\  /    A nd           | Version:  12
     \\/     M anipulation  |
\*---------------------------------------------------------------------------*/
FoamFile
{
    format      ascii;
    class       volScalarField;
    location    "0.0066";
    object      p_0;
}
// * * * * * * * * * * * * * * * * * * * * * * * * * * * * * * * * * * * * * //

dimensions      [1 -1 -2 0 0 0 0];

internalField   nonuniform List<scalar> 
106891
(
99352.672186833719024
99350.581897054755245
99349.362576031213393
99348.92995763621002
99348.72435735007457
99347.789470308765885
99345.318911979309632
99340.899364045719267
99334.66589489816397
99327.104398434050381
99319.065219593598158
99171.686493630651967
99145.840206973414752
99136.719883079786086
99140.339559528743848
99147.009698923924589
99147.258769378473517
99137.978651259894832
99123.568001324674697
99113.566000176841044
99116.522916009431356
99134.720493986518704
99161.823678777785972
99185.493080306201591
99194.052867699138005
99182.635511389060412
99155.993164354920737
99125.901077717047883
99105.027308062752127
99099.974286614029552
99107.828396952434559
99118.752992784342496
99121.866032667981926
99111.839449671257171
99092.092916226145462
99072.062291549649672
99061.548031519720098
99065.296192936191801
99080.768844766265829
99100.531375352511532
99117.084177988232113
99127.002366509754211
99132.501213554132846
99139.287424115886097
99152.259242183368769
99172.118431204318767
99194.182521383219864
99211.212677163028275
99217.721258983539883
99331.698043204494752
99339.081915609160205
99346.757534547374235
99353.557765346573433
99358.597221397911198
99361.447853016492445
99362.278910112741869
99361.829815689125098
99361.057312569799251
99360.731777305933065
99361.185212288182811
99362.241735860719928
99363.375141114956932
99363.857228280132404
99362.794154683593661
99359.422322012280347
99353.475891446854803
99345.408054580781027
99336.050552777131088
99326.388583058636868
99168.545902153404313
99158.708178893954027
99154.994562688632868
99151.317131946532754
99142.869545035035117
99128.876196158875246
99113.766276107315207
99104.852892249415163
99108.131265827410971
99124.573517499811715
99148.907803089779918
99171.554492748444318
99182.47443312528776
99176.619641789366142
99156.272760405219742
99130.226113912838628
99108.823171094467398
99098.602002378131147
99099.802693779609399
99106.651457977175596
99111.129244882497005
99107.944083336129552
99097.138630344721605
99083.382538729347289
99072.907048164779553
99069.918510350107681
99074.911398460215423
99084.915323216715478
99095.687536794619518
99104.677314286964247
99112.611499950799043
99122.439927706407616
99137.158298398077022
99157.149772187724011
99179.504472002299735
99199.146755372363259
99332.872336869346327
99340.916540335208992
99348.759859068784863
99355.258030459503061
99359.808087051656912
99362.393221692997031
99363.550987920345506
99364.214540523214964
99365.409639699573745
99367.796737778859097
99371.343726066217641
99375.314053982365294
99378.568337430624524
99379.984379588669981
99378.702802173080272
99374.26397673349129
99366.746784197413945
99356.978538177500013
99346.220905047637643
99335.701898232495296
99198.737232684798073
99185.797946400140063
99173.104224774113391
99159.542958923382685
99144.936602846923051
99129.616538667454734
99116.355245538041345
99108.49914072638785
99108.938393160657142
99117.994004391890485
99133.277178491931409
99149.52373279981839
99160.492512614830048
99161.718897013968672
99152.479292401796556
99136.310123848772491
99119.009986204269808
99106.17709941258363
99100.614739166965592
99101.514014933622093
99105.745204795864993
99109.165812061226461
99107.993115707082325
99100.910475653421599
99089.50094255633303
99077.636608122222242
99069.735514733416494
99068.263487183765392
99073.161155086156214
99083.072937821096275
99096.357858245493844
99111.813768900625291
99129.011918705058633
99147.880892493747524
99167.962703185825376
99188.030177754670149
99347.007400823553326
99354.135431539427373
99359.357684529342805
99362.390163146192208
99363.761888719833223
99364.569841313641518
99366.063491119959508
99369.198868398103514
99374.332629578726483
99381.029825084653567
99388.043427293843706
99393.620948223251617
99396.128057080379222
99394.593055002012989
99388.919403958439943
99379.775533419277053
99368.497426796122454
99356.774016835479415
99346.106159914183081
99216.229397444010829
99195.580423361330759
99175.32206401048461
99158.663111823771033
99145.959157738223439
99135.54255233706499
99125.677523105070577
99118.055173907559947
99114.220129031527904
99115.324811699349084
99121.879787265919731
99132.294335391256027
99142.386647640902083
99148.208555361066828
99147.015224864459014
99138.433595732800313
99125.481052009083214
99113.15349473292008
99106.557549585253582
99108.001316314577707
99114.423462467049831
99119.152855521882884
99116.135834650151082
99103.404315071340534
99084.487447871171753
99066.224908253192552
99055.847765602346044
99057.653498965883045
99070.724683317879681
99090.296414263502811
99111.006975044307183
99129.508635578400572
99145.647385775169823
99161.793984914911562
99352.045995576685527
99358.193173625550116
99363.310127589065814
99366.307211217892473
99367.193166190685588
99366.939308029875974
99367.071685235394398
99369.155902314436389
99374.159239096436067
99382.013782436173642
99391.628811688235146
99401.198192776122596
99408.604921321690199
99411.959586016484536
99410.207563923177077
99403.492569422160159
99393.035402741123107
99380.727208497628453
99368.687596479838248
99358.630988822245854
99248.074116944073467
99222.591662190650823
99199.934083993779495
99184.415056910496787
99174.539181509724585
99164.916065624987823
99151.562540127852117
99133.165949813570478
99114.124818199576112
99101.199302711931523
99099.164240168087417
99109.51915425567131
99129.40272492596705
99151.172378760224092
99165.639172222014167
99166.689031440691906
99154.825445873910212
99136.951908713948797
99122.244479991175467
99116.818468940153252
99120.076009522672393
99125.250815609033452
99123.809484986486495
99111.245139333535917
99089.796527276805136
99067.998344649546198
99055.715806866777712
99058.320351223068428
99074.527556065528188
99097.755842918544658
99120.393835856462829
99137.782915895484621
99150.343729762302246
99375.848780747153796
99377.606666355975904
99377.698696478430065
99376.369057860370958
99374.785757365447353
99374.548310425583622
99377.105472762108548
99383.281041261288919
99392.8434187699022
99404.365188686540932
99415.592518714998732
99424.09447481087409
99427.914834191833506
99426.088810699497117
99418.929326849305653
99407.937059846852208
99395.34266359040339
99383.610971561181941
99374.644081231075688
99251.179697920044418
99228.628780679879128
99214.811501190561103
99206.376996053484618
99196.186347001290414
99178.872553272914956
99153.728580733528361
99126.092373716935981
99104.45613731261983
99097.320002850377932
99108.739838832130772
99135.20465803371917
99166.556654883155716
99190.519308941889904
99198.048419642800582
99187.308283934238716
99164.892800187153625
99141.95235259772744
99127.635233987981337
99124.198656991778989
99126.306789219830534
99125.427205162282917
99115.959063529749983
99099.471573875183822
99083.296951259093476
99075.415912235810538
99080.152681460371241
99096.328697612698306
99117.825105312658707
99137.5180649162794
99151.501502746541519
99161.12043339999218
99401.035913719329983
99399.09701819770271
99396.36503289778193
99393.388726462842897
99391.269926938533899
99391.365758133732015
99394.726752356262296
99401.680412093846826
99411.685321965735056
99423.295050625863951
99434.378095428444794
99442.642742395604728
99446.295646560000023
99444.579119723508484
99437.917586338342517
99427.804614690554445
99416.353159459016751
99405.952145288698375
99398.455379751583678
99254.619055867384304
99242.54263650579378
99235.207923570036655
99225.731460197537672
99209.053634660420357
99185.157563965927693
99158.756035444122972
99137.671595376552432
99129.644692249392392
99138.595917984290281
99162.193058359669521
99191.881144537241198
99215.215975653627538
99222.521116887452081
99211.665063099237159
99188.305588445116882
99162.496672382272664
99143.171935289821704
99134.048464426334249
99132.535140244974173
99132.589517331609386
99129.721854475894361
99123.40532629264635
99116.753811137270532
99114.264476301061222
99118.827092342951801
99129.883273982210085
99143.919314869897789
99157.15978153872129
99167.955207654566038
99426.649462843561196
99422.831853818453965
99419.970196742884582
99418.806277180352481
99420.091201842777082
99424.334525023325114
99431.474246575977304
99440.729629883135203
99450.735394168936182
99459.832086330192396
99466.390781849113409
99469.171847126301145
99467.693754572217586
99462.423753410403151
99454.709431628783932
99446.240932589935255
99438.84308860109013
99433.859357747365721
99266.211339849352953
99260.636546683657798
99254.782320942802471
99245.167222746837069
99230.979718082613545
99214.436402267339872
99199.626856459319242
99191.149383551921346
99192.422128507707384
99203.318265622787294
99218.720331134667504
99231.030577499623178
99234.062027682652115
99225.469728853364359
99207.969950910468469
99187.68643153643643
99170.852798485851963
99161.075358304427937
99158.400903586385539
99160.002785107935779
99162.335426392426598
99163.453223299176898
99163.312159645458451
99163.064080938871484
99164.002438360417727
99166.422027964901645
99170.943504201219184
99178.303506390831899
99458.278740950961947
99455.291588268315536
99454.317037243308732
99455.492279159254394
99458.734086008713348
99463.66794852874591
99469.741149393696105
99476.333454490930308
99482.742073693370912
99488.184304749549483
99491.938465715225902
99493.569889564372716
99493.027643756126054
99490.614332239041687
99487.083961696000188
99483.329953893393395
99480.362517190384096
99478.809108867877512
99285.390553804420051
99284.220450645079836
99284.683103732721065
99283.934489906343515
99280.047635571376304
99273.074417373107281
99264.349269805388758
99255.781775100331288
99248.714069750451017
99243.674120212133857
99240.904001030605286
99238.968443503312301
99235.906942565488862
99230.589140258103726
99223.402667235466652
99216.150833113686531
99210.859474262993899
99209.000676835144986
99210.476534639325109
99213.46614144682826
99215.616590871286462
99215.410501397665939
99212.366040838620393
99207.235426877843565
99202.613569198059849
99202.026671995365177
99208.219176817525295
99495.145465395253268
99496.472152623857255
99499.556352892104769
99503.630737556624808
99507.867958344882936
99511.5774439478555
99514.3243730525719
99515.985416904528392
99516.74229294944962
99516.985354385469691
99517.206799574749311
99517.831594343006145
99519.05532162298914
99520.938939525687601
99523.25047640883713
99525.735589572708705
99527.958221990877064
99315.941164439267595
99311.967306489153998
99315.77030169221689
99325.299418059687014
99336.009331524808658
99343.146173061250011
99343.135811114814715
99333.917473584631807
99315.689634255220881
99292.004668528228649
99269.101801837809035
99252.901917207200313
99246.610699034514255
99249.709669291070895
99258.390453563610208
99267.785804421262583
99274.516184844935196
99277.955870610283455
99278.990829196991399
99278.572995052076294
99276.639945174712921
99272.655888622903149
99266.176685451573576
99257.56416393139807
99248.851815078916843
99243.261126501092804
99243.696543902129633
99542.55654959056119
99545.733133903180715
99548.468090968526667
99549.991385251196334
99549.95593555290543
99548.467431352226413
99546.033581436466193
99543.499898619847954
99541.866312283382285
99541.99312685507175
99544.366767369923764
99548.918967312944005
99555.102017032739241
99561.83460808826203
99567.966470199084142
99572.37892247128184
99340.383412277486059
99338.282127739716088
99345.449531865364406
99359.382795406549121
99375.32275120059785
99387.464715042384341
99390.466853842212004
99380.73304317786824
99358.299136615896714
99327.779107465816196
99296.866936467515188
99273.505757057093433
99263.489305503666401
99268.063669235591078
99283.503870822722092
99303.499452930889674
99322.132255004020408
99335.586888045814703
99342.119183756338316
99341.508785664831521
99334.741578799381386
99323.309628987175529
99309.557062087085797
99296.916339066694491
99288.672096130627324
99286.563859152025543
99290.493529744519037
99298.886275719283731
99575.589999915959197
99574.997236175098806
99572.975441298287478
99569.776056233604322
99566.003711867917445
99562.507854721654439
99560.224698428413831
99559.963327032761299
99562.190584577896516
99566.909336630444159
99573.574542822025251
99581.266827288491186
99588.696770016962546
99594.665139591015759
99598.242416274501011
99362.553686311337515
99371.452209632174345
99386.404588607751066
99402.701082927524112
99414.826028716590372
99417.579183519235812
99407.789456188358599
99385.777751141242334
99355.674324508072459
99324.58161684924562
99300.25493749519228
99287.938277148816269
99290.146050240917248
99305.435527738212841
99328.797163221548544
99353.700934020438581
99373.94719700011774
99385.312606734893052
99386.251881924123154
99377.658932371472474
99362.488117338769371
99345.451602808447205
99331.897254810319282
99325.312872457492631
99326.017750668674125
99331.706645560625475
99338.820146476296941
99586.591534658888122
99581.330594671264407
99575.870139537830255
99571.20571923222451
99568.308806246190215
99567.903439565110602
99570.281629623612389
99575.250711152271833
99582.169411278417101
99590.029543751239544
99597.729898523437441
99604.111881272256142
99608.349308354547247
99610.057733633366297
99397.456519515268155
99410.189870957401581
99422.833040559533401
99431.050139261205913
99431.222425098269014
99421.847676300152671
99403.733575283666141
99379.890005036999355
99354.595582820198615
99333.099642514891457
99320.222989651243552
99318.619901672413107
99329.361535624193493
99350.344229906069813
99376.110873720273958
99399.438811201500357
99414.28504840558162
99417.671679453284014
99410.07917282175913
99395.375035941659007
99379.532833490462508
99368.068267794689746
99363.657661459626979
99365.487587401512428
99370.09770283679245
99373.378440725879045
99581.443161289105774
99574.243129387192312
99569.348632592314971
99567.761806476148195
99569.84435289404064
99575.234522707512951
99582.976226312312065
99591.763391167129157
99600.189226394169964
99607.10023443470709
99611.662162018328672
99613.634764544782229
99613.329040974305826
99429.20539811027993
99435.758515206398442
99438.376228350374731
99435.545432476734277
99427.292570160600008
99414.913101800702862
99400.043404161464423
99384.18348537433485
99368.535230691020843
99356.323027434787946
99350.853659915417666
99355.20345396749326
99369.952954532171134
99391.711816515060491
99413.976545043478836
99430.099786966195097
99436.017730313484208
99431.849096700534574
99421.491529097882449
99410.457928472082131
99403.070996542039211
99400.774101676244754
99401.91646583849797
99403.072154230438173
99401.528364251149469
99569.00762430857867
99564.227175966036157
99563.893818876429577
99568.032971408276353
99575.754630287468899
99585.497554703819333
99595.458656570088351
99603.959097211234621
99609.868872067672783
99612.729468133460614
99612.845956345132436
99611.090011265841895
99442.192384338268312
99440.642347830667859
99436.650694016527268
99430.973593549497309
99424.759992091203458
99418.569658820808399
99411.460527872375678
99402.451148984706379
99391.956965390621917
99383.295469633332686
99381.093904215886141
99388.184307932504453
99403.268015873618424
99421.307059635044425
99436.228419207502156
99444.003222384824767
99444.469780918807373
99440.575067112789839
99436.131954407188459
99433.531686756017734
99432.853502064303029
99432.236591509266873
99429.579159915869241
99424.275864877403365
99440.61430677815224
99438.955424567757291
99437.738511882213061
99437.430673290306004
99437.732613626227248
99436.956770918157417
99432.610653094699956
99423.458513264078647
99412.74368544081517
99405.127389240151388
99404.602859208724112
99411.857958943903213
99424.04264466825407
99436.51905536124832
99445.681563024831121
99450.900497576556518
99453.748100802957197
99455.873278701532399
99457.496700017596595
99457.601882827715599
99454.941614000519621
99449.309332456934499
99442.078121159269358
99449.371845168701839
99454.970320846157847
99459.534771268110489
99461.260873189632548
99457.754500363604166
99448.87094553586212
99436.702380135757267
99425.145347186844447
99418.346502589149168
99418.260219729490927
99424.23509365231439
99433.772840924255433
99444.210526020469842
99454.141825318845804
99463.229135781817604
99470.757253366246005
99475.20159650837013
99475.073960625479231
99470.221906387145282
99462.545773289442877
99454.972753608555649
99478.482768103800481
99468.311336977989413
99454.762190208377433
99440.611433641024632
99429.195392676178017
99423.18663562987058
99423.61515214118117
99430.131850509962533
99441.638503516558558
99456.089454500339343
99470.673584599091555
99482.168725735304179
99487.724095427955035
99486.095640066239866
99478.796682948013768
99469.645855484865024
99462.410075249616057
99437.900648016628111
99427.441184762836201
99423.465801903643296
99427.483834612605278
99439.692149132039049
99457.77654804251506
99476.732143498724326
99490.810869121080032
99496.046592459460953
99491.890223330323352
99481.734433458448621
99471.045061049240758
99464.139873588719638
99432.234835792900412
99425.080780732489075
99427.146282874236931
99439.567446645378368
99459.794085190325859
99481.303602921951097
99496.367694852524437
99500.11636243799876
99492.840646838085377
99479.64976588942227
99467.419543822834385
99460.732849416250247
99379.774579154211096
99336.754519196780166
99290.811205255216919
99253.244165113894269
99234.468299397194642
99240.039363490534015
99267.508268380755908
99306.462035021642805
99343.1559041027067
99367.990360269643134
99379.88234215718694
99384.197223914583446
99387.347813146639965
99392.513663800724316
99398.463414759593434
99403.820721683936426
99410.013774772349279
99419.585150558588794
99432.968937717552762
99447.495999849415966
99405.482899910959532
99378.377373299415922
99338.104638672171859
99293.917708253487945
99255.478773339738837
99233.414237688295543
99235.887255220426596
99263.127257166575873
99305.233938359335298
99346.105399942069198
99373.385347977513447
99384.984848859850899
99388.025329740397865
99391.233910804949119
99398.475168348275474
99408.317852919033612
99417.981800763765932
99427.060853138915263
99436.854833884674008
99447.799109035579022
99457.583022078717477
99463.09566964233818
99410.949446101134527
99413.892382367383107
99401.877588472169009
99376.40825539798243
99339.25266640954942
99296.941470834091888
99257.961208703418379
99232.716866565169767
99232.010574341649772
99258.79579386828118
99303.708447667551809
99348.574397755495738
99378.149702554699616
99389.427944999784813
99391.1640638862591
99394.148536369510111
99403.377944279505755
99417.351729941816302
99431.268097071588272
99442.963593447435414
99452.838281344622374
99461.227935329923639
99466.404436768323649
99466.65616570279235
99461.607740901454235
99452.714973743699375
99399.056013570603682
99412.260067487994093
99411.83141371003876
99398.382335475529544
99374.168054637586465
99340.337740333940019
99299.940911591358599
99260.390757277462399
99232.230015991997789
99228.320400874581537
99254.600376128684729
99302.11289956670953
99350.730177211327828
99382.404782544632326
99393.279867407502024
99393.472839975176612
99396.150609160016757
99407.627060621001874
99425.128994982063887
99442.942401796404738
99457.212579073486268
99467.530184354400262
99473.291968385718064
99474.100291056965943
99469.695964965751045
99460.69425636275264
99449.399723745678784
99437.809501679628738
99378.696145204594359
99402.994797613093397
99413.501476618781453
99409.901231641924824
99395.055628589383559
99371.885026764910435
99341.248912947179633
99302.81777766054438
99262.529988162961672
99231.602961764205247
99224.748757211433258
99250.614282877213554
99300.565719123522285
99352.677182987768902
99386.224318048174609
99396.622948156844359
99395.173960596337565
99397.435743921465473
99410.558744326393935
99431.719803558968124
99453.100804544737912
99469.689979450966348
99479.822424786616466
99483.581281597580528
99480.570763101000921
99471.818478420653264
99459.597771448694402
99446.546957569327787
99434.026959146838635
99422.203655942663318
99347.493701601284556
99382.662575061287498
99406.533403858062229
99414.725415212626103
99408.412306131489458
99392.236360353475902
99369.983863584973733
99341.964337731478736
99305.457669425406493
99264.279234560526675
99230.724580428708578
99221.23968851446989
99246.748039003825397
99299.198476961857523
99354.463526768551674
99389.702782515014405
99399.403472839461756
99396.386289522502921
99397.899156392479199
99412.712719494316843
99436.840941416987334
99461.488962810559315
99480.125928911482333
99490.536136668757536
99492.216243282629875
99486.005930493643973
99473.604075553492294
99458.5645925597928
99444.028227679969859
99430.998442438198254
99418.492440041372902
99405.884333699039416
99348.961461830374901
99385.921276190143544
99409.452515130062238
99415.793429672878119
99407.261033791073714
99389.894240143126808
99368.472374364966527
99342.424500784676638
99307.620356268875184
99265.583173266568338
99229.596677515350166
99218.020065356817213
99243.325092218670761
99298.147602433062275
99356.143872175351135
99392.721875693590846
99401.669966462490265
99397.029753042952507
99398.035896332250559
99413.86460391660512
99440.532939685537713
99467.910891034131055
99488.226039418557775
99498.669673211450572
99499.019968350869021
99490.101982459425926
99474.742249994815211
99457.522150619377499
99441.958502105713706
99428.593569403223228
99415.892316505734925
99402.434889714888413
99389.146311705262633
99262.091082801212906
99241.266925466698012
99223.303128569939872
99234.921374985351576
99286.996214545448311
99354.242733150866115
99349.960540205429425
99388.286271797740483
99411.683857251817244
99416.708293950054212
99406.524387700847001
99388.342241289486992
99367.47113544572494
99342.852484688963159
99309.307115593837807
99266.523782457981724
99228.494027519700467
99215.435730857177987
99240.745450415503001
99297.403166480071377
99357.577013679256197
99394.990106487253797
99403.232575298985466
99397.403219711763086
99397.867018493299838
99414.40296458316152
99442.85915371941519
99472.378228441506508
99493.940814428613521
99504.422070311673451
99503.696270915243076
99492.857226135995006
99475.530552495562006
99456.839680964243598
99440.403218446721439
99426.92915613243531
99414.190899277688004
99400.150647713016951
99385.871611984592164
99375.235757622547681
99271.405170129859471
99262.75686955160927
99239.833260484607308
99219.778796260958188
99231.560206998212379
99285.611622814059956
99355.214835724997101
99350.562962452167994
99389.660922503695474
99412.996732819883619
99417.236872865614714
99406.152144273306476
99387.54397409997182
99366.94497704951209
99343.149888953077607
99310.099899111432023
99266.983125307451701
99227.435115347645478
99213.817157716024667
99239.404110042916727
99297.119073304129415
99358.583850966810132
99396.276666924240999
99404.082793636494898
99397.468613415287109
99397.699966812477214
99414.532393382469309
99444.112322646877146
99474.659369907225482
99496.999311061998014
99507.390040242113173
99505.931073556203046
99494.222866453477764
99475.994958134309854
99456.380028175990446
99439.537480108367163
99426.108671389185474
99413.403888524422655
99398.987762109260075
99384.291048249971936
99373.497478367266012
99370.48485435290786
99245.16081357402436
99265.689063187339343
99290.164266764055355
99315.407426561127068
99338.175855661334936
99355.731508621582179
99366.412007026650826
99369.780752113496419
99366.652415579650551
99358.806263554055477
99348.213129669398768
99175.662651646169252
99173.320396911818534
99159.485068521360517
99130.842703754256945
99092.965206448716344
99057.389623434850364
99034.520482345411438
99029.652992046743748
99040.421290396217955
99059.248309818824055
99076.685108188146842
99087.329367087513674
99090.680801787311793
99089.960875022690743
99089.179920813126955
99090.165202786491136
99090.803408400402986
99086.597550191989285
99073.939732704791822
99053.762777801617631
99031.775652436437667
99015.663817841807031
99010.506844493822427
99015.970205120669561
99027.198671315025422
99038.038504304277012
99045.390777542314027
99049.957626759482082
99054.133570882506319
99059.484246927706408
99066.016224424834945
99073.792841121859965
99084.880952791761956
99102.6167899940192
99128.054836626062752
99157.635665478068404
99322.275302425347036
99311.040604805879411
99299.547542986314511
99287.253090407946729
99274.148085261680535
99261.136160148496856
99249.93068935140036
99242.622874175809557
99241.146360787781305
99246.742548127760529
99259.693136084431899
99279.099451469504857
99302.745046838885173
99327.475175659317756
99349.916133489576168
99367.211283411190379
99377.606336282435223
99380.607121495340834
99376.936017851927318
99368.24198061451898
99356.628229513269616
99177.639658465603134
99176.834480432618875
99165.773965850312379
99140.426935862036771
99104.931737326391158
99069.476000193535583
99043.961983064538799
99034.292080499304575
99039.385166231848416
99052.376089891404263
99065.261771738951211
99071.518102230242221
99070.485563521026052
99066.252901416708482
99064.269072487571975
99067.489981729522697
99073.583130471073673
99076.134862532358966
99068.898456566719688
99050.982749861228513
99028.165538156637922
99009.273533831423265
99001.466877102837316
99006.187840802289429
99019.08917244769691
99033.569865788129391
99044.947584386027302
99052.4178792656312
99057.467955293817795
99062.00067731521267
99067.086849056751817
99073.792725668579806
99084.268874063302064
99101.151389113831101
99125.076669175425195
99152.635764315433335
99319.920773843943607
99311.610745191326714
99304.254062326566782
99296.919849015859654
99288.913594314231887
99280.294317761377897
99272.120117729151389
99266.185870023822645
99264.491776882787235
99268.611979001289001
99279.16883791940927
99295.711532585657551
99316.672825035770074
99339.423186145548243
99360.756363799082465
99377.670711999569903
99388.170656118556508
99391.558806710323552
99388.400112937015365
99380.154265891193063
99368.658930266246898
99182.895650469203247
99172.224643807130633
99150.853994915160001
99120.657406031299615
99088.370962677610805
99062.400386983543285
99048.135636684426572
99046.035688767980901
99051.185974758380326
99056.97391710471129
99058.324209571946994
99054.380436406005174
99048.896645603366778
99047.326865514143719
99052.540835328443791
99062.068364833641681
99068.746177643100964
99065.479138788505225
99050.491497235649149
99028.939916916453512
99009.798904578434303
99001.071133750971057
99005.793229031420196
99020.706185722956434
99038.993202472076518
99054.66847427902394
99065.268742945379927
99071.309489626510185
99074.674986148369499
99077.390245280199451
99081.575847973130294
99089.726907389282132
99104.080408927751705
99125.126241751087946
99318.769327766320202
99315.609550403780304
99313.088620758309844
99309.947752252424834
99305.612611803604523
99300.552844453093712
99296.131229988925043
99294.144138931442285
99296.349052041754476
99303.909162926342105
99316.898862555899541
99334.228151673596585
99353.84538945989334
99373.091750936946482
99389.212143006981933
99400.006893728263094
99404.326504679920617
99402.256709700886859
99394.925458454352338
99383.909867624694016
99192.095579481247114
99179.064287800327293
99160.428656160336686
99136.477900422585662
99109.998031456387253
99086.230293439497473
99069.44792175895418
99060.620956075217691
99057.584394155361224
99056.159899658887298
99053.124279219002347
99048.100180030145566
99043.830383908381918
99043.990678548318101
99050.062911656918004
99058.9337424042169
99064.732199980004225
99062.210502988600638
99049.694926213225699
99031.371065471175825
99015.259482196386671
99008.926765168216662
99015.422396632420714
99032.412031366751762
99053.832279886555625
99073.218261348738451
99086.818927104366594
99093.91621525278606
99095.876576631344506
99095.481592803116655
99096.096160987595795
99101.046627428382635
99112.612560100926203
99130.727664290418033
99333.465139353007544
99333.778947646322194
99335.174649052962195
99336.049559276958462
99335.424004496497218
99333.302094972503255
99330.660589327089838
99329.048044037001091
99330.119517129875021
99335.250649850291666
99345.03426712853252
99358.935068067279644
99375.392616246113903
99392.186740671648295
99406.870697553924401
99417.267028956324793
99421.962732203304768
99420.628987036267063
99413.991228139377199
99403.285318796537467
99188.77510888085817
99170.837746373712434
99151.613994442930561
99131.782205199284363
99112.797227496528649
99096.475405486606178
99083.950618053568178
99074.62617924544611
99067.243445614352822
99061.08424607689085
99056.74268376029795
99055.455799279661733
99057.66948665837117
99062.260271645049215
99066.424119476883789
99066.365068679355318
99060.233876197511563
99048.720509818565915
99035.446690640761517
99026.116226345620817
99025.642485283169663
99035.778423842813936
99054.29223041854857
99076.461757030483568
99096.826741529774154
99111.441754884144757
99118.770602309712558
99119.699735979214893
99117.308071864608792
99115.689176385800238
99118.733883739958401
99128.598220171392313
99357.64301063552557
99361.15576100643375
99364.457258274356718
99366.594839718542062
99367.316317332413746
99367.099440391990356
99367.053741995914606
99368.58761112690263
99372.972145313251531
99380.911561210508808
99392.199143046498648
99405.699080063408474