/*--------------------------------*- C++ -*----------------------------------*\
  =========                 |
  \\      /  F ield         | OpenFOAM: The Open Source CFD Toolbox
   \\    /   O peration     | Website:  https://openfoam.org
    \\  /    A nd           | Version:  12
     \\/     M anipulation  |
\*---------------------------------------------------------------------------*/
FoamFile
{
    format      ascii;
    class       volScalarField;
    location    "0.0066";
    object      pMean;
}
// * * * * * * * * * * * * * * * * * * * * * * * * * * * * * * * * * * * * * //

dimensions      [1 -1 -2 0 0 0 0];

internalField   nonuniform List<scalar> 
106891
(
98753.828637638755026
98754.515046298038214
98755.234873839552165
98755.989144163220772
98756.778961771546165
98757.60549893170537
98758.469996794170584
98759.373679848504253
98760.316771525584045
98761.2984869586071
98762.310685399221256
98754.411577116305125
98754.318326071341289
98754.226409335009521
98754.12951151690504
98754.024245174732641
98753.911289185183705
98753.794404799016775
98753.67736456306011
98753.561019611937809
98753.442331430051127
98753.315864482632605
98753.177107322699158
98753.025209122672095
98752.8640945568186
98752.701366303503164
98752.544792499145842
98752.398698247983702
98752.262273244487005
98752.130468974646647
98751.997303251337144
98751.85940650315024
98751.71767293465382
98751.576637301433948
98751.441759436303983
98751.316176242980873
98751.199006774579175
98751.086087189178215
98750.972474167734617
98750.855040993235889
98750.73347690407536
98750.609717826242559
98750.486167071197997
98750.363556509488262
98750.240398957161233
98750.114050587973907
98749.982584502053214
98749.846475241341977
98749.70876951579703
98752.070367682084907
98752.568036256707273
98753.086874709362746
98753.627898248407291
98754.192379766216618
98754.781770042172866
98755.39753297813877
98756.040996061026817
98756.713247842606506
98757.415189367122366
98758.147661332724965
98758.911602039428544
98759.708059819909977
98760.538257153966697
98761.403501221051556
98762.305069863039535
98763.244144133859663
98764.220815163003863
98765.234332094565616
98766.276903173114988
98754.345623163448181
98754.251146175971371
98754.153420369984815
98754.050911548081785
98753.944424229353899
98753.83642359256919
98753.72896283416776
98753.621635918287211
98753.511191796787898
98753.392967155989027
98753.26326694333693
98753.121107638842659
98752.969218487429316
98752.813606905096094
98752.661211462153005
98752.516632434766507
98752.380410049503553
98752.249510773748625
98752.1192337184184
98751.985908026297693
98751.848697402849211
98751.709785713101155
98751.573110892815748
98751.4419410572591
98751.31710482625931
98751.196959263528697
98751.07868655717175
98750.959707424699445
98750.838760488884873
98750.716072696362971
98750.59246816051018
98750.468188549974002
98750.342214832577156
98750.212661432320601
98750.078146742249373
98749.938950154202757
98755.218184435609146
98755.766223331636866
98756.335054866678547
98756.925714171724394
98757.539491609612014
98758.177737776975846
98758.841675958989072
98759.532301337603712
98760.250374102193746
98760.996502960959333
98761.771258368316921
98762.575373420841061
98763.409838071616832
98764.275954780023312
98765.175190061709145
98766.108978904827381
98767.078631908661919
98768.084262361633591
98769.12521538270812
98770.193880854378222
98754.373764907824807
98754.275601587971323
98754.176830128155416
98754.077290123168495
98753.977023343511974
98753.876668240802246
98753.776329183107009
98753.675058925102348
98753.57045753953571
98753.459399373678025
98753.339340312828426
98753.209269338054582
98753.070469506754307
98752.926491246282239
98752.781989926705137
98752.640758018227643
98752.504537742963294
98752.37277448293753
98752.242968276172178
98752.112208629856468
98751.978650992794428
98751.842161445092643
98751.704310215471196
98751.567903512986959
98751.43558202793065
98751.308637974827434
98751.186526586461696
98751.06733980269928
98750.948663473362103
98750.828404496380244
98750.705271143873688
98750.578697349046706
98750.448551784284064
98750.314789512529387
98750.17721416321001
98750.035891364095733
98758.980121781278285
98759.594802568419254
98760.231120084266877
98760.890348500790424
98761.57374066322518
98762.282307865883922
98763.016690213829861
98763.777183235870325
98764.563968604634283
98765.377358243466006
98766.217971806647256
98767.086779893841594
98767.985110291148885
98768.914516862481833
98769.876570124572027
98770.872720412167837
98771.90309913927922
98772.967173681943677
98774.057493512780638
98754.293058252820629
98754.193752494087676
98754.097109690599609
98754.001928696365212
98753.906368973708595
98753.809245660537272
98753.710304164604167
98753.609159817860927
98753.504898500716081
98753.396460270465468
98753.282506921634194
98753.161670125773526
98753.033767875400372
98752.900201100332197
98752.763465897602146
98752.626607620957657
98752.491966530578793
98752.360297146937228
98752.230537485171226
98752.099958304403117
98751.965841974742943
98751.827589520151378
98751.687518863443984
98751.549646317231236
98751.417599925029208
98751.29300643800525
98751.174673651970807
98751.058736317878356
98750.940580113630858
98750.817027275683358
98750.687204497415223
98750.552151217256323
98750.41371402873483
98750.273050879142829
98761.564322354708565
98762.200474247627426
98762.857135343598202
98763.535382093876251
98764.236404787181527
98764.961243386016577
98765.710600359321688
98766.484767627232941
98767.283713794080541
98768.107289428589866
98768.955511480671703
98769.828831854305463
98770.728227703366429
98771.655161842325469
98772.611351375220693
98773.598469784396002
98774.617986621509772
98775.669959070190089
98776.7539380442322
98777.862580736109521
98754.317130432929844
98754.217280627563014
98754.122569727507653
98754.030167864533723
98753.936644904490095
98753.840313728273031
98753.741599110173411
98753.642350702080876
98753.544349230476655
98753.447439633848262
98753.349198891010019
98753.245874581160024
98753.133635626290925
98753.010315355306375
98752.876949379075086
98752.7377728632855
98752.598408029531129
98752.46300925182004
98752.332357766383211
98752.203663605323527
98752.072662022881559
98751.937068950544926
98751.798310567086446
98751.660484233769239
98751.528056174822268
98751.403430460093659
98751.285261376528069
98751.16895029891748
98751.049114124994958
98750.922194186481647
98750.787772420691908
98750.647946990517084
98750.505457308405312
98765.420629791202373
98766.116075693105813
98766.833041120917187
98767.572543201167719
98768.335369060674566
98769.121899874226074
98769.932136413801345
98770.76578029691882
98771.622401405358687
98772.501736251215334
98773.404059002830763
98774.330355927319033
98775.282261138781905
98776.261704951102729
98777.270460275904043
98778.309961620703689
98779.380134187085787
98780.480637950109667
98781.604390342297847
98754.23712374085153
98754.143228945977171
98754.052014758301084
98753.959340036803042
98753.863525472130277
98753.765997091017198
98753.669943190048798
98753.577959844478755
98753.490350811916869
98753.40402882861963
98753.313114377771853
98753.211417677084683
98753.09516444777546
98752.964922400715295
98752.825609586812789
98752.684269459714415
98752.546756770942011
98752.415264037626912
98752.288112298221677
98752.161359218443977
98752.031689954645117
98751.898781999072526
98751.765356851567049
98751.635048843963887
98751.509814546341659
98751.388583364663646
98751.267644171821303
98751.142667665597401
98751.010887965836446
98750.872145848494256
98750.728543054603506
98750.582871551421704
98768.62999920915172
98769.361402622293099
98770.114212100073928
98770.889071001234697
98771.686425125837559
98772.506389325237251
98773.348686890734825
98774.21281085832743
98775.09830688087095
98776.005034740228439
98776.93333337448712
98777.884079930809094
98778.858750088402303
98779.859107798358309
98780.886843085725559
98781.943425937497523
98783.028735192681779
98784.142551627897774
98785.277995056225336
98754.172731321770698
98754.083176616128185
98753.992329967964906
98753.898641770370887
98753.803547517571133
98753.710005821994855
98753.62035836224095
98753.534917156444862
98753.451081326202257
98753.363560406272882
98753.266276255308185
98753.154655096805072
98753.028339685188257
98752.891940589659498
98752.752481152157998
98752.616248045465909
98752.486360872237128
98752.361935244553024
98752.239299716020469
98752.114865135226864
98751.987353914926643
98751.857846907310886
98751.728345010022167
98751.600153945371858
98751.472778119350551
98751.344277801734279
98751.21239358803723
98751.075742052518763
98750.93441552130389
98750.789651924671489
98772.587785532494308
98773.373510648511001
98774.18062464275863
98775.009074751287699
98775.858589371680864
98776.728763789971708
98777.619192309532082
98778.529620838191477
98779.460101445001783
98780.411131508575636
98781.383640967877
98782.378891262065736
98783.398277067331946
98784.44304047471087
98785.514272116255597
98786.611538780882256
98787.734835514303995
98788.877795541062369
98754.116425466083456
98754.028037569049047
98753.936760974975186
98753.843010857832269
98753.748349541565403
98753.654633338199346
98753.562764525893726
98753.471800162107684
98753.378887316619512
98753.279930025310023
98753.171648281771922
98753.053383886872325
98752.927543402489391
98752.798562269847025
98752.670829038674128
98752.546628013195004
98752.425723719105008
98752.305905826724484
98752.184454218600877
98752.059458500210894
98751.930385509709595
98751.797982928866986
98751.663481357230921
98751.527807681457489
98751.391059904752183
98751.252953656934551
98751.11325223595486
98750.971471702840063
98775.785548749990994
98776.6003318282892
98777.435200724154129
98778.289938686561072
98779.164251884911209
98780.057842441732646
98780.970546337324777
98781.902425440843217
98782.853789681888884
98783.825200915933237
98784.817408846443868
98785.831338764430257
98786.867887129687006
98787.927684368420159
98789.011328985317959
98790.11801773760817
98791.247781377227511
98792.39455337250547
98754.076506040757522
98753.987721756333485
98753.894772925137659
98753.797572976298397
98753.697426202372299
98753.595785341793089
98753.493615451603546
98753.391124108893564
98753.287797371100169
98753.182580266540754
98753.074112924761721
98752.961431685296702
98752.844613918161485
98752.72462313467986
98752.602797041923623
98752.48000107354892
98752.356122316559777
98752.230166218883824
98752.100794494530419
98751.967178101302125
98751.829548956244253
98751.689163724440732
98751.547542107509798
98751.40606848897005
98751.265580996652716
98751.125709567029844
98750.98461168682843
98779.792966080232873
98780.652205237696762
98781.529427580084302
98782.424318802746711
98783.336867577236262
98784.267376749601681
98785.216360643491498
98786.184478728551767
98787.172416668196092
98788.180763164855307
98789.209958236519014
98790.260248345686705
98791.33161989787186
98792.424175865773577
98793.536819143933826
98794.669731462898199
98795.817532961722463
98754.203367706926656
98754.117141171722324
98754.02890718296112
98753.934992466980475
98753.833494265345507
98753.724852036248194
98753.611250502435723
98753.495967901864788
98753.38271888338204
98753.274214303484769
98753.171024184368434
98753.071433500168496
98752.972063752356917
98752.868959603016265
98752.759265599088394
98752.642043681422365
98752.517873338540085
98752.38797422904463
98752.25347326839983
98752.115242593281437
98751.974010211692075
98751.83055747988692
98751.685906136670383
98751.541434423430474
98751.398207140431623
98751.256195929847308
98751.114021508270525
98783.797910076667904
98784.694937729393132
98785.608428886844194
98786.538637073506834
98787.486052542706602
98788.451292859885143
98789.434967688997858
98790.43759856831457
98791.459504649203154
98792.500785470037954
98793.561288834855077
98794.640558732033242
98795.738329714527936
98796.853357115352992
98797.985941029241076
98799.131438714044634
98754.252812450286001
98754.16450241523853
98754.073215511787566
98753.975264543871162
98753.86872877816495
98753.753872689558193
98753.633064163659583
98753.510214726207778
98753.390147416241234
98753.276979260277585
98753.172335851093521
98753.074777294925298
98752.980122916429536
98752.882807629270246
98752.77786753361579
98752.662469596005394
98752.536069724548724
98752.399910671490943
98752.256327673923806
98752.108108479136718
98751.957876609245432
98751.807829702374875
98751.659687922496232
98751.514088919444475
98751.370317477718345
98751.226676701626275
98751.081139218091266
98750.931906393569079
98787.317745115462458
98788.245047920252546
98789.189025731800939
98790.15009767767333
98791.128654282496427
98792.1249932043429
98793.139242804783862
98794.171285190968774
98795.220819071968435
98796.287383716029581
98797.370422702486394
98798.46976845995232
98799.584473059177981
98800.715149273339193
98801.858032555595855
98754.195803750160849
98754.100492789046257
98753.997989738520118
98753.886596853946685
98753.766913567174925
98753.641640774949337
98753.514945578514016
98753.391525831233594
98753.275244359974749
98753.167762526587467
98753.067826546306605
98752.971771464406629
98752.874559784235316
98752.770903433192871
98752.65667689210386
98752.529947307819384
98752.3912761160027
98752.243205888502416
98752.089373451148276
98751.933769036579179
98751.779699613587582
98751.629019364074338
98751.481732397151063
98751.336033423693152
98751.189281969607691
98751.039166494316305
98750.884626128390664
98790.325468017850653
98791.279710521048401
98792.251106773881475
98793.239828108547954
98794.245785916224122
98795.268624142961926
98796.307808083423879
98797.362751657186891
98798.432918611608329
98799.517843086679932
98800.617504129259032
98801.731306931105792
98802.860140484932344
98804.000861070264364
98754.131113341267337
98754.023207437086967
98753.90777609271754
98753.785613006286439
98753.659003027787548
98753.531285724209738
98753.406015499946079
98753.286140105105005
98753.173096895523486
98753.066397140952176
98752.963541092016385
98752.860888442199212
98752.754137000942137
98752.638801565000904
98752.511588483277592
98752.371835153608117
98752.221645052894019
98752.064887814762187
98751.9060203502886
98751.748791117744986
98751.595115954158246
98751.44453169357439
98751.2948143491667
98751.143235054943943
98750.987978526216466
98750.828856941036065
98793.149235759003204
98794.129547727483441
98795.126866658159997
98796.140744744116091
98797.17047767501208
98798.215238257573219
98799.27426601111074
98800.347007743781433
98801.433150236465735
98802.532947609273833
98803.646163882862311
98804.773848275828641
98805.913309905809001
98754.041710471719853
98753.92271326444461
98753.798661558801541
98753.671425577515038
98753.543481301763677
98753.416991412494099
98753.293365171892219
98753.173384909183369
98753.057389253095607
98752.944852258253377
98752.833876225093263
98752.721269443034544
98752.602722332288977
98752.474334377853666
98752.334544987708796
98752.184527812991291
98752.027528709775652
98751.867744128234335
98751.708730555677903
98751.552035411179531
98751.396942198261968
98751.241600702458527
98751.084270998951979
98750.924239406405832
98750.762074951489922
98795.806090861646226
98796.810457346102339
98797.830604733346263
98798.865545736596687
98799.914313245928497
98800.976154409479932
98802.050658017717069
98803.137750971829519
98804.237897267244989
98805.351117967191385
98806.478511217617779
98807.617719735877472
98753.943357218144229
98753.818143931450322
98753.690686331232428
98753.562300215024152
98753.433966793236323
98753.305900241073687
98753.178312628049753
98753.052059435591218
98752.928080006837263
98752.806391620993963
98752.685238525926252
98752.561175314709544
98752.43025519431103
98752.290133559537935
98752.141040504488046
98751.985243326140335
98751.825896010675933
98751.665675105832634
98751.505875717528397
98751.346169456810458
98751.185454974125605
98751.022998902626568
98750.859096324857092
98750.694715639649075
98753.836754002142698
98753.708238812410855
98753.577440913111786
98753.444681367327576
98753.310043766265153
98753.173863554213312
98753.03723247416201
98752.90180383058032
98752.768835029026377
98752.637948867617524
98752.506928847360541
98752.372382175220991
98752.231649443972856
98752.083945614373079
98751.9303149090847
98751.77247052094026
98751.611927747144364
98751.449522541006445
98751.285466369983624
98751.119770285120467
98750.952904300924274
98750.7859131382138
98750.619835365592735
98753.597989346191753
98753.457842825635453
98753.3139055386564
98753.167203215372865
98753.019605158362538
98752.873432903958019
98752.730343866744079
98752.59059781373071
98752.452730123797664
98752.314067931569298
98752.172065621503862
98752.025158386561088
98751.872910626538214
98751.715641737639089
98751.553876115387538
98751.388432193984045
98751.220301717272378
98751.050597265770193
98750.880799936770927
98750.712243306741584
98750.545384926910629
98752.993106825684663
98752.837407598868595
98752.685255023068748
98752.537218070210656
98752.392484861338744
98752.249265990729327
98752.105268051571329
98751.958315430776565
98751.80671476192947
98751.649322486147867
98751.485839760658564
98751.317076727413223
98751.144931460876251
98750.971785193731193
98750.799912715869141
98750.630606740291114
98750.463689414333203
98752.336286749108694
98752.188471870249487
98752.041785834822804
98751.893846679464332
98751.741895576458774
98751.583365346945357
98751.417139472148847
98751.244363038800657
98751.068044708154048
98750.891829477637657
98750.718451989159803
98750.548986168199917
98750.382626988954144
98752.123786072494113
98751.973348342668032
98751.822857789302361
98751.66885169375746
98751.508006464428036
98751.338864834528067
98751.162723703484517
98750.983321000196156
98750.805094494615332
98750.631195053982083
98750.462361174373655
98750.297038718737895
98767.179754427153966
98766.997509650798747
98766.83175271388609
98766.681450794931152
98766.541600213211495
98766.403827987742261
98766.258735166164115
98766.099336659783148
98765.92383832851192
98765.735613709737663
98765.540431661589537
98765.343255984058487
98765.146205569515587
98764.948796013573883
98764.750656645279378
98764.552601342074922
98764.355422632637783
98764.158706619185978
98763.961038345049019
98763.76146582934598
98767.384400454582646
98767.191095930233132
98767.009998987792642
98766.844510030947276
98766.694377807114506
98766.555755968889571
98766.420650237632799
98766.278906532068504
98766.121974417503225
98765.946914685264346
98765.757391856197501
98765.560500256353407
98765.362268902026699
98765.164686877804343
98764.966852307625231
98764.767404628306394
98764.566426023302483
98764.364748577892897
98764.162630637962138
98763.959830167135806
98763.756516230583657
98763.553890511480859
98767.787886231511948
98767.589857126848074
98767.392356479322189
98767.200984887298546
98767.020871843080386
98766.855609646605444
98766.705594876402756
98766.567911913749413
98766.435265893596807
98766.296717210803763
98766.142129943647888
98765.96759170461155
98765.776928349674563
98765.578450128159602
98765.379235025087837
98765.181475161094568
98764.983414887232357
98764.782801849214593
98764.579192384931957
98764.373652947833762
98764.167042544067954
98763.95995683032379
98763.753441988534178
98763.549307573790429
98763.34965504729189
98763.156640724089812
98767.984930981285288
98767.791419381814194
98767.593431123255868
98767.397047117206967
98767.207229499806999
98767.027982196130324
98766.862564489987562
98766.712232565609156
98766.575302662531612
98766.444905605734675
98766.309229396531009
98766.156871226601652
98765.982950534045813
98765.791277165233623
98765.591325159897679
98765.391328279321897
98765.193665067170514
98764.995572498213733
98764.79385853454005
98764.587802215057309
98764.378472340162261
98764.167426956017152
98763.95616655399499
98763.746684883299167
98763.541079690898187
98763.341447958067874
98763.149513340118574
98762.96572587393166
98768.170616951189004
98767.986266356427222
98767.792682105238782
98767.595914647448808
98767.401515837103943
98767.213544545753393
98767.03494618566765
98766.868843242598814
98766.717805600186693
98766.581365943478886
98766.453239056907478
98766.320730618419475
98766.170778711340972
98765.997407998162089
98765.804651746075251
98765.603199352917727
98765.402273455474642
98765.204288435546914
98765.00595112972951
98764.803435251131305
98764.595473144436255
98764.383324797032401
98764.168943187978584
98763.954594057649956
98763.7429064574535
98763.536421778670046
98763.337196638080059
98763.146339105529478
98762.96372193582647
98762.788481730793137
98768.344791456038365
98768.17380540331942
98767.988360014220234
98767.79380628139188
98767.596985054318793
98767.403398154128809
98767.216204663491226
98767.03786689741537
98766.871346862753853
98766.719987330739968
98766.584219784330344
98766.457829790349933
98766.327608632578631
98766.179287183826091
98766.006072877062252
98765.812257215395221
98765.609556241135579
98765.408261900214711
98765.210998036083765
98765.013395432179095
98764.810515072240378
98764.600901419253205
98764.385955700636259
98764.16812183552247
98763.950500801147427
98763.736456545026158
98763.528854149277322
98763.329630641354015
98763.139628001736128
98762.958204596623546
98762.784243347545271
98762.617653678898932
98768.350886031606933
98768.179155031539267
98767.992625611455878
98767.797500956527074
98767.601098176586675
98767.408666902963887
98767.222677972138627
98767.044926197835593
98766.878043976743356
98766.726110671603237
98766.590678971173475
98766.465861679113004
98766.337746275501559
98766.190922441353905
98766.017884173750645
98765.823164353147149
98765.619370443411754
98765.417567045093165
98765.220242322495324
98765.022607309510931
98764.819357991291326
98764.608601094369078
98764.391723624736187
98764.171603680530097
98763.951864956281497
98763.736380988149904
98763.528283432431635
98763.329413688552449
98763.140152373991441
98762.959388549046707
98762.785887493126211
98762.619799480002257
98762.461285779107129
98779.045148552744649
98778.793832123177708
98778.561306329938816
98778.340475506061921
98778.113329785061069
98777.86445161026495
98768.354620620273636
98768.182481414114591
98767.995151002047351
98767.799263443230302
98767.602699855327955
98767.410575815491029
98767.224962379958015
98767.047229331830749
98766.879874281861703
98766.727407267186209
98766.59228299127426
98766.468623522974667
98766.341935648451908
98766.196119741071016
98766.023053809272824
98765.827490494979429
98765.622782531005214
98765.420757120344206
98765.223873166905832
98765.026764191337861
98764.82356454890396
98764.612046425259905
98764.393628901758348
98764.171552101004636
98763.949990125940531
98763.733241191584966
98763.524564649313106
98763.325686094802222
98763.136842732303194
98762.95664246508386
98762.783636552892858
98762.618192905632895
98762.460581404768163
98762.309613864694256
98779.309380807681009
98779.043019478282076
98778.792064734327141
98778.560612104061875
98778.341301752399886
98778.115246893357835
98777.866417612051009
98768.362205736339092
98768.189808035996975
98768.001964698109077
98767.80567730513576
98767.609162942928378
98767.417364383116364
98767.23215412349964
98767.054659242683556
98766.887210683053127
98766.734503287923872
98766.599730204456137
98766.476852611551294
98766.350959642397356
98766.205657751459512
98766.032471865008119
98765.836353544989834
98765.631200785006513
98765.429075437379652
98765.232285026911995
98765.035257308045402
98764.832011668782798
98764.620065084702219
98764.400885342533002
98764.177867541540763
98763.955564901043545
98763.738401000315207
98763.52953867080214
98763.330781808646861
98763.142262702720473
98762.962301720806863
98762.78943064903433
98762.624205239277217
98762.466883637564024
98762.31630196479091
98762.169908980795299
98754.732661399932113
98755.436891450124676
98756.169109060443589
98756.929604826655122
98757.71948683593655
98758.540550689882366
98759.395133847865509
98760.285769135429291
98761.214106400249875
98762.180786833458114
98763.178309412862291
98755.291738468993572
98755.178380731449579
98755.060570459259907
98754.944041026916238
98754.834105189962429
98754.732592214728356
98754.636716353532393
98754.540591059660073
98754.437784763416857
98754.324010575888678
98754.19870567318867
98754.064042017518659
98753.923302924900781
98753.779252591441036
98753.632915656606201
98753.484122447742266
98753.332894861232489
98753.18072120785655
98753.031036519110785
98752.888126761870808
98752.754752245731652
98752.630597496143309
98752.512792853682186
98752.397299228803604
98752.280828091970761
98752.162250351539114
98752.042462418088689
98751.922942626173608
98751.804547421605093
98751.68760119950457
98751.572374715426122
98751.459327630567714
98751.348467404022813
98751.238428747921716
98751.126453896213206
98751.009884763683658
98752.378283852303866
98752.852071040295414
98753.350437229615636
98753.874382992420578
98754.425020855589537
98755.003447933660937
98755.610620119536179
98756.247140734412824
98756.913105353611172
98757.608041012397734
98758.331111235063872
98759.081447406046209
98759.858556796127232
98760.66249787741981
98761.494108606653754
98762.355017534428043
98763.247468137196847
98764.174021773287677
98765.136382576078176
98766.135416488512419
98767.164226912893355
98755.29277540705516
98755.18301285081543
98755.068212099286029
98754.953490360421711
98754.844398693006951
98754.743339460226707
98754.64864048785239
98754.555396517316694
98754.457594992913073
98754.351298606256023
98754.235100458070519
98754.110801611430361
98753.98157339541649
98753.849945231268066
98753.716330386829213
98753.579361394149601
98753.437858815639629
98753.292470282671275
98753.146650068258168
98753.005709048607969
98752.873894191492582
98752.751953608923941
98752.637170142174
98752.524870030334569
98752.410568283041357
98752.291999855689937
98752.16964434242982
98752.045307563807
98751.920596712443512
98751.796668334500282
98751.674336650408804
98751.554028521321015
98751.435575954805245
98751.317698376646149
98751.198012224529521
98751.07425734156277
98755.496521455555921
98756.022539827885339
98756.572172811822384
98757.146154760077479
98757.745486558167613
98758.371258289713296
98759.024429694603896
98759.705663679036661
98760.415192561893491
98761.152767637191573
98761.917729408916784
98762.709212711910368
98763.526517527760006
98764.369471049343701
98765.238682945069741
98766.13554536672018
98767.062047778148553
98768.020591883789166
98769.012781074212398
98770.039710073295282
98771.095116444223095
98755.189527569847996
98755.079320992575958
98754.968590794422198
98754.861766202331637
98754.761589866524446
98754.667441566663911
98754.575799891114002
98754.481976319351816
98754.382219288556371
98754.275410678281332
98754.162449909257703
98754.045437117019901
98753.926131510015693
98753.804382379428716
98753.678301173378713
98753.546114621887682
98753.408099857086199
98753.267735872927005
98753.130761516149505
98753.00195194267144
98752.882529841299402
98752.769998938631034
98752.659555218677269
98752.546163450999302
98752.426731291619944
98752.301174944703234
98752.171256803674623
98752.039300844291574
98751.907373780835769
98751.776979884729371
98751.648806963305105
98751.522583246580325
98751.396984202685417
98751.269809179502772
98759.215730207346496
98759.812469993150444
98760.432113045477308
98761.075525859123445
98761.743850726808887
98762.438221425938536
98763.159468911311706
98763.907965763675747
98764.683597195573384
98765.485837865868234
98766.313900659093633
98767.167027491028421
98768.044777549934224
98768.947388480286463
98769.875930959329708
98770.832163725644932
98771.818381413933821
98772.836073487036629
98773.886471726000309
98774.963859251642134
98755.187297295196913
98755.08250307526032
98754.977584656240651
98754.87489239795832
98754.776566096450551
98754.682946987333708
98754.592159682477359
98754.501203327658004
98754.4073784310458
98754.309452746718307
98754.207350206183037
98754.102023947460111
98753.994141773902811
98753.882928214850836
98753.766419458537712
98753.643051198363537
98753.513466586417053
98753.380925527846557
98753.250537983971299
98753.1267440970405
98753.010814019144163
98752.900388920970727
98752.790787506572087
98752.676963885009172
98752.555478182955994
98752.425885080665466
98752.290040142892394
98752.150618097890401
98752.010370943957241
98751.871569561568322
98751.735470653991797
98751.601878584799124
98751.46920055540977
98751.335178669309244
98762.41934186774597
98763.058910622261465
98763.720031680393731
98764.403429551282898
98765.110187436628621
98765.841500774928136
98766.598391215549782
98767.381466518432717
98768.190803446399514
98769.025979041296523
98769.886233851662837
98770.770789181900909
98771.679133825586177
98772.611282671874505
98773.567902489216067
98774.550286370067624
98775.560404504765756
98776.599595756459166
98777.669344848618493
98778.764471347210929
98755.092223586980253
98754.994106344063766
98754.897719869913999
98754.803678689684602
98754.712072983587859
98754.622420385916485
98754.533703194363625
98754.444538076422759
98754.353898366665817
98754.261082766533946
98754.165300104446942
98754.065481229030411
98753.960278212791309
98753.848861210382893
98753.731347153254319
98753.609531337177032
98753.486676806700416
98753.366326544288313
98753.250800486726803
98753.139925725859939
98753.031137776211835
98752.920495957878302
98752.804125425085658
98752.679400407796493
98752.545879402867286
98752.405191467798431
98752.260123913743882
98752.113843745610211
98751.968921709776623
98751.826502949232236
98751.686104379303288
98751.545996192740859
98766.302650731289759
98767.00129125409876
98767.721234505894245
98768.463385644092341
98769.228731973198592
98770.018138030398404
98770.832175466202898
98771.670990166399861
98772.534335881733568
98773.421682267988217
98774.332396218960639
98775.266008631588193
98776.222497650669538
98777.202411808699253