# Forces                    
# CofR                      : (0.00000000000000000000e+00 0.00000000000000000000e+00 0.00000000000000000000e+00)
# Time                      forces(pressure viscous)	moments(pressure viscous)
0.00542                     	((3.76910069284361195797e-16 1.50810357016155903693e+04 -2.38712794665445385143e-14) (4.77162889226497521911e-01 -5.13392569401624997150e-03 -8.43209987218523221442e-07)) ((-1.28305086104951726611e-02 6.41151235506137761660e-15 9.46860035874465211236e+00) (5.92384214573641703890e-06 5.35623214665105831789e-06 -4.59033046633820634996e-02))
