/*--------------------------------*- C++ -*----------------------------------*\
  =========                 |
  \\      /  F ield         | OpenFOAM: The Open Source CFD Toolbox
   \\    /   O peration     | Website:  https://openfoam.org
    \\  /    A nd           | Version:  12
     \\/     M anipulation  |
\*---------------------------------------------------------------------------*/
FoamFile
{
    format      ascii;
    class       volScalarField;
    location    "0.0057";
    object      k;
}
// * * * * * * * * * * * * * * * * * * * * * * * * * * * * * * * * * * * * * //

dimensions      [0 2 -2 0 0 0 0];

internalField   nonuniform List<scalar> 
106891
(
0.014172819737962409625
0.01416755745925584245
0.014157257683591000993
0.014152366515245512479
0.014142026222943082647
0.014136862711571602028
0.014125548504225371449
0.014119553751615682852
0.014107228782764271238
0.014100848329845067086
0.014085001668478040054
0.018392378601957914963
0.018490702984874707315
0.018606282311936533924
0.018738356186495660344
0.018883714903923286277
0.019037352147108551476
0.019194141352825946911
0.019347736518564820352
0.019491825455262935807
0.019622025916320159911
0.019733948813840638398
0.019825958129014671638
0.019897948279354437523
0.01995048526386842408
0.019985478169097573714
0.020006389219430910364
0.020016596711716769935
0.020020779169264788649
0.020021529557433390828
0.020020659178989597127
0.020018669352288118168
0.020016216286886268083
0.02001302635743072017
0.020005909337060815562
0.019983837554334322323
0.019943501651222089038
0.01990201748671335813
0.019864148740357693429
0.019826622181736783951
0.019793081064193786267
0.019760534121933407553
0.019731755799261403717
0.019702676844586455157
0.019677357879716892569
0.019652568018338787553
0.019632577270549404075
0.019613443986615766018
0.019597936347338449498
0.014993645541100070889
0.01497883446555596694
0.014969786415067872984
0.014955018765220557536
0.014946016872135960141
0.014931795896599740076
0.014923177568222903769
0.014909578655157402008
0.014902134925970929313
0.01488938392087163845
0.014883247075052924435
0.014871274078708245081
0.014865527205306681285
0.014853487853293561097
0.014847285235320422866
0.014834164581764735721
0.014827239216063421365
0.01481317724369156201
0.014805872820511847138
0.01478747657234917405
0.019460904468769038567
0.019588812857213182966
0.019733314520092429256
0.019891020848064273896
0.020056557756967737655
0.020224785491654143077
0.020388662119430044084
0.020541660952123067668
0.020679209534683579141
0.020797259832055159379
0.020894445507457764383
0.02097102137998380772
0.021027452021520759429
0.02106556574466942125
0.021089229412114291612
0.021101373098469280998
0.021106647208773591379
0.021107832445839150304
0.021107084862727058111
0.021104787300586239779
0.021101496219981936281
0.02109634713600985409
0.021083707207946052881
0.021049363652532269292
0.021001617243362906418
0.020958024068448509458
0.0209147722089497827
0.020875783744945766718
0.020837994850196654706
0.020804880108540597938
0.020771980415065369879
0.020742878690088225463
0.020713678659219737083
0.02068907841442867851
0.020665874241292542246
0.020647235866698140233
0.015759383650140686151
0.015743071786419014085
0.015733285822290003081
0.015716854379180453249
0.015707023774893653228
0.015690934166694651269
0.015681273058470581588
0.015665703205707436768
0.015657151761393726941
0.015642392199892843352
0.015635167293451972953
0.015621229512893537034
0.015614408967737119366
0.015600450775748307686
0.015593280539654089806
0.015578383105528328598
0.01557042934159869399
0.015554679667346010125
0.015546506956597972576
0.015525794315745270954
0.020523816469607776558
0.020648019963654548614
0.020788389201612380436
0.02094138993824575315
0.021101880081804826744
0.021264111289039829
0.021421823042128067954
0.021570838457633568358
0.021706904974820733639
0.021826857844776541978
0.021930899016884674441
0.022018776610544500694
0.022091240320638791395
0.022149689154966973464
0.02219451729590344799
0.022226181930124384867
0.022246533204388220517
0.022258774496718009006
0.02226428764551828185
0.022265993995636168545
0.022265964994055375409
0.022264584525864574566
0.022261395658108595191
0.02225092548065593645
0.022214631241006588258
0.022157238648281611659
0.022100697022176530454
0.022049476220630814111
0.022000531330845733008
0.021957589447049487286
0.021916030855304562824
0.021879760808760664176
0.021844220542927769713
0.021814482189805181611
0.021786327987972305825
0.021763573153015521727
0.016546094572566064779
0.016535713069065829939
0.016517659927302762862
0.01650695671534228165
0.016488994291115815355
0.016478397180866057037
0.016460733504757428525
0.016450856678623830553
0.016433924250378224158
0.016425436795844274018
0.016409395528948163279
0.016401331385951151143
0.016385363386722012063
0.016377230230893550372
0.01636048368575203707
0.016351478461806540077
0.016333940075524969876
0.016324850512272812836
0.016301835895560341794
0.021660471627093620672
0.021820543581625294338
0.022002165291261369801
0.022199785309774681258
0.02240578168674285664
0.022611821743795737505
0.022808824346476321704
0.022989902519529144959
0.023148568131244121049
0.0232817064875832265
0.023389172542601768812
0.023470736312188662798
0.023527893862993219665
0.023564022312277600052
0.02358454421059728856
0.023593384218151755571
0.023595714604456419217
0.023595159132756747533
0.023593221771543704951
0.023589455237745741989
0.02358031020615600909
0.023553343979579786233
0.02348891660815579166
0.023420904606090271055
0.023352892066043098168
0.023290268319730033503
0.023229947263446334982
0.023176532572213554007
0.023125439066102638358
0.023081312874266839141
0.023038736079435639253
0.023002507749525068909
0.022967600775393490209
0.022938946314447969388
0.017408691324181411325
0.017389588119382945464
0.017378627965705797237
0.0173590199341923275
0.017347602628176979345
0.017327697194456773144
0.017316067232613970711
0.017296313394268340857
0.017285237223472010165
0.017266067000955769711
0.017256212398920878909
0.017237790608102435824
0.017228426625051380255
0.017210182658482574974
0.017200831437593100404
0.017181938109253398761
0.017171890200985358982
0.017152368945575466319
0.017142270970134629998
0.017116806469337098734
0.022789391564163093834
0.02294768259151130918
0.023125445381088058361
0.023316737269970702617
0.02351544451152601245
0.023713317643770284726
0.023903763708650310055
0.02407961332513303479
0.024238323383252546872
0.024377083258629052981
0.024494153296213055232
0.024590036220268219475
0.024664847459463699886
0.024718748510998631018
0.024754169609305161359
0.024774412083676297658
0.024784706453964393952
0.024788301233273687257
0.024789427825125429083
0.024789706153284275791
0.024788482792524216963
0.024780781694818933281
0.024752674214589261842
0.024685648878598333983
0.024617068890939945713
0.024549299503633582875
0.02448865923249032156
0.024429648954618368717
0.024378153762073376254
0.02432786165658834196
0.02428486420529623116
0.024242684676923687698
0.024207422029232351923
0.018276256828220170669
0.018264539486025556381
0.018243289492047121136
0.018231107142503165386
0.018209506116779811818
0.018197026006996030317
0.018175157563765677315
0.018162805114129945694
0.018141202033510769182
0.018129851792471767674
0.018108804453517979294
0.018097951196725810263
0.018077220218544996083
0.018066479117808453836
0.018045192135367926767
0.018034012453265468867
0.0180122237382968238
0.01800100662763035389
0.017972919718224612123
0.024125277033072160121
0.024303692215772804142
0.024494646292500081575
0.024692129839159315113
0.024889833813185248401
0.025080499080521914679
0.025259731353714669211
0.025422590634187062358
0.025567867979076858848
0.025693546420991100754
0.025798611097287670046
0.025882359347710215403
0.025944824411590152596
0.025988136982971102307
0.02601449240042490868
0.026029174869829654893
0.026036297557671620601
0.02604014251162671198
0.026042931148300411948
0.026043856123958982612
0.026040510931449888793
0.026024356052674429279
0.025973378331457321749
0.025904593702290597268
0.025836935680929658254
0.025776084330613749374
0.025717062436411544657
0.025664844807033720259
0.02561389277843044085
0.025569899665489351226
0.025527004720535772381
0.025490549950704648186
0.019208755298368261621
0.019196307935848751919
0.019173525830360797773
0.019160574166392569523
0.019137231706986928409
0.019123799851145439205
0.019099846919313479693
0.019086444037000941526
0.019062364966930665788
0.019049471669489025094
0.019025642942300014654
0.019013164071939942651
0.018989692692883978348
0.018977389183605850032
0.018953767037346483382
0.018941289496538477044
0.018916985937767607368
0.018904589104116839571
0.018874157948708135402
0.0255805760538659957
0.025769822347016631964
0.025965404848158638029
0.026162185134218331889
0.026353996823255013832
0.026536006606108792499
0.026706723501725728592
0.02686186398923853802
0.027001586196613688168
0.027123978815247001828
0.027227361994035987475
0.027311148764241937464
0.027374853057817755131
0.027420764482257383582
0.027450506466275014644
0.027468852024012491847
0.027479508829227727862
0.027485385311195733443
0.027488519693777066499
0.027488004675151337525
0.027479514745372829454
0.027449440489427896078
0.027374914277761078218
0.0272982651165156881
0.027223879105256958838
0.027158396377893016804
0.027094524913577246877
0.027039152405135682272
0.026984818016604419921
0.026938826037594225393
0.020179977389302321267
0.020155536800117120066
0.020141650168806323612
0.020116660066500143683
0.020102324834290006411
0.02007645231909636202
0.020061900714473175633
0.020035366123354100137
0.020020931154439643856
0.01999441743850645381
0.019980240443770991982
0.019954200780338746807
0.019940451710568723315
0.019914901561853499967
0.019901423559904943272
0.019875011065946364408
0.019861694994767493255
0.019830394061531690653
0.026985491869225615436
0.027186549542084416375
0.027395227074470649559
0.027604982755707104664
0.02780975524522218828
0.028005734526891947617
0.028186569854871185853
0.028349892535236155544
0.028493421830158696673
0.028615169732156327947
0.028714682173944103966
0.028791765393843586629
0.02884852828827434712
0.028886432554674087991
0.028909283947361166106
0.028922655300074675416
0.028928353546432927085
0.02893065410893224873
0.028929949390328914965
0.028923024232581300008
0.02889892736968523515
0.028836436422562280318
0.028761267538875517208
0.02869338544590480794
0.02862738184824701812
0.028569265198125717159
0.028512555842223001601
0.028463031022455266561
0.02126625735301909334
0.021241577923355896285
0.021227096568181825359
0.0212019149584276069
0.021186967915385563482
0.021160648790707680539
0.021145237479154525839
0.021117970895636058171
0.021102567751967348658
0.021075016227948595998
0.0210597894527191562
0.021033043494200640011
0.021018714670973451253
0.020992551194899431583
0.020978888191567061916
0.020952224166988629717
0.020938913996936564521
0.020909985746819105545
0.028601163496446781881
0.028813226216770012472
0.029025646682248905373
0.029230679141489707834
0.029423732618284962476
0.029598868838600266018
0.029752822641243927698
0.029885165590016301435
0.02999614694665998435
0.030086383677798561598
0.030157084829640364021
0.030210009986956547212
0.030245705551801487648
0.030267012885592779053
0.030277679717390176828
0.030281141420428470817
0.030280536681522932096
0.030277961238585174991
0.030271421283882982839
0.030251587656933073833
0.030198215196032052177
0.030131063287169738973
0.030068908678808937973
0.030007951460543656752
0.029954496430226344728
0.029903635051308597587
0.029860111705753051431
0.022190599053245132349
0.022161216279024932574
0.022137038331249123124
0.022106489800879827734
0.022081567867479591494
0.022049491998751290928
0.022023852395748326483
0.021991927779750088806
0.021965902658037605999
0.021934912314128595517
0.02190994456603444912
0.021879538911238931992
0.021856320364239033294
0.021826450995397359001
0.021803557317617787426
0.02177400267455003105
0.021750270098716110306
0.029051045040012581089
0.029259699557206069603
0.02947079326506255037
0.029675997181698991756
0.029868474492155690225
0.030042470878034667481
0.030193197298015572033
0.030318329513327652719
0.030419644551247404518
0.030498458368190244777
0.030559012008761675394
0.030603801257604475866
0.030634858812886335555
0.030653351962832316169
0.030661618312344224996
0.030663305046800988507
0.030660296816738877995
0.030654673319629347633
0.030648254296730279012
0.030636241929909997783
0.030603803252090919923
0.030542702361545017581
0.030484071245799243544
0.030424388332502990545
0.030371491813463526166
0.030320620073247702558
0.030279514543368930141
0.022210217189293359613
0.022185180485412937801
0.022138074746096941814
0.02211194208083494539
0.022064346123861842963
0.022037862362914550918
0.021989648075791561055
0.021963884768452707208
0.021916311589858621101
0.021891544362843694954
0.021844842521703503047
0.021821453426592477692
0.021776089668653814818
0.021753345352888420194
0.021696195470258711896
0.021704766113192656973
0.023513974295475789655
0.023708855036114844655
0.023901197657408789626
0.024081764554857679195
0.024244716277919683284
0.024387120572695906301
0.024507289190306733723
0.024604811319527554458
0.024681260918698429835
0.024738113601369102895
0.024779682055532489121
0.024809210844840137028
0.024828676157500312316
0.02483935585295098461
0.024843514726373805424
0.02484369539989796441
0.024839990815803736357
0.024834337391445207577
0.02482624955496844435
0.024809506515602004068
0.024768645488214259542
0.02472034027969310585
0.024673548163052130833
0.024630774286708855686
0.024590749691963890988
0.024556581512632954384
0.024526094373431499285
0.024501678129925926614
0.017709714700493164874
0.017671438309352652252
0.017650492086302507072
0.017611705340972904493
0.017590516202111852045
0.017551726369799770799
0.017531204343587739741
0.017492943446413829894
0.017473253347672752789
0.017435761587459252392
0.017417000225147746123
0.017380190640690750675
0.017361760526893064288
0.017315397049354128156
0.017331206229835950661
0.022173555384618383324
0.022366680248409237519
0.022552921487839362735
0.02272514030405292651
0.022877176496485004953
0.023006616693572835147
0.023109820205998918979
0.023187667818440234335
0.023243299370320307656
0.02328007831587867657
0.023301626636858925601
0.023312383813526214166
0.023316692411535264173
0.023317578971615585126
0.023315232162838796237
0.023309376278018687639
0.023297353195016762967
0.023268001956796090235
0.023205365187235080238
0.023137654539839139223
0.023074316847575090939
0.023014660370230526076
0.022961670394781551197
0.022912966748572974329
0.022871041783250865148
0.022832902742915821281
0.022801107559437653466
0.016681313040553039789
0.016663879361791297806
0.016632405425694423567
0.016615243619899036642
0.016584147465023190565
0.016567649097299373684
0.016536948739930962954
0.016520910159049821686
0.016490580041753119533
0.016475468712211560618
0.016445779702804586009
0.016431050491258980539
0.016395498411805174699
0.016393172677886161392
0.021491392479964482876
0.021650946295214076182
0.021798258947354782339
0.021929147393117812137
0.02204153062676927205
0.02213506603131849132
0.022208754647693885326
0.022263722466636617914
0.022303066195468981142
0.022328937811402625735
0.022343966145815494923
0.022351549136724182393
0.022354496295569348252
0.022354935120993721376
0.022353944554746173201
0.022350831883655497556
0.022343792242461125302
0.022325226007362617558
0.022275539583813893513
0.022217820363152038926
0.022162519213922048794
0.022114417727261821006
0.02206908733381122284
0.022030269094348974707
0.021992961888377536572
0.021961840954093644201
0.016072716590021945277
0.016043175963467336959
0.016027037482905924504
0.015997828272823238355
0.01598219372286708781
0.01595305082870484073
0.015937758362979011217
0.015908727447472740396
0.015894031930790784163
0.015865426540605263861
0.01585124098866087447
0.015818272701936676727
0.015813661754586001013
0.020814419607213183183
0.020962926935652950733
0.021096765730625764712
0.021213717963763721597
0.021311842964580874488
0.021389993268939325177
0.021448411974799297397
0.021489988385838668106
0.021516237585115907671
0.021530755218401691209
0.021537831176443963943
0.021540752227767016869
0.021541296103838803583
0.021540905430908800777
0.021538544236108923824
0.021530393466994712098
0.021505080844348961611
0.021447940701369436894
0.021389734507765788274
0.021335082527857204132
0.021286673447038603063
0.021242818083859041356
0.021204049609030221207
0.021167876646874354829
0.021136152391050083005
0.015433683634526955408
0.015418139846505196644
0.015390193155723045498
0.015374974120453974505
0.015346883454567993021
0.015331927495496234723
0.015303571096003306187
0.015288926829562997714
0.015260976755257763329
0.01524703840327785824
0.015214821752409953687
0.015210387014903323927
0.020313095456177154841
0.020443838364638367011
0.020554552038403759578
0.020643544424528655068
0.02071035725224171925
0.020756717848102339274
0.020784613415045453261
0.020798660933899947023
0.020804066470739100009
0.020805122373413854203
0.020804653198697137945
0.020803856905445432951
0.020802093051552904973
0.020796758098446381513
0.020780162060791446121
0.020734650278679218893
0.02067358279041636368
0.020614943984388820614
0.020558519721252117851
0.020508525414624459438
0.020462560499011184234
0.020422321278538189265
0.020384681337838342352
0.020352151645492009419
0.019620672337209314751
0.019721379523360706154
0.019803869886708416748
0.019867545586097993399
0.019913936907431043638
0.019945079461588997166
0.019963374413556934234
0.019972873411128726912
0.019976777977238492634
0.019978231331639697416
0.019978854271350144495
0.019978690803132567733
0.019977312652880378774
0.019970548187756370639
0.019946382986220544814
0.019891122200101984258
0.019834545186173304504
0.019779641445014411322
0.019730549495159597356
0.019685584533601380858
0.019646548669770082934
0.019610564984999218074
0.019579763816360114953
0.019058326727897801495
0.019131401549712972326
0.019187839274096084308
0.019229413100064034203
0.019257215529940953369
0.019273647642964637783
0.019281893643525151172
0.019285534727777751268
0.019287184480234191575
0.019287643894971319425
0.019286899411270326532
0.019282569421306371138
0.019265100066121657041
0.019213583132257915781
0.019150029237182644021
0.01908826124633134988
0.019032296413519118883
0.018980797809849164065
0.018935950632138546373
0.018895233998320815766
0.018860783341136305724
0.018436408710156247659
0.018454519569792160461
0.018464713497303785611
0.018469676149615081584
0.018472164087858150561
0.018473351339968455131
0.01847369632750280391
0.018472696675270228878
0.018466477221315655277
0.018440640839540847762
0.01838894029150347012
0.018335964248379514607
0.018287166500670810898
0.018241531795662940113
0.018201441103809744282
0.018164848166876475244
0.01813385920851033617
0.017873992824529057882
0.017873029397998799195
0.017870385540292150345
0.017861540517833042474
0.017831867837176485631
0.017776620102026928494
0.017722327012025085313
0.017668865611705688451
0.017620046647405376156
0.017574532796733145085
0.017534652412135205701
0.017498527751428533811
0.017468061468118301072
0.017044987553431596716
0.017044458242178549962
0.017043764380480306425
0.017040659457546299127
0.017026547314145441814
0.016993363605108859765
0.016955974882084792754
0.016920285238650693144
0.016885423651092020675
0.016853907157311078663
0.016824491075865571216
0.01679936198815472348
0.0099032510860892902782
0.0099042486691277541178
0.0098443747116840236988
0.0095731205462264417488
0.0092012072782149227634
0.008986710084399048698
0.0088999526791966338674
0.0088874029595362273592
0.008904098892805852733
0.0090034686188124948836
0.0093797302852061618245
0.0099397296209176866366
0.010357628003838586367
0.010627037246575696261
0.010770725180562525092
0.010824317169562357177
0.01083007279360474924
0.010820176480451878728
0.010770270171375622217
0.010597470469348233349
0.019624684944599252862
0.019814997066498866302
0.019808365014943127985
0.019647480304129525536
0.018945672904798701447
0.017932644445035634401
0.017302036539483884453
0.017006536899193253759
0.016920890361907778981
0.016923545919018505301
0.016987706617829594763
0.017269693111294320137
0.017675489435212604628
0.017927663237178433076
0.018048306899046719087
0.018079046397194008244
0.018074614480815844736
0.018047431328296052733
0.017955996354348923577
0.017800493841580694587
0.017681049813776668345
0.017602487415531140741
0.05261428292811248103
0.05370833162607509953
0.05404396224045654451
0.05402291268388709905
0.053756288243571523355
0.052632488668200513859
0.050490929876513740426
0.048986650901700977412
0.048205650110899965488
0.04793848008876447353
0.047934464515422305075
0.048008497569956350148
0.048338595296245838451
0.048878721322759784151
0.049211227555112153909
0.049317283513328716293
0.049310217994880230219
0.049240590585182257566
0.049059728364855607896
0.0485850931398763633
0.047906909542091882792
0.047338771136355567437
0.046897521969547141529
0.046557289481537075804
0.046291172009338764359
0.046053216921377773674
0.26509218916121607412
0.26605390709085474654
0.26592078433029803231
0.26457877228728038377
0.25961617880694659588
0.25343469434068965906
0.24973371297685070802
0.24823271353067413725
0.24824469545710478591
0.24870503465086832295
0.25026483197801002722
0.2538949149958368845
0.25677608114934080685
0.2582970623725711623
0.25862912043562796827
0.25855783860298348076
0.25804814491742189553
0.25634405776621660422
0.25365307455195756914
0.25135134090138061547
0.24956680318448370981
0.24828055072208188303
0.24743603444732911734
0.2469382987557109943
0.24661419127475242563
0.246365660372203088
0.24610353594664247101
0.24574419806588995718
1.4379687491055253012
1.4377864422171506842
1.4349625719732661544
1.4239110833005506063
1.408812165877563638
1.3974570358140523396
1.3907623792832881637
1.3880430702489134909
1.3881420905094896678
1.3894616346114647687
1.3936979788162835447
1.3982469960054788594
1.400399124796702699
1.4007463729365214888
1.4003150902211249917
1.3982389221000863788
1.3924272246268316611
1.3855036226766483942
1.3790755047146003864
1.3732343553096633126
1.3681092794670310919
1.3638415004926345286
1.3603252176192868195
1.3574792164451032761
1.3551118969352489163
1.3530481702651662168
1.3511323386820477399
1.3493601856760590874
1.3479433599878996031
1.3468869062136519243
3.9086028688455263236
3.891503199424539261
3.8746732282678748582
3.8591872933707995763
3.8459861749462422864
3.8356239986199951453
3.8279194425636733357
3.8219580219523017206
3.8163832932256918085
3.8100106032552329971
3.802099699018377521
3.792503477019963487
3.7816844950799559655
3.7703156228647380921
3.7589504133148561316
3.7478967081842826659
3.7373589213419862176
3.7275530663689946387
3.7185499031232005507
3.7102237749294602054
3.7022980230389066492
3.6945899709531304644
3.6869888902311571677
3.6794518581298829574
3.6719395858525620824
3.6644220728169907275
3.6568187157307621149
3.6492206992164706314
3.6416248782761071467
3.634178405924312294
3.626827968188743867
3.6195382833950282553
6.2466836147145503588
6.2296764419591204032
6.2133325904700358322
6.1974572216854904028
6.1820737468028541528
6.1673707451572692406
6.1533863750867512366
6.1398605708054452279
6.1262543846073391762
6.1121668149963657157
6.0978180949199582983
6.0837491630182629621
6.0704794365626417729
6.0581057217817475546
6.0462164711456294341
6.0343266882674209128
6.0222750091675720796
6.0102417512494614726
5.998443778063621501
5.9869445400028125093
5.9756451463402502355
5.9644893009735620026
5.9534581843271485724
5.9425549847918457402
5.9317542869625752289
5.9210673934809392449
5.9104752177609034547
5.9000822066154725576
5.889845821044382923
5.8798230292275128761
5.869840670868723187
5.8599427995152169046
5.8499014667499222853
10.152656112660681131
10.054947409112951817
9.9613651862476029208
9.8722545288981518041
9.7883008480413096208
9.708948637727431219
7.8983294465982742949
7.8828508806378545515
7.8673489284422695178
7.8517031857115791027
7.8362107793894910657
7.8213165017997363648
7.8070638887791474758
7.7928551687281961691
7.7778838836765791243
7.7618485223905517856
7.745339447889766582
7.7294905938356484043
7.7152173875317950902
7.7024088683166063163
7.6901031578427749835
7.6774320570715719469
7.6642249856310415979
7.6508682240462082547
7.6377884281355079565
7.6251160457223923217
7.6127125346898081304
7.6003063598216460406
7.5876939518462167555
7.5748316156839203828
7.561773958830717568
7.5486634122353839516
7.5357109211514821112
7.5230528375617673476
7.5107215200382055897
7.4986026391204569919
7.4866182390032900429
7.4746027415962679186
7.4625538209229702602
7.4501666814287306195
9.4751819220580166814
9.4007666507155942526
9.3294474572746839414
9.2609657515257328697
9.1964933613535606582
9.1366559402774427667
9.0802644631157143351
7.7314562542381555232
7.7103953415200834343
7.6888073857127210431
7.6673008751463491706
7.6466788123286404399
7.6270767432328758773
7.6077368898046833223
7.587855858313643509
7.5677917761066373359
7.549270777178112013
7.5342604529174685979
7.5235463196172380762
7.5158043229164430699
7.5085397337141497331
7.4996464813789964765
7.4887692257484497205
7.4770538166114564049
7.4657499584968656237
7.4552092044907176671
7.444975412697055539
7.4343994824468664362
7.4231836716587142888
7.4114789108028533704
7.3997306751912601541
7.3883485274973557111
7.3775758825300155053
7.3673846848696600276
7.3574984223247392734
7.3474570820263647164
7.3367937846104789301
7.3252217473389062974
7.312646294148055226
7.2991572730380092082
7.2849762926148722286
7.2705214882603623749
1.1650062728756369889e-06
1.1694181421915691358e-06
1.1748384591389523921e-06
1.1830664860071133067e-06
1.1896271096642267075e-06
1.2005245676512315962e-06
1.2059463827241272759e-06
1.2170729607122538282e-06
1.2238260784112626413e-06
1.2301340815365741417e-06
1.2422181589848405001e-06
6.5178740187309195915e-05
6.4797162117830143049e-05
6.4448174892386424738e-05
6.4134990203388935696e-05
6.3857739554520253017e-05
6.3625418102967085153e-05
6.3438170702526195527e-05
6.3289218719510164832e-05
6.3175164693359472392e-05
6.309348781705519701e-05
6.3040662517700686487e-05
6.3010602972200701537e-05
6.2986485544600900443e-05
6.2941229827780510817e-05
6.2841709083721593396e-05
6.259497423198514144e-05
6.1911622878635277738e-05
5.9856641664210220876e-05
5.4819964619446932656e-05
4.9159913669442785184e-05
4.366294950850889699e-05
3.8432102448262039408e-05
3.355025882120547077e-05
2.9076290275505002055e-05
2.5040226425422076537e-05
2.1453023918460774902e-05
1.8303046536507151836e-05
1.5569080398121339993e-05
1.3217876585301970829e-05
1.1219565218550723825e-05
9.5361306139086165178e-06
8.1372839125627933408e-06
6.9811330943332828395e-06
6.0405947711742397695e-06
5.2749282668429899889e-06
4.6665031163422792353e-06
1.1743557136444839722e-06
1.1784321643009942295e-06
1.1832363325667142042e-06
1.1871025862216842911e-06
1.1938803214251806755e-06
1.1989022232003177724e-06
1.2044496998215561372e-06
1.2076415359662683881e-06
1.2114591293738581483e-06
1.2140003336658303472e-06
1.2181536451435349471e-06
1.2241825002152754455e-06
1.2291271050227459869e-06
1.2391704887272908853e-06
1.2467261902740253135e-06
1.2577310527950497193e-06
1.2640119513418344766e-06
1.2752843214006256988e-06
1.2829237793528487262e-06
1.2890030917337011606e-06
1.2984591275397833968e-06
6.5467748721200668066e-05
6.5309458752617566496e-05
6.5213031965591632556e-05
6.5170206870048436347e-05
6.5160974400684751958e-05
6.5166964845040809971e-05
6.5210800040134259928e-05
6.5385551632508563951e-05
6.5635552335259686875e-05
6.5813088803064783892e-05
6.5915822339192138243e-05
6.5964484533806530975e-05
6.5982541854648911234e-05
6.5983256720901720268e-05
6.5958131154043430494e-05
6.5835628469201480499e-05
6.5404597340816593778e-05
6.3996889534648836542e-05
5.9650828505776950519e-05
5.3138127594157860125e-05
4.6906445836036337064e-05
4.1062929678105150448e-05
3.5670885460860526494e-05
3.0775875593171124641e-05
2.63962061217746602e-05
2.2533221045014970138e-05
1.9164659548668103043e-05
1.6257222442435900788e-05
1.3766191528645728141e-05
1.1654083667478228116e-05
9.8795207236374337135e-06
8.410779456635739755e-06
7.2054010379273265125e-06
6.2329504476967504607e-06
5.4483927367094639086e-06
4.8291363439463868133e-06
1.2317867740390961736e-06
1.2366530880293391344e-06
1.2414898013443229704e-06
1.2455478486992018835e-06
1.2514114933547002048e-06
1.2557544349914562955e-06
1.2614366045117757327e-06
1.2650638875280883474e-06
1.269031810141052403e-06
1.2721366987579932617e-06
1.2759554636373470343e-06
1.2826376540540191186e-06
1.2878311913162636174e-06
1.2983557086224669194e-06
1.3066532365888984952e-06
1.3180570874705611132e-06
1.3254220361237967702e-06
1.3359662277953510098e-06
1.3447991825703822678e-06
1.3521773161249409929e-06
1.3589153581896253098e-06
6.7165670075999459564e-05
6.7076127017410457553e-05
6.7023390217356906416e-05
6.7001914777029412582e-05
6.7000023859841567869e-05
6.7010595638332517759e-05
6.7072373484648899265e-05
6.7279466011673793343e-05
6.7514136514529719704e-05
6.7679877560281550045e-05
6.777160056898027423e-05
6.7814462024329790184e-05
6.782566149383550578e-05
6.7817550501351526364e-05
6.7748319786651548143e-05
6.7461844293125873919e-05
6.6481161637747134929e-05
6.3281114503215915731e-05
5.6653863806303871378e-05
5.0027691107455877855e-05
4.3784355759073892347e-05
3.8022725936867411126e-05
3.279300240742843948e-05
2.8119583744235613645e-05
2.3996543636233149234e-05
2.0403739366922589833e-05
1.7298616875974387079e-05
1.4637374242037494952e-05
1.2370659406652951772e-05
1.0469154392066316972e-05
8.893422694924487125e-06
7.6152174057522100276e-06
6.5776395123353222378e-06
5.7517417146676879508e-06
1.2938524198661150068e-06
1.2986881516445881095e-06
1.3031765671022577226e-06
1.3083759262005769374e-06
1.3121994088707609679e-06
1.3185095975286268431e-06
1.3226628738299181759e-06
1.3273440822985706538e-06