/*--------------------------------*- C++ -*----------------------------------*\
  =========                 |
  \\      /  F ield         | OpenFOAM: The Open Source CFD Toolbox
   \\    /   O peration     | Website:  https://openfoam.org
    \\  /    A nd           | Version:  12
     \\/     M anipulation  |
\*---------------------------------------------------------------------------*/
FoamFile
{
    format      ascii;
    class       volScalarField;
    location    "0.0057";
    object      k_0;
}
// * * * * * * * * * * * * * * * * * * * * * * * * * * * * * * * * * * * * * //

dimensions      [0 2 -2 0 0 0 0];

internalField   nonuniform List<scalar> 
106891
(
0.014172587281952642169
0.014167336730933744945
0.014157040373328842742
0.014152144431337134595
0.014141785213992976583
0.014136602752938902047
0.01412525561250982907
0.014119236636429631504
0.014106887412770207149
0.014100491749097578825
0.014084636372776298749
0.01839226787154313314
0.018490648618398140141
0.018606301172242125513
0.018738457827789361393
0.018883895781256147817
0.019037594542965597527
0.019194412807524954129
0.019347995011115181468
0.019492034070221250786
0.019622156364893277025
0.01973398274626882859
0.019825889367594582563
0.019897779552625956268
0.019950227913327029522
0.019985151999289588187
0.020006015502428104585
0.020016193833980167743
0.020020358510683077674
0.020021097610513665516
0.020020217320067527911
0.020018233955300314408
0.020015801523882992274
0.020012636228626472235
0.020005525980547986253
0.019983376715072709989
0.019943028696662045557
0.019901549603136108046
0.019863679131690868684
0.019826143231430899683
0.019792585984918859704
0.019760016495324189689
0.019731214159068068137
0.019702124180322546504
0.019676818316281586424
0.019652064041998509175
0.019632117003865048183
0.019613016737774303933
0.019597520512955476923
0.014993337361923132767
0.014978514599796091331
0.014969458468048493782
0.014954686743194438303
0.014945688134011956422
0.01493147593435737927
0.014922872886499382802
0.014909294694881381621
0.01490187157199259968
0.014889139796934798554
0.014883015182740618951
0.01487104561434504299
0.014865294016214527367
0.014853235052343373782
0.014847012004098178103
0.014833860651872544587
0.014826910772457834245
0.014812826174821942804
0.01480550579342702032
0.014787100114099385392
0.019460863417811117421
0.019588847740736201053
0.019733440636876795754
0.019891238042182065454
0.020056845693844041478
0.020225103756389185145
0.02038895874291007243
0.020541891692449402995
0.020679345907531700849
0.020797290713020583075
0.020894374103950383303
0.020970856277631122477
0.021027204783029069396
0.021065252700336521002
0.021088866027301794021
0.021100972421167516618
0.021106219040165356132
0.021107383223590670679
0.021106617680077242177
0.021104314619524253832
0.021101037346541891976
0.021095907067609918212
0.021083253361742226167
0.021048833746515966531
0.021001104072529235695
0.020957519313459405108
0.020914260511058147679
0.020875256451495224908
0.02083744769946735062
0.020804311197008828332
0.020771395278767670195
0.020742292609012596277
0.02071311415961958613
0.020688554371647859681
0.020665392263287535313
0.020646779551156797805
0.015759073764974873555
0.015742749213455267676
0.015732953384978695666
0.01571651572240455319
0.015706685786616308292
0.015690602712268627433
0.015680955311195083485
0.015665404979777329542
0.015656873552708991393
0.015642133257541806363
0.015634920758005217689
0.015620986477592135877
0.015614161005478232117
0.015600185655122120534
0.01559299513915131212
0.015578068656347416124
0.015570090746503452775
0.015554321894495988857
0.015546134179589658764
0.015525414237676494339
0.02052374223252263416
0.020648023581975281926
0.020788487796161048138
0.020941582904277472599
0.02110214261901504143
0.021264397567184473853
0.021422081009652389066
0.021571026563838510692
0.021707001602457347972
0.021826868108068730318
0.02193083984225918312
0.022018660745422791863
0.02209107514830768379
0.022149473250497420801
0.022194244027888495457
0.022225848047158634074
0.022246144150195650002
0.022258338666497110014
0.022263818761806788982
0.022265514055438286045
0.022265496836554089094
0.022264133989337797637
0.022260970818423344436
0.022250475888268190366
0.02221403896805942621
0.022156630830711024349
0.022100080202405242985
0.022048844364781376715
0.021999885172165712516
0.021956933514088696618
0.021915375351253960773
0.021879119831542982733
0.021843610515005502937
0.02181391432458009913
0.021785798648852432169
0.021763063938018353122
0.016545775162900629163
0.016535381871896886324
0.016517319159696414871
0.016506612076552965723
0.016488651739288515824
0.016478063961657001685
0.016460415836494823871
0.016450557055247561067
0.016433643282342796227
0.016425168557276600273
0.016409131559995890348
0.016401062789960400151
0.016385082075771301158
0.0163769299120706327
0.016360156902600279938
0.01635113023258451953
0.016333575957206400431
0.016324473818169635275
0.016301455792391790489
0.021660543909608174357
0.021820745412395366886
0.022002491213469786008
0.022200202008782376345
0.022406232733553379383
0.022612240870939478987
0.022809157530054302576
0.022990122771424904846
0.023148676789520868796
0.023281724485774830252
0.023389113880840417536
0.023470599266480905026
0.023527670055684818395
0.023563709729796489256
0.023584150402826149079
0.023592927460182787358
0.023595223264778121541
0.023594655208793214457
0.023592717986811562181
0.023588956933732040805
0.023579791678116933384
0.023552713353683800424
0.023488185812441626094
0.023420191252949230931
0.023352179502162565689
0.023289549793996014437
0.023229220792031671228
0.02317580086478159343
0.023124711846240590674
0.023080601256393881021
0.023038050650106379341
0.023001856496686828163
0.022966986325009909609
0.022938362807475055904
0.017408396745924308024
0.01738928318092023903
0.017378309548130996959
0.017358687730346211708
0.017347259710752901268
0.017327348617534626962
0.017315720666700895602
0.017295975975348373138
0.017284913482958637332
0.017265759503052837548
0.017255917116409252854
0.017237501047840088353
0.017228134801389943104
0.017209880740302850588
0.017200512676718363037
0.017181598010384002001
0.017171531731861516129
0.01715199842361611951
0.017141891392460480159
0.017116428682362540975
0.0227894770676836389
0.022947885857119307285
0.023125751825870354689
0.023317111923846264854
0.023515832634162750492
0.023713662222554745401
0.023904021878384744404
0.024079773354564470295
0.024238403366283790136
0.024377108490450390132
0.024494139157760001085
0.024589974638552621056
0.024664710420199128377
0.024718509248309119414
0.024753822241261019821
0.02477397996861609164
0.024784230002281606303
0.024787820308529651819
0.024788965463606222467
0.024789258913110318039
0.024788023889415519707
0.024780258308693833835
0.024751985892882629597
0.024684839423315767942
0.024616264456400509947
0.02454849498997622656
0.024487855433807933364
0.024428849681209716116
0.024377366802765382953
0.024327097430135592726
0.024284130061712011495
0.024241982537720113688
0.024206748869362904736
0.018275973788690547811
0.018264243075169148134
0.018242975724383360403
0.018230775581071327618
0.018209159455912379832
0.018196670284190117478
0.018174800960267498834
0.018162454884443169495
0.018140864116866755457
0.01812952551662164874
0.0181084864403850479
0.018097635664971935959
0.018076900087482108276
0.018066147104699926962
0.018044845301254448799
0.018033651025072018614
0.018011853280458255122
0.018000629734170527085
0.017972549239786916875
0.024125486830497238494
0.024303982746965151207
0.024494985077050477479
0.024692473425224171352
0.024890133364370511243
0.025080719868523778521
0.025259865339175725102
0.025422657477242295576
0.025567896502789889263
0.025693548212921343832
0.0257985707606936919
0.025882242840723906907
0.025944601739051203343
0.02598779909102095359
0.026014066369856782973
0.026028713224077341948
0.026035845419223570957
0.02603971643709304673
0.026042511600749728568
0.026043409353179232391
0.026039987272265228274
0.026023689094389533538
0.025972507520754795768
0.025903713161971115425
0.025836066724349758539
0.025775228002434261848
0.025716217650063936256
0.025664014632017947276
0.025613086433274541431
0.025569124273530443453
0.025526259716972157787
0.025489827997015102046
0.019208489789245702245
0.019196031937383287863
0.019173231094519578577
0.019160255519851655814
0.019136888142759607423
0.019123435074006451401
0.01909947003019502737
0.019086063745347339737
0.019061990932182016484
0.019049108263371541949
0.019025291317565778959
0.01901282202338039351
0.018989354943205975085
0.018977050048238214286
0.018953422191892214943
0.018940936274541238932
0.018916628216420504349
0.018904227798752944872
0.018873803409064783543
0.025580813820081860915
0.025770102275638837735
0.025965701621358538292
0.026162462697038074005
0.026354219749381433552
0.026536160628713906934
0.026706814794069357738
0.026861912484682472918
0.027001610682041488065
0.027123973029041556493
0.027227298434366511981
0.027310996418120757345
0.027374598955064909089
0.027420422315555036813
0.027450113665005097807
0.027468446498317578702
0.027479101127201522453
0.027484959558615337794
0.027488045071958695093
0.027487459575947201934
0.027478848430506793571
0.027448592556707344242
0.027373928554491576415
0.027297313941606390214
0.027222951950956180561
0.027157487176255382805
0.027093634789892930698
0.027038288901048330298
0.026983988601337858398
0.026938030219534413179
0.020179707314211661751
0.020155247843059140994
0.020141334221444543578
0.020116312811441886682
0.020101946302614800283
0.020076050315742586388
0.020061484153177839423
0.020034948194207230499
0.020020521662688538916
0.019994023109213228395
0.019979864411932342361
0.019953840887113660774
0.019940104715059116247
0.019914561747854362533
0.019901084634106367549
0.019874674564462888049
0.019861360146965278267
0.019830067980603622441
0.026985721145930081227
0.027186845835436790342
0.027395563477471667618
0.027605312721325530462
0.027810034720504049621
0.028005934455725467469
0.02818668818479284563
0.028349947857638953252
0.028493428894681489816
0.028615128625818313929
0.028714578872421479827
0.028791585420522573108
0.028848264077771020725
0.028886089484140765882
0.028908880662651868787
0.028922201088991340151
0.028927849582354607516
0.028930101868983787439
0.028929349080768374664
0.028922347546754181152
0.028898119269274397808
0.028835480051572316001
0.028760330438411734616
0.028692462189768331432
0.028626471178614054658
0.028568373363579372542
0.028511694862327213729
0.02846221025324609244
0.02126596644015269974
0.021241271179413670489
0.02122676318819886887
0.021201547800197086818
0.021186563577205184961
0.021160213301110626649
0.021144779587131571491
0.021117506149253100628
0.021102109030482246038
0.021074575378557988681
0.021059375543613270687
0.02103265785082727643
0.021018355257167036648
0.020992212740322847842
0.020978562980041796926
0.020951909501303229294
0.02093860697888884001
0.020909688777920296815
0.028601448821661244054
0.028813578317537037743
0.029026010507670178123
0.029230988250677651663
0.029423932478337785912
0.029598939779057756999
0.029752789974758775404
0.029885075320544046695
0.02999603461924843506
0.030086259314130687353
0.030156933873274865965
0.030209794867076769642
0.030245384231787311724
0.030266566784391404216
0.030277122625806011241
0.030280513308565359248
0.030279883885654799991
0.030277312469897604136
0.030270775879051799867
0.030250865453675876426
0.030197349831061558179
0.030130196033787613047
0.03006804223507724208
0.03000710318151364811
0.029953686253598552081
0.029902873041697929785
0.029859395336989474901
0.022190221992111559129
0.022160812822156050056
0.022136601671232720989
0.022106018589698947507
0.022081062880368151902
0.022048964513122205205
0.022023318008160503584
0.021991399361772127896
0.021965397049338863944
0.021934439066894934056
0.021909506773156194048
0.021879140331323092272
0.021855953557447762442
0.021826109363531711466
0.021803233696626064114
0.021773687555226080292
0.021749964459422715252
0.029051262261687377936
0.029259997713883323378
0.02947114619542661601
0.029676349521339715626
0.029868758396852847919
0.030042626259827544255
0.030193196919963454644
0.030318197441343775617
0.030419437099500536842
0.030498235637650122215
0.030558806942009030666
0.030603595969979534991
0.030634597677312722791
0.03065297448557849358
0.030661094796025804149
0.030662660550541284005
0.030659575632219149971
0.030653973903420596303
0.03064761005645235889
0.030635633323660007438
0.030603098150456732596
0.030541970639504985308
0.030483337523985801903
0.030423668995433958417
0.030370810882858027824
0.030319994952570546165
0.030278943368089311639
0.022209698023738403544
0.022184632894829657557
0.02213749829828485019
0.022111342716120568203
0.022063731432394165233
0.022037242818955676132
0.021989038926574167032
0.02196329774884141911
0.021915755743455674065
0.021891024382871916709
0.021844359917314360581
0.02182100527504067175
0.021775668313487664407
0.02175294203050109898
0.021695799077762353835
0.021704374180354313317
0.02351431901886208084
0.023709255154070189159
0.023901610721057967024
0.024082138938762546326
0.024245010275291221241
0.024387305159857344122
0.024507351794772324477
0.024604764377803588216
0.024681137292785162995
0.02473795693410944796
0.0247795219259043277
0.024809041045525670466
0.024828462279514618843
0.024839056541120840826
0.024843109344361777313
0.024843205145595678024
0.024839438737403074509
0.024833802389384949938
0.024825746280160324725
0.024809006333172411302
0.024768090778915757832
0.024719813459486403989
0.024673049657840430415
0.024630308938910133731
0.024590325789399875012
0.024556199692929010087
0.024525745777952714238
0.024501346768629049533
0.017709269287523685121
0.017670974912706746002
0.017650015582408133674
0.017611222507982249308
0.017590035488868886737
0.017551256579947091541
0.017530752447805355437
0.017492514676923181377
0.017472850201523216357
0.017435383388205959176
0.017416643076488557557
0.01737984944197847742
0.017361429608714243344
0.017315067957791578646
0.017330878154331083585
0.022173960359027113098
0.022367104411175925405
0.022553316663950436632
0.022725463816968785591
0.022877402226323614171
0.023006728845566690178
0.023109816524834202178
0.023187567945137130959
0.023243131410703124495
0.023279863034482088657
0.02330137121837968367
0.023312082957996728416
0.023316334641466481686
0.023317161165348244956
0.023314748644101226938
0.023308855439209935634
0.023296805991630746557
0.023267363204572212576
0.023204675706798613688
0.023137005098166008726
0.023073715597186763432
0.023014111101770453466
0.022961171622633929496
0.022912512173693198175
0.022870620413842118052
0.022832502309717679634
0.022800716885942748369
0.016680876262188625708
0.016663434068558663492
0.016631959871333062972
0.016614805506844829847
0.016583723004231942788
0.016567241171376926451
0.016536558647923187138
0.016520537645496130574
0.016490225133060577162
0.016475128934518246115
0.016445450427453874725
0.016430727659506347976
0.016395177382798258731
0.016392849787088433627
0.021491717884385586057
0.021651239654214924496
0.021798495643823079249
0.021929313232398241901
0.022041620151227171026
0.022135072597571844866
0.022208674979522377568
0.022263564204313426864
0.022302845992862939395
0.02232866668343713723
0.022343652673047234569
0.022351201104967043098
0.022354119186112339501
0.022354536766643201551
0.022353527462164110573
0.022350400662954905684
0.022343344169502114827
0.022324710397762174974
0.022274918041959936715
0.022217241714995734914
0.022161994300384325884
0.022113945158331340529
0.022068653361955015146
0.022029854752332243134
0.021992553148631372589
0.021961434368600572103
0.016072288394183436439
0.016042749654760362493
0.016026620283883418611
0.015997424160208724431
0.015981803538287049637
0.015952674886951397765
0.015937394717353392526
0.015908375282001525203
0.015893688199806563222
0.01586508847841275674
0.015850905448076841459
0.015817937586911450659
0.015813324928672899128
0.020814722237876590732
0.020963179929164695026
0.021096960137886044268
0.021213845460740215348
0.021311889201230668073
0.021389942937526797845
0.021448265370810355723
0.02148975457632620531
0.02151593954752072449
0.02153042132568040376
0.021537483314326380524
0.021540402048440338706
0.02154094766694122573
0.021540554299774365005
0.021538173958544081649
0.02152997587150530176
0.021504538003692660886
0.021447325595664191306
0.02138915546179736768
0.021334549255501100706
0.021286188678356736392
0.021242369152259989867
0.02120361369320565223
0.021167441863468840213
0.021135723702134144586
0.015433273742407108836
0.015417738876560883182
0.015389803777343573701
0.015374595611158980643
0.015346515361621963086
0.015331566312198096833
0.015303215645359974015
0.015288574974183025135
0.015260627396962300403
0.015246688826682485915
0.015214473820101326318
0.015210039012095850214
0.020313349248078396009
0.020444021721122702939
0.02055465492152351234
0.020643552449040484392
0.020710258710209865363
0.020756510466112237934
0.020784314045354006922
0.020798305103896182894
0.020803692547039683014
0.020804758013498549085
0.02080430733659286574
0.020803530796409359233
0.020801773289969908293
0.020796415184828803691
0.020779732162683681174
0.020734074388298946723
0.020672994984621332476
0.020614364372925905039
0.020557966406537092618
0.020508001938629304151
0.020462059651104071156
0.020421834531711459404
0.020384206703270704025
0.020351697840880086238
0.019620808772263249875
0.019721442696266130307
0.019803848935857744362
0.019867432121763860253
0.019913731646250255186
0.019944797733744065726
0.019963045917002816138
0.019972529235998820463
0.019976440664161720234
0.019977913347405236444
0.019978555747950245414
0.019978407051417963747
0.019977028874732339486
0.019970223017872750643
0.019945920111534589519
0.019890565067670427229
0.019833982833230411752
0.01977907709137462916
0.01972999653920587404
0.019685046026353212462
0.0196460246631288242
0.019610061423451213142
0.019579300954751910346
0.019058322787915069063
0.019131316359586290204
0.019187673755968540079
0.019229181410614450132
0.019256937256444076056
0.019273344193330179536
0.01928158339136160776
0.019285231331969816121
0.019286895364205886017
0.019287371152985583606
0.019286635866952672735
0.01928228550696256538
0.019264711455562990444
0.019213020186465718658
0.019149444442249852899
0.019087658611077508442
0.019031687664863940201
0.018980195982524525333
0.018935368709151106925
0.018894689050901192218
0.018860295330266306502
0.018436152227227955991
0.018454241335830266074
0.018464422778425550881
0.018469382520478177384
0.018471877397210956229
0.018473079411283847145
0.018473442999262179587
0.01847244926924487135
0.018466188610497601824
0.0184401846175593076
0.018388414361349813414
0.018335396616156570543
0.018286572931113985463
0.018240932463173473166
0.018200860113623214265
0.018164309546349323432
0.018133382405657334085
0.017873698398275964655
0.017872742999871234909
0.017870111666987261584
0.01786124048454408586
0.017831429546763585131
0.017776135505885356375
0.017721804497203699075
0.017668302136457349205
0.017619453607690120645
0.017573933458959026949
0.01753407559047856154
0.017497998028697621387
0.017467593919323762958
0.017044703467779077216
0.017044196936903427408
0.017043521742811471031
0.017040404127707638182
0.017026191837735800416
0.016992915834252459578
0.016955481394326031575
0.016919752499529861628
0.0168848777439013914
0.016853379107204868176
0.016824005186847474508
0.016798929141786093922
0.0099029624353201995551
0.0099038080725734299603
0.0098435242393265422883
0.0095712438628125524193
0.0091997757256601867676
0.008985843348426326288
0.0088994655908262963739
0.008887057410680019795
0.0089038769481789362126
0.0090038072177454180067
0.0093815386358161705765
0.0099412596917570778682
0.010358572814928213371
0.010627420427081616869
0.010770656012591641251
0.010823957468325533238
0.010829611856177763507
0.010819654789991729749
0.010769508372409272376
0.010596119106350682798
0.019625563416317735876
0.019814636856009631288
0.019807699761890999735
0.019645795808666405291
0.018941230201280533779
0.017929121772996766543
0.017299868932394730364
0.017005329336644808835
0.016920141173774192606
0.016922883307420446414
0.016987447193129626144
0.017270568279807815837
0.017675981354517186772
0.017927568036932156614
0.018047741316969095893
0.018078212704327138033
0.018073684808442003896
0.018046388589403224156
0.01795466953633855986
0.01779927479791015496
0.017680051022778142666
0.017601646663289831352
0.052618684216065213233
0.05370924137667226067
0.054042718209443590949
0.054021149182808168854
0.05375329320695323293
0.052624469664235562494
0.050483545623025469218
0.048981736641895250173
0.04820255195496964129
0.047936102718622294883
0.047931877856069365906
0.048006041723508807717
0.048337438651300329573
0.048877094300868041687
0.049208597193748530862
0.049313801588588647429
0.049306286404904461906
0.049236104286441359501
0.04905468641165498106
0.048578956010331957038
0.047901226673468369488
0.047333979124064839983
0.046893472925130880169
0.046553705872855843939
0.046287794514572828952
0.046049881158770789025
0.2650859476213717203
0.26604246107911716512
0.26590683286402105878
0.26455656755916345801
0.25957910572195003196
0.253406815073784486
0.24971745591974012224
0.24822383056885297115
0.24823722051532257082
0.24869681047241318228
0.25025899128609829791
0.25388937961423885259
0.25676396271916374081
0.25827943859016733175
0.25860823964266205222
0.25853539896849292434
0.25802188736035469585
0.25631056520226891404
0.25361909503915996966
0.25131947386020403457
0.24953838361022925851
0.24825610354195612461
0.24741514635196817928
0.24691968774212505466
0.24659646232457008153
0.24634794500545503793
0.24608548703382238099
0.24572592019518244011
1.4379281783094235436
1.4377442807146680881
1.4349035373614531519
1.4238133239706487476
1.4087234629337979097
1.3973874582898022645
1.3907139913133612641
1.3880107393649885328
1.3881145056157841999
1.3894362483241240458
1.3936754940297295668
1.3982123788751315008
1.4003535157679345424
1.4006950895796770329
1.4002590046019869341
1.3981712707758588987
1.3923450608168721487
1.3854213356594751172
1.3789931019567489567
1.3731531402244194773
1.3680318584279849148
1.3637704100689456155
1.3602614176623424314
1.3574217620182824628
1.3550584461408279324
1.352996467220260568
1.351081377446587295
1.3493105314381015347
1.347895884703902647
1.3468414742205496726
3.9085456000543117305
3.8914490210627663558
3.8746218916069268268
3.8591392675835076709
3.8459463494332903899
3.8355974083717665479
3.8279064433318845673
3.8219516231564991671
3.8163702463898308004
3.8099840745770303663
3.8020584558284378218
3.7924567768814188007
3.7816409239829753552
3.7702768084288007522
3.7589118379501731404
3.7478543627882188183
3.7373135288904486551
3.7275081020560429934
3.7185073730530020519
3.7101826055156612583
3.7022569691104605383
3.6945496288624686265
3.6869506888491967445
3.6794166391626847989
3.6719069004582030047
3.664390864754517807
3.6567884255463121157
3.6491917239659237282
3.6415979723149791702
3.6341534379842128644
3.6268040662893521464
3.6195143282869075563
6.2467069023806773842
6.2297022821868486275
6.2133527922734330673
6.1974707662307979561
6.1820881958802260669
6.1673947441967200689
6.1534190907050989594
6.1398909350391583928
6.1262646766937072229
6.1121564216927950497
6.0978035688827523231
6.0837502410083477145
6.0705077096038504436
6.0581529948232155647
6.0462640502057940495
6.0343622760586494991
6.0223003281591935831
6.0102649965133005949
5.9984704492709148838
5.9869744312956942878
5.975675433926269875
5.9645183518047266702
5.9534858166007449398
5.9425816628198910863
5.9317806777163371024
5.9210946383186042752
5.9105053789438359857
5.9001168494251308161
5.8898846857778393016
5.8798643279238342885
5.8698819662427021981
5.8599820238994499988
5.8499364084279736886
10.15272519912139515
10.055021683532338272
9.9614250408835616213
9.8723148025375415671
9.7883797298217096738
9.7090318698699249467
7.898417017301835763
7.8829300742186756423
7.8674094864027548368
7.8517508621083704767
7.8362622601803959554
7.821384732907017856
7.8071406782064931562
7.7929154388043935242
7.7779103990090110443
7.7618464560006179553
7.7453410629930949938
7.7295322979259246665
7.7153153188223217995
7.7025416260142245406
7.6902344488862670602
7.6775422970717741578
7.6643189897679713241
7.6509618985453320406
7.6378919958176485494
7.6252289781727480289
7.6128281202195928756
7.6004170783502127406
7.5877947825896585599
7.5749215164324752436
7.5618560056148513837
7.5487437176071932043
7.5357963018195217586
7.5231470159224489436
7.5108227445043436177
7.4987065531217522718
7.4867208527183803923
7.4746997762905760254
7.4626411501857772279
7.4502410225688571188
9.4750630092938976645
9.4005983504173187271
9.3291871796157703756
9.2606367490280501187
9.196143556803470176
9.1362898386172641807
9.0798428238690078729
7.7314955288304494374
7.7104049177325384434
7.6888010017854995226
7.6673091817380099044
7.646720672061294799
7.6271405468384312343
7.6077928300395942784
7.58789172206753193
7.5678454540639581438
7.5494085338626693016
7.5345327955115104501
7.5239411598993903851
7.5162460256062528785
7.5089391540840839667
7.4999548967340343708
7.4890017381060296486
7.4772547541249316794
7.4659488487250538213
7.4554038120851657823
7.4451469706823232286
7.4345330803289604304
7.4232785896321260566
7.4115470005166921297
7.3997890155625549724
7.3884117716513291185
7.377650502265012733
7.3674655169872433902
7.3575699653080626206
7.3475003397990032994
7.3367943180082306753
7.3251728172605261591
7.3125491985209265522
7.2990207931878297032
7.2848167712280949004
7.2703609417439691853
1.1649504213883930921e-06
1.169373075289731887e-06
1.1748118377058653933e-06
1.1830447327259218444e-06
1.1896117548362604678e-06
1.2005048900444007658e-06
1.2059279257287997902e-06
1.2170643506927647664e-06
1.223805861333944664e-06
1.2301237602907153532e-06
1.2421801977042047658e-06
6.5176958928000075879e-05
6.4795467661268114955e-05
6.4446606628519673837e-05
6.4133591104741452266e-05
6.385652292246193028e-05
6.3624400250730290705e-05
6.3437359181992358597e-05
6.3288617869314164844e-05
6.3174760870882265334e-05
6.3093245572541455492e-05
6.3040532586863804224e-05
6.3010518523110890603e-05
6.2986345239303260482e-05
6.2940920886719355087e-05
6.2840990791893056879e-05
6.2593169951705840805e-05
6.1906686595256831722e-05
5.9841935586474461839e-05
5.479530915608258327e-05
4.9136223159757496921e-05
4.3640020175480469906e-05
3.8410301124600467523e-05
3.3530000348481869409e-05
2.9057871705232214324e-05
2.5023761672843924237e-05
2.1438505659180557043e-05
1.8290371078854580591e-05
1.5558067400758577794e-05
1.3208369961687203988e-05
1.1211464548929062028e-05
9.5293249520661010328e-06
8.1316106341623893756e-06
6.9764382214576682852e-06
6.0367476349263295726e-06
5.2718184498200545033e-06
4.664011817756051159e-06
1.1743159211635870195e-06
1.1783973121400740574e-06
1.1832000411995311014e-06
1.1870680747741752523e-06
1.1938395725745088688e-06
1.1988432356095550735e-06
1.2043698660286051705e-06
1.2075464514805306057e-06
1.211361673301313068e-06
1.2139138788915973433e-06
1.2180945236325294433e-06
1.2241419913923454737e-06
1.2291086194111405206e-06
1.2391622535699836176e-06
1.2467167997649123798e-06
1.2577142671166999883e-06
1.2639961641814204257e-06
1.2752760066496328577e-06
1.2829037061978589853e-06
1.2889806336241190866e-06
1.2984111929298772964e-06
6.5466907627668687389e-05
6.5308861300424880781e-05
6.5212653371023989943e-05
6.5169993706220999494e-05
6.5160819312697364127e-05
6.5166848321352894582e-05
6.5210979077093657926e-05
6.5386504998702713325e-05
6.5636396821824633148e-05
6.5813677832925423952e-05
6.5916165907468329734e-05
6.5964648437047987504e-05
6.5982583199160438716e-05
6.5983220928674993873e-05
6.5957823332542326526e-05
6.5834537812726556891e-05
6.5401279322483633211e-05
6.3986652053312054298e-05
5.9624554174410391693e-05
5.3111040191581250958e-05
4.6880557378202632191e-05
4.1038631494532741041e-05
3.5648552533309560051e-05
3.0755727387305186469e-05
2.637830108403038185e-05
2.2517548668303500291e-05
1.9151107639582712696e-05
1.624554587374975079e-05
1.3756145033601136404e-05
1.1645513943174750523e-05
9.8723173075404617666e-06
8.4048058977487179232e-06
7.2005135214622599212e-06
6.2290012272681040295e-06
5.4452390568817767407e-06
4.8266307651423203662e-06
1.2317492036148223281e-06
1.2366149812320042001e-06
1.2414449552404919294e-06
1.2455005845457422459e-06
1.2513559340361350848e-06
1.2556849557380234659e-06
1.2613501723297679165e-06
1.2649618884806674664e-06
1.2689272096418988867e-06
1.2720426196538075514e-06
1.2758917891552551072e-06
1.2825983397297078928e-06
1.2878169648002257993e-06
1.2983549500590699458e-06
1.3066508747684621824e-06
1.3180467790871959961e-06
1.3254078243717060648e-06
1.3359583349285783425e-06
1.3447848720437450099e-06
1.3521465171128281893e-06
1.358857903127279508e-06
6.7165251292338932175e-05
6.7075847226501944011e-05
6.7023223325492998158e-05
6.700179593022768216e-05
6.6999882707829980038e-05
6.7010505436254722824e-05
6.7072677108039692245e-05
6.7280451873548500477e-05
6.7514935770333025004e-05
6.7680429283469112725e-05
6.7771911986997272e-05
6.7814593889102892164e-05
6.78256698803725625e-05
6.7817415461802999736e-05
6.7747648460925391977e-05
6.745958006804742078e-05
6.6474003112777899256e-05
6.3258105770840406174e-05
5.6625315478027437308e-05
5.0000138109270814363e-05
4.3758460899545956061e-05
3.7998944263324498159e-05
3.2771517160383217999e-05
2.8100411658328327831e-05
2.3979703487310053637e-05
2.0389191443222922073e-05
1.7286142008199494361e-05
1.4626660471540901202e-05
1.2361492073699669204e-05
1.0461431469362654644e-05
8.8870583889002802321e-06
7.6100567990894965294e-06
6.5734989907375477737e-06
5.7484185186954576028e-06
1.2938106203903341584e-06
1.2986357615071082121e-06
1.3031166008820545167e-06
1.3083042549550946662e-06
1.3121198004370399256e-06
1.3184194629828703804e-06
1.3225599802426545436e-06
1.3272404500597481784e-06