/*--------------------------------*- C++ -*----------------------------------*\
  =========                 |
  \\      /  F ield         | OpenFOAM: The Open Source CFD Toolbox
   \\    /   O peration     | Website:  https://openfoam.org
    \\  /    A nd           | Version:  12
     \\/     M anipulation  |
\*---------------------------------------------------------------------------*/
FoamFile
{
    format      ascii;
    class       volScalarField;
    location    "0.0057";
    object      p;
}
// * * * * * * * * * * * * * * * * * * * * * * * * * * * * * * * * * * * * * //

dimensions      [1 -1 -2 0 0 0 0];

internalField   nonuniform List<scalar> 
106891
(
98630.800246776911081
98646.75091250850528
98664.960184615163598
98683.341590100433677
98699.70843368016358
98712.108274455764331
98719.203296194638824
98720.640633476446965
98716.964434602545225
98709.164323779041297
98698.960946238323231
98936.511165524076205
98917.534048285044264
98896.234904353681486
98877.928900360886473
98867.943130391679006
98869.199809856072534
98880.786760188508197
98898.3263749366306
98916.522380810667528
98931.472185666571022
98941.015481578870094
98944.245457111566793
98941.189817131278687
98932.978383329143981
98921.641155862540472
98909.513731117447605
98897.892951579371584
98886.416212987052859
98873.60831318149576
98858.823612794672954
98843.899371743405936
98832.850352740628296
98830.080147889966611
98837.88757986103883
98855.298708493690356
98878.71036777117115
98903.630456394166686
98926.262903001610539
98943.870836868009064
98954.189480255430681
98955.390287267713575
98946.993540023540845
98931.297540967469104
98913.870802672056016
98901.814298029115889
98900.370215175920748
98910.423154434087337
98928.180700951692415
98676.289777810525266
98670.500931209913688
98662.597619412641507
98653.560679995673127
98644.684660393191734
98637.47671208542306
98633.409216458603623
98633.627526906318963
98638.669849063604488
98648.348467475239886
98661.74944573220273
98677.230531219320255
98692.713796756448573
98706.142934506671736
98715.845415696618147
98720.704607359773945
98720.400937907892512
98715.448411600009422
98706.921829723039991
98696.387102583626984
98892.041491126045003
98868.321154774414026
98848.547744981231517
98839.495767400774639
98844.477629191445885
98861.361529391739168
98883.635244422155665
98903.884072086555534
98917.467889983716304
98923.588309966740781
98923.81117547264148
98920.047708885293105
98913.9917631464632
98906.852870966336923
98899.389994109747931
98891.555862108958536
98882.33004496472131
98870.293908014020417
98854.929180502746021
98838.200335321977036
98824.434844667834113
98818.660974997255835
98824.22701473115012
98840.953706046959269
98865.178037450576085
98891.292831282873522
98913.832272613595705
98928.989011700250558
98934.916417486339924
98931.403923633130034
98919.880844311541296
98903.775635533282184
98888.607340851856861
98880.346383603289723
98882.652202095428947
98894.784422790762619
98692.576343712993548
98689.797178126231302
98684.344606461017975
98677.144238525870605
98669.434358231155784
98662.607704718669993
98658.102805556292878
98657.146891156677157
98660.39453004905954
98667.753113999482593
98678.393037645539152
98690.860594914061949
98703.29470391261566
98713.756384912951034
98720.680069678463042
98723.178027291360195
98721.148814819942345
98715.177096138897468
98706.369399569666712
98696.092487292131409
98867.098994580650469
98844.604385654864018
98827.198693336147699
98821.642125251193647
98830.596872565118247
98850.702738470310578
98873.899787344664219
98891.627184804543504
98899.666770316485781
98899.323171103023924
98895.093479564369773
98891.009650676569436
98888.937851571667125
98888.416982905357145
98887.565532000808162
98884.290941995452158
98877.044376480203937
98865.419096422134317
98850.416007218707819
98834.787158887134865
98822.652286696931696
98818.133926622831495
98823.907133059663465
98839.621086968603777
98861.592208981703152
98884.15618816697679
98901.744463972514495
98910.692693965072976
98910.058412834870978
98901.186949936804012
98886.974821689625969
98871.369931494802586
98858.968318729137536
98853.955333179575973
98858.318151745843352
98870.405042776328628
98701.623898381745676
98700.073671573976753
98696.254532115402981
98691.06888596288627
98685.737123247570707
98681.59991405288747
98679.869369996173191
98681.360813093138859
98686.259870850059087
98694.011641954246443
98703.409673319052672
98712.844490491916076
98720.595617479950306
98725.197145439116866
98725.805792330604163
98722.419183195670485
98715.787747764974483
98707.228829869287438
98698.044540151880938
98827.677281865937402
98816.043681524126441
98815.583285160260857
98827.645367248842376
98847.752338181715459
98867.316131514467997
98878.312711900929571
98878.003957229593652
98869.856733297041501
98860.84647061904252
98856.919968299363973
98859.802284990990302
98866.756565621020854
98872.625746146950405
98873.12379265933123
98866.769108528926154
98855.114484525023727
98841.816974748682696
98831.020525430343696
98825.890744112504763
98827.697278054401977
98836.147541971571627
98849.663765433157096
98865.339360760452109
98879.323227478147601
98887.798680627980502
98888.402035238046665
98880.970345634646947
98867.590021233103471
98851.772255171454162
98837.303338973462814
98827.433616492591682
98824.336224946891889
98828.473835963799502
98702.857748482914758
98707.973227719921852
98710.912046678058687
98711.459801864039036
98709.837476932545542
98706.761982853422523
98703.337787323893281
98700.763242629269371
98700.075899468138232
98701.850979041264509
98705.991015128180152
98711.744628489075694
98717.863873037334997
98722.894643209408969
98725.56415052509692
98725.096132790204138
98721.428636028271285
98715.231753992076847
98707.856912602655939
98700.557527838958777
98818.850179175453377
98814.150210770370904
98818.017201290596859
98830.3598252255033
98846.469761592743453
98858.892578854516614
98861.507221090098028
98853.120308004246908
98838.465760484570637
98825.712625805215794
98821.889932191683329
98828.530759458401008
98841.128625884026405
98851.937184826223529
98854.638942484831205
98848.193854320968967
98836.918941176030785
98827.43620387215924
98825.003555966221029
98830.830403930289322
98841.901834867312573
98853.661659627076006
98863.11606540021603
98869.259911485292832
98871.727629070912371
98869.822257320643985
98862.648131154404837
98850.125492079314427
98834.039152518133051
98817.64781405699614
98804.275276762651629
98796.038350693954271
98793.455620859167539
98714.168163733775145
98721.681281614859472
98726.840714664533152
98729.137556875590235
98728.663437970099039
98726.069503649137914
98722.424517287960043
98718.965215926349629
98716.723911716471775
98716.249527368010604
98717.457363727109623
98719.620808214327553
98721.64802537059586
98722.464230681565823
98721.345793243934168
98718.176350442008697
98713.476956948637962
98708.422168739867629
98704.016067966425908
98814.961190232643276
98819.047881740669254
98827.235434202957549
98836.645389420707943
98842.1580792406603
98839.084541402713512
98826.52674018421385
98809.144712659806828
98794.767151004736661
98790.183934781234711
98797.040367224326474
98810.551191600054153
98822.582199591750395
98826.410927922916017
98821.220013075435418
98812.986017882678425
98809.957803027238697
98816.955534041757346
98832.662757206926472
98850.554292581495247
98863.209662456705701
98867.049502592315548
98863.430833235470345
98855.781131700496189
98846.140450148683158
98834.289110503683332
98819.547191639896482
98802.707079756452003
98786.423134659067728
98773.860358377045486
98766.743861709197517
98764.565706973997294
98724.241473761474481
98735.871198851629742
98745.382082140917191
98751.531165264837909
98753.696110543154646
98751.989595433522481
98747.249912989907898
98740.796153791103279
98734.100499451626092
98728.411605281129596
98724.423572058803984
98722.178912914983812
98721.157055413947091
98720.506924137604074
98719.471870199515251
98717.732426969392691
98715.479001931482344
98713.580463704449357
98712.762460169833503
98809.609734801575541
98808.885682018779335
98809.89008255994122
98810.803621745042619
98807.889567125967005
98798.699617009013309
98784.574114996488788
98770.577019673975883
98762.458232469478389
98763.63406608880905
98772.359281786601059
98782.813502347969916
98789.477679991512559
98790.776859368750593
98790.638407157166512
98795.380578851691098
98808.040853750702809
98825.892493424529675
98842.302400701897568
98850.837219871900743
98849.188849373880657
98840.044696947399643
98828.134327880834462
98816.198345725089894
98803.824522461349261
98789.763281953564729
98774.319536276801955
98759.91640135133639
98749.662917714449577
98745.043766819027951
98754.31715643456846
98766.842308763836627
98775.870485700084828
98780.163313680663123
98779.326323751345626
98773.842586680941167
98764.956530650844797
98754.388351923975279
98743.9195873697754
98735.030147427751217
98728.625629135931376
98724.91818749725644
98723.497641813519294
98723.667696370757767
98724.764776949188672
98726.435191015043529
98728.994158519955818
98732.65520457229286
98774.146718474294175
98767.033194936811924
98765.966722565033706
98768.043952064297628
98767.791521593477228
98761.243667371585616
98749.224181478726678
98736.402658584382152
98728.460375644339365
98729.028217841099831
98737.609506042761495
98750.650230868821382
98764.413547419651877
98777.11590455455007
98788.889056431769859
98799.452728891948937
98807.345939960985561
98811.036593379612896
98809.934376731500379
98804.713589088438312
98797.136271919458522
98788.976750988076674
98780.652669693052303
98771.159045962180244
98759.6533363317576
98747.278662694676314
98737.226546449150192
98732.719344237993937
98775.186756589158904
98788.6237835107313
98798.823686170930159
98804.156513452791842
98803.756643045242527
98797.727687385457102
98787.146472467153217
98773.840210767870303
98759.968620491024922
98747.572530842939159
98738.216106409876375
98732.765717480127933
98731.33190963146626
98733.460019730089698
98738.335165089956718
98745.109758330159821
98753.343094157826272
98762.504044808709295
98716.518609972685226
98715.017283278939431
98722.370140238825115
98731.068936113864766
98732.97450590787048
98724.527459668795927
98709.226038447275641
98694.923301586444722
98689.79697347979527
98698.26145249469846
98719.484198630234459
98747.30768081912538
98772.148500922441599
98785.661027857946465
98785.1741691443749
98774.144396908945055
98759.449692844689707
98747.603732050323742
98741.679142499298905
98740.649712170110433
98740.968524199735839
98739.169083881832194
98734.05179968077573
98727.259432147824555
98722.320391595087131
98722.768858671726775
98730.272146668823552
98806.255073559703305
98815.422454893501708
98820.077987991084228
98819.187316393348738
98812.645062798939762
98801.334772884642007
98786.969052820088109
98771.80422697753238
98758.159342632134212
98748.002539418579545
98742.640034719879623
98742.510973886091961
98747.333207459087134
98756.249482967949007
98768.048534102374106
98781.653989159676712
98795.986173626908567
98684.351677222046419
98670.340018865579623
98668.703287872805959
98677.83213602626347
98690.646111151072546
98698.30802696646424
98695.45787613169523
98683.553889450442512
98670.085277456339099
98664.774418710294412
98675.266119707433973
98702.036721725540701
98736.23549336688302
98763.755885609250981
98772.969496269361116
98761.005110323458211
98734.779588462493848
98706.475029072942561
98686.785908254401875
98680.008510141924489
98683.234976403095061
98689.799061450248701
98694.617835185039439
98697.353515665687155
98701.389729061964317
98710.624911852966761
98726.869283457373967
98826.939207047966192
98829.387759511853801
98826.97585098433774
98819.674650166736683
98808.339368437736994
98794.535581972595537
98780.267234817089047
98767.728899341193028
98758.876849318781751
98755.100434694249998
98756.976296754277428
98764.292503765187575
98776.161338435806101
98791.233129123429535
98808.031721742358059
98824.983780292590382
98652.634030494300532
98642.017611466784729
98642.69875368650537
98651.66019574549864
98663.133969925256679
98671.62419569438498
98673.476558077105437
98668.940617413711152
98662.51272166230774
98661.496691786960582
98672.228568366452237
98695.010544643679168
98722.915273135455209
98744.441837741585914
98749.48017682848149
98735.586197752709268
98709.096817744939472
98680.733054384894785
98659.940616827632766
98650.857893006803351
98651.729100197990192
98658.159090752073098
98667.100829085698933
98678.498939890530892
98694.198998423133162
98715.669008816243149
98742.435513655975228
98772.064212143362965
98839.067992092488566
98834.69389615568798
98826.285881610499928
98814.914530796493636
98802.19141576551192
98789.888862705265637
98779.847185157937929
98773.620090035008616
98772.194530518041574
98775.84534014161909
98784.094258108554641
98796.023174369736807
98810.403753483376931
98825.924138281596242
98841.235809637932107
98629.485690635876381
98631.649173325364245
98639.694043600538862
98649.344325775600737
98657.647246435735724
98663.10015878334525
98665.356011343028513
98666.224419285703334
98669.205880916662863
98677.726146865810733
98692.236678785688127
98709.076089603855507
98721.583929158790852
98723.483796414089738
98712.932348878370249
98693.75574968958972
98672.863331948232371
98656.283963409703574
98646.82945447874954
98644.517552870835061
98648.573277763294755
98658.872731778450543
98675.702781852873159
98698.801288404880324
98726.830194841139019
98757.433776013640454
98788.007605197257362
98842.951752383029088
98833.91669474975788
98822.869701603500289
98811.523911025782581
98801.682788798352703
98794.714917206205428
98791.391457704783534
98792.015213556092931
98796.389518400668749
98804.094090396654792
98814.35728377122723
98826.156318821886089
98838.482964371331036
98850.390942039419315
98631.612273993800045
98638.630999122513458
98646.515972733541275
98654.646197655703872
98663.064915432420094
98671.210918622746249
98678.252787552890368
98683.197642948725843
98687.090977533793193
98691.205160256839008
98695.33203334423888
98698.331354563197237
98698.411290126838139
98694.047842370142462
98685.733645307627739
98675.795353137742495
98666.698959125351394
98660.079702270581038
98657.116974789110827
98659.374861601783778
98668.799270968214842
98686.637674961733865
98711.731725469886442
98740.632946401907247
98769.433550917921821
98795.803873673532507
98844.786198028246872
98834.79606466255791
98825.36494647890504
98817.938097777223447
98813.405092547007371
98812.091042874439154
98813.872666917130118
98818.320698677867767
98824.742807847171207
98832.349464735045331
98840.387707444358966
98848.368286793411244
98855.955423204388353
98648.223689317426761
98655.615723867726047
98663.70511068511405
98673.719586158345919
98684.933662232069764
98693.95379220439645
98698.280806083464995
98696.868725091160741
98691.268342138137086
98685.365908946070704
98681.410149875839124
98680.063048515468836
98680.872822269942844
98682.708113122018403
98684.348939628805965
98685.022450506919995
98684.704241585102864
98684.590310653322376
98687.166880096730893
98695.209554929839214
98710.062784375142655
98731.055555852741236
98754.225397330417763
98775.49785086454358
98793.957772291934816
98849.617859917590977
98842.272177249324159
98837.018393230755464
98834.411420578268007
98834.444963692338206
98836.648824194882764
98840.273978038705536
98844.579570492671337
98848.950495689132367
98852.975659445684869
98856.696959491979214
98860.251153581571998
98674.278947974045877
98682.340797969518462
98692.056058990827296
98702.548635213272064
98710.100194597674999
98711.146566070136032
98704.518081734495354
98693.109604256125749
98681.572192446299596
98673.939783951922436
98672.009633850379032
98675.845231803163188
98684.096804316883208
98694.721648419494159
98705.414039148643496
98714.237082768042455
98720.760969674956868
98726.317483613296645
98733.240651853760937
98742.833091645079548
98753.908920156638487
98764.896151312437723
98774.854428888909752
98784.718806417993619
98707.936497640403104
98715.923584715390461
98722.706517758371774
98725.632251595263369
98721.933115481675486
98711.292899236941594
98697.088621897462872
98684.049601727063418
98675.7930080924707
98674.093851725308923
98679.216949846813804
98690.397625624391367
98706.325177760518272
98724.836702905799029
98742.958504728318076
98757.931043850912829
98768.487086421329877
98774.532396602342487
98777.046208885512897
98777.115010447698296
98775.254672308597947
98772.603522974284715
98772.68540905143891
98743.493880504916888
98740.309043603672762
98731.394355158437975
98718.098239332874073
98703.890069789500558
98692.369665748017724
98685.782638967953972
98684.93288620984822
98689.957980450053583
98701.282934682487394
98719.16500044381246
98742.429578240131377
98767.768798731834977
98790.348130804806715
98805.618562475123326
98811.441883445892017
98808.212512747806613
98798.077700619905954
98784.443934065566282
98771.55710891673516
98764.816988922189921
98713.700173231918598
98705.168440121822641
98701.09713079156063
98700.983277995022945
98705.052786188200116
98714.81712374460767
98732.138770028090221
98757.165607230432215
98786.678849695905228
98814.438743395468919
98833.581565542219323
98839.610343389809714
98832.063499680865789
98814.373766567805433
98792.37296644768503
98772.698478656355292
98761.681164070600062
98722.584321652466315
98729.96055101910315
98745.093309889445663
98769.390423615637701
98800.139443995372858
98830.302805729181273
98851.27940250087704
98856.962547328061191
98846.469390731857857
98824.233612410636852
98797.860788693215
98775.314979382543243
98762.916404244228033
98745.656709844231955
98757.85707169258967
98779.693053124647122
98808.87564495964034
98838.327643366952543
98858.807346543384483
98863.503171279618982
98851.378109295663307
98827.441641031502513
98800.207145511827548
98778.067747823850368
98766.739567309632548
99083.347822196941706
99066.961544782403507
99046.438252145526349
99022.054781308936072
98997.209125904235407
98978.8021958686586
98972.114392108094762
98976.616249735030578
98986.108405300023151
98993.587597275880398
98997.358464321616339
99001.337898211961146
99009.076752257155022
99018.745234689820791
99024.394687519234139
99022.376922400610056
99015.140425407123985
99008.697081831182004
99007.897523600360728
99013.667959439510014
99097.791158520529279
99089.451388692628825
99074.737918654092937
99052.176908963883761
99021.226256557114539
98988.397794786593295
98964.862127036496531
98958.201674257143168
98966.452527985151391
98980.076859862339916
98989.769261735564214
98993.66759774806269
98997.012796268303646
99004.734688124328386
99015.674630524998065
99023.938431868358748
99025.363969706755597
99021.259299934506998
99016.323691547266208
99014.844021881304798
99018.453712472721236
99026.323114332539262
99106.287499632599065
99103.911540366229019
99099.880002804813557
99094.449502665433101
99081.75753110628284
99057.096908874082146
99020.193771138772718
98979.907202824135311
98951.646744947545812
98945.116018470478593
98957.167604718764778
98974.866377507743891
98986.687094255757984
98990.62318631762173
98993.094590946580865
99000.444021264498588
99012.332541101102834
99023.006573866601684
99027.811232278225361
99026.729128068880527
99023.242101896612439
99021.099761394129018
99022.66323263378581
99028.309959250371321
99037.752363508392591
99050.654918457803433
99113.030813350051176
99110.29374498470861
99105.386938510797336
99101.529442158251186
99098.393171859381255
99087.932295351449284
99061.303366828942671
99018.854612391005503
98971.976020256435731
98939.400375125202117
98933.155694664499606
98949.076686924672686
98970.913892769342056
98984.539559750424814
98988.161692646885058
98989.624923451119685
98996.560504314489663
99009.12367836748308
99021.933444586524274
99029.827490665702499
99031.544427142507629
99029.325724276335677
99026.571179932012456
99026.133971067800303
99029.819930940488121
99038.244315266783815
99051.169451185298385
99067.486856146177161
99117.930068705172744
99119.573531157831894
99113.846077156689717
99106.269355682161404
99102.652532486899872
99101.44704270013608
99093.275001072630403
99065.203964914209791
99017.829776676066103
98965.029518322669901
98928.534416971189785
98922.668204418223468
98942.222217099697446
98967.910706755093997
98983.27039151203644
98986.474345270180493
98986.748916694297804
98993.016720697720302
99006.089600042949314
99020.736857761396095
99031.345737757452298
99035.534434761459124
99034.356674092327012
99030.968422334437491
99028.791113013940048
99030.759244706307072
99038.369107362465002
99051.413373320174287
99068.366182063808083
99086.716606863163179
99115.762357975909254
99124.444275824003853
99125.073630113547551
99116.805293739540502
99106.79814270028146
99103.138969398511108
99104.066425051409169
99097.632304228536668
99068.964325100096175
99016.680034217657521
98958.787325602665078
98918.980295594898053
98913.494646055158228
98936.503669773926958
98965.788306295100483
98982.675174066826003
98985.421317659405759
98984.444419072548044
98989.878503796411678
99003.401216892714729
99019.71280622073391
99032.634913693007547
99038.873424830220756
99038.513843457520125
99034.471555848664138
99030.788458788476419
99031.326274576669675
99038.305123949074186
99051.529862310009776
99068.989838898211019
99088.013329064793652
99105.751448694019928
99119.948334249653271
99129.640605998501997
99129.504747371800477
99119.099365660556941
99106.957903626956977
99103.240285146792303
99106.141676315310178
99101.223093732463894
99072.171552978936234
99015.943572323565604
98953.433657576810219
98911.093015159422066
98906.047315197953139
98932.176673736612429
98964.475053577873041
98982.555059010759578
98984.704350802683621
98982.740509370254586
98987.48427737930615
99001.278962765121832
99018.960392082459293
99033.780634408249171
99041.596794501427212
99041.839696083814488
99037.178310399176553
99032.141597093141172
99031.433672221784946
99038.01384138505091
99051.540140770579455
99069.495650603770628
99088.981768329045735
99107.249550029198872
99121.283194501622347
98896.865507540889666
98916.390207923992421
98924.239306826581014
98922.675840533338487
98928.770179884886602
98946.183550289832056
99122.813619155800552
99133.317977265876834
99132.708176145722973
99120.624377496016677
99107.068688638537424
99103.1211658026441
99107.660034155880567
99104.112610502314055
99074.410597932175733
99015.72777510182641
98948.996422807045747
98904.907254170277156
98900.66477709832543
98929.252245605646749
98963.802066624048166
98982.689876391741564
98984.342936542409007
98981.468777690621209
98985.7877420046716
98999.843287840660196
99018.521153318797587
99034.651559155026916
99043.536085528408876
99044.128984678885899
99038.959645346010802
99032.918688453559298
99031.32773681479739
99037.598617993629887
99051.422171297148452
99069.78833327999746
99089.661331269438961
99108.384165597803076
99122.874341058864957
99130.022828204469988
98881.012107600268791
98893.848054070025682
98914.684040763269877
98923.235370639886241
98921.986619636532851
98928.831414850137662
98947.080144370382186
99124.305814453124185
99135.281219912096276
99134.440000399132259
99121.308314431924373
99107.026507561677136
99102.94162965277792
99108.610577950239531
99105.771173907836783
99075.532715870664106
99015.658164510023198
98946.434660288097803
98901.437955507470178
98897.972633377779857
98927.834372754310607
98963.617429657897446
98982.899710547426366
98984.20899606369494
98980.759929696374456
98984.880776161124231
98999.15792174373928
99018.338129755022237
99035.173178675366216
99044.544553045780049
99045.303770035083289
99039.839970588451251
99033.258761683158809
99031.235554414233775
99037.328246441698866
99051.247617810455267
99069.9499196124234
99090.106813257589238
99109.021710830347729
99123.747248146959464
99131.166012362853508
99129.573712836805498
98548.825280598306563
98546.467789814327261
98551.510653822319
98564.108667758991942
98583.43380226600857
98607.774207304377342
98634.690754335475503
98661.47599138757505
98685.69278450832644
98705.280633116621175
98719.209429728973191
98948.304118091778946
98940.634163222101051
98927.665359713078942
98914.26091985621315
98904.056331273619435
98898.755215707074967
98898.923166832028073
98904.406779728931724
98914.143818007141817
98925.940151740360307
98937.282674397254596
98946.463008229591651
98953.127687563261134
98957.130156225321116
98957.530305231237435
98952.60750545639894
98941.792323728805059
98927.478587239776971
98915.088646637828788
98910.472132948299986
98916.388559191444074
98930.01703084044857
98943.749548523861449
98950.143018964037765
98946.848647875071038
98938.50725109942141
98933.978086513307062
98940.034752622712404
98956.410263181271148
98975.677458755060798
98988.451599585649092
98989.758804118711851
98981.439202653215034
98969.4214985587314
98958.94347074914549
98951.347576997417491
98628.339548003947129
98638.184079875136376
98645.106797300977632
98647.704107997182291
98644.949276096594986
98636.568815246180748
98623.181891542204539
98606.393657538297703
98588.5857350165752
98572.556982446651091
98561.115607646846911
98556.564321750483941
98560.209785794257186
98572.129996697010938
98591.217603524419246
98615.402412613431807
98641.893733288510703
98667.710237728257198
98690.314154016785324
98707.889999519131379
98719.629698776305304
98911.756455406444729
98909.039273899979889
98903.396632500021951
98898.425442781590391
98895.764367739684531
98895.297186507334118
98896.488367711819592
98899.290409456196357
98904.104667557752691
98910.674290983413812
98917.921375424120924
98924.294344000067213
98928.757849912799429
98930.306527714477852
98927.731812961341348
98919.912559752337984
98907.694429950934136
98894.906630099809263
98887.483240333371214
98890.559777808040963
98905.019130502871121
98925.769850628319546
98943.018266515893629
98948.169761476587155
98939.471368597864057
98923.081725870273658
98909.421033187871217
98906.573186756795621
98915.268688051932259
98928.855317667606869
98938.345087219437119
98938.636970688443398
98931.259347902596346
98922.187670084473211
98916.948871368120308
98916.938302778755315
98642.934150885674171
98652.933308850959293
98660.834447816683678
98664.962962099540164
98663.967574762384174
98657.040881624459871
98644.403312132213614
98627.478603073890554
98608.732760487895575
98591.283640808876953
98578.194610412145266
98571.990394810331054
98574.192976589911268
98584.952570711888256
98603.110882276247139
98626.434977855693433
98652.006153100868687
98676.801240300745121
98698.207436689786846
98714.44625781821378
98724.699609395611333
98878.590396028273972
98880.825976756867021
98883.697100431396393
98887.275195363778039
98890.341641744715162
98891.804175772093004
98891.934789565129904
98891.966222191855195
98892.912501170212636
98894.604267138711293
98896.212701547890902
98896.894062440303969
98895.637505606049672
98891.029793740584864
98882.099724846120807
98869.995286512334133
98858.94081137079047
98855.112851732439594
98863.669008858167217
98884.76422490926052
98911.910435798068647
98934.009825550150708
98941.094160021224525
98930.574105663181399
98908.381090417708037
98885.099664094668697
98869.962265880560153
98866.142232745623915
98870.038051010356867
98875.008721541817067
98876.235711541899946
98873.704655998502858
98871.557341787600308
98874.088454587588785
98665.171609025259386
98672.370944905065699
98676.963916210414027
98677.336174830081291
98672.404568162251962
98662.00380976498127
98647.070716707661632
98629.744131174113136
98612.928117126997677
98599.716031095420476
98592.843077880359488
98594.020007991362945
98603.618131843672018
98620.597791013380629
98642.693053640337894
98667.032445055607241
98690.682900625426555
98711.078068895454635
98726.531221444223775
98736.066122443968197
98852.301746766563156
98860.747416086000158
98868.488316626331653
98875.264191021109582
98879.813909625358065
98881.335557579557644
98880.185875001800014
98877.229428515245672
98873.249322464398574
98868.533804764636443
98863.506083143729484
98858.600022891230765
98853.734408738542697
98847.94624584534904
98839.960557145517669
98830.038237920656684
98821.558825873231399
98820.399488726936397
98831.948677046937519
98856.82268174138153
98888.416125217729132
98915.468454748435761
98927.168534516502405
98918.801920141282608
98893.84440070472192
98861.755243637235253
98832.910196820943383
98814.042757320625242
98806.313463603291893
98806.648548148412374
98811.126212118804688
98817.571005488120136
98826.066728522841004
98837.628622852746048
98675.865596438932698
98680.124569704188616
98683.197309403229156
98683.664430095668649
98680.422677153488621
98673.01808442363108
98661.899317313815118
98648.496833342738682
98635.072571468146634
98624.309836677493877
98618.689102414035005
98619.952491807576735
98628.700362237927038
98644.22336469333095
98664.735171701249783
98687.721942010277417
98710.353982328160782
98730.081192240220844
98745.114617261482636
98754.16205669552437
98842.994065070524812
98851.144110097069643
98857.074580367145245
98861.280136547400616
98863.566635717390454
98863.107852850152995
98859.291523881620378
98851.824066515080631
98840.963231841029483
98828.136598143086303
98815.935229223003262
98806.496973627377884
98800.053815263367142
98795.073710611308343
98790.26124379124667
98786.731266250804765
98788.612097956603975
98800.825219462858513
98825.170884297069279
98857.187435155748972
98887.027127951703733
98903.856669485583552
98900.397413178681745
98876.287054085871205
98838.614657878002618
98798.331551146606216
98765.83639855425281
98747.577934952365467
98744.903108963830164
98754.790737877803622
98772.096013622853206
98792.284872843621997
98687.231708474297193
98687.113232612173306
98686.29194095103594
98683.795764289126964
98679.069053144718055
98672.230519459277275
98664.101051504039788
98656.131878044005134
98650.184354290278861
98648.120907422766322
98651.358231512087514
98660.522751450684154
98675.257339934949414