/*--------------------------------*- C++ -*----------------------------------*\
  =========                 |
  \\      /  F ield         | OpenFOAM: The Open Source CFD Toolbox
   \\    /   O peration     | Website:  https://openfoam.org
    \\  /    A nd           | Version:  12
     \\/     M anipulation  |
\*---------------------------------------------------------------------------*/
FoamFile
{
    format      ascii;
    class       volScalarField;
    location    "0.0057";
    object      p_0;
}
// * * * * * * * * * * * * * * * * * * * * * * * * * * * * * * * * * * * * * //

dimensions      [1 -1 -2 0 0 0 0];

internalField   nonuniform List<scalar> 
106891
(
98632.023807048186427
98648.15733955745236
98666.42626134279999
98684.723252879310166
98700.875271545504802
98712.962843136658194
98719.694471804730711
98720.771800255490234
98716.787608310565702
98708.769342533647432
98698.457423981191823
98935.653488373020082
98916.531984803616069
98895.270377847235068
98877.214122850520653
98867.637795889226254
98869.338816111601773
98881.256403506456991
98898.924576862948015
98917.062830242459313
98931.832579639172764
98941.133114848693367
98944.100784750567982
98940.811176517177955
98932.439992937157513
98921.041799942497164
98908.932820580725092
98897.346292014728533
98885.855871681254939
98872.978179704863578
98858.141746350738686
98843.284444992721546
98832.478682918939739
98830.092877546005184
98838.312468212476233
98856.044567134158569
98879.615661292220466
98904.534024645006866
98927.037926227902062
98944.417858748958679
98954.41821711276134
98955.240996191787417
98946.486870809167158
98930.578819965856383
98913.186479584983317
98901.401659427589038
98900.337304416301777
98910.69409372183145
98928.541258422672399
98676.752564173235442
98670.811701685510343
98662.787613278211211
98653.688240066810977
98644.829722038266482
98637.726044159091543
98633.845622961554909
98634.313514729627059
98639.626178997787065
98649.546519113922841
98663.114677998237312
98678.651266728251358
98694.05820662631595
98707.284630565787666
98716.691713518026518
98721.213385839626426
98720.580257712179446
98715.346840019861702
98706.617733242906979
98695.972754369999166
98890.954377466332517
98867.278789802774554
98847.825611481777742
98839.297168091172352
98844.820097543662996
98862.061368069087621
98884.401100452829269
98904.466675585994381
98917.759406665849383
98923.610126699393732
98923.636980799536104
98919.755265595333185
98913.649754782018135
98906.50787941282033
98899.057453525339952
98891.205790300882654
98881.897971572558163
98869.720656928533572
98854.229820100954385
98837.496955272028572
98823.921207655861508
98818.518942800277728
98824.533752540606656
98841.640442443720531
98866.064269980823155
98892.157933681242866
98914.491600276553072
98929.328861662535928
98934.892925401567481
98931.031843449323787
98919.244664870202541
98903.041511721748975
98887.995881728013046
98880.037889040337177
98882.687320070399437
98895.030655814305646
98693.187281159960548
98690.251070226251613
98684.663602251268458
98677.377357817153097
98669.656296072018449
98662.905199513712432
98658.558041419935762
98657.821262784607825
98661.31393215857679
98668.896748528815806
98679.692036070176982
98692.211931993981125
98704.580197717703413
98714.862815204207436
98721.522280291435891
98723.715805467872997
98721.391578382666921
98715.177381041939952
98706.205287902994314
98695.846522927269689
98866.110498277965235
98843.694124702931731
98826.649115053951391
98821.641328846118995
98831.124798537057359
98851.522215886958293
98874.663690599089023
98892.073833019065205
98899.744804633402964
98899.164718300511595
98894.880268126260489
98890.864046174450777
98888.893452460339176
98888.425871898580226
98887.541536836826708
98884.145564157108311
98876.720040972839342
98864.906710569979623
98849.774574647075497
98834.148221162322443
98822.184258452733047
98817.98569136414153
98824.142261750122998
98840.171162142898538
98862.278435956643079
98884.759943047116394
98902.084389009512961
98910.681841707453714
98909.705277198605472
98900.569910035221255
98886.217672504237271
98870.628324257952045
98858.402211429813178
98853.674065455852542
98858.310428985743783
98870.527190156761208
98702.277587178279646
98700.580420604950632
98696.644963924700278
98691.398843736213166
98686.08369645664061
98682.046187635845854
98680.483573173172772
98682.179322111478541
98687.275614040583605
98695.172455947307753
98704.628669478639495
98714.016499031000421
98721.619697826419724
98725.999133246310521
98726.351276746965596
98722.718852179939859
98715.893519214339904
98707.216752152511617
98697.991565818752861
98827.100906726162066
98815.815950333388173
98815.834421516396105
98828.30439193690836
98848.54643967145239
98867.903595814685104
98878.481934146780986
98877.788395036855945
98869.486858646982
98860.601510575303109
98856.956360785305151
98860.09552485831955
98867.135665702502592
98872.885246663630824
98873.131754677320714
98866.508880387904355
98854.674605232008616
98841.34035217280325
98830.64616151744849
98825.702163775160443
98827.715269095031545
98836.345401644372032
98849.96840447105933
98865.63368315839034
98879.468471580708865
98887.68544319573266
98887.990575106945471
98880.299226500777877
98866.763292708754307
98850.919248385820538
98836.54436585152871
98826.857702356181107
98823.981920574355172
98828.304217785698711
98703.956556787568843
98708.947428687941283
98711.729424752207706
98712.118767379084602
98710.368572806721204
98707.22583298193058
98703.810761634260416
98701.320199509515078
98700.772874211033923
98702.705999901590985
98706.978628899203613
98712.802488204513793
98718.904480172859621
98723.827600844902918
98726.320364551444072
98725.644126063125441
98721.781702279360616
98715.443355825831532
98708.002733060449827
98700.711460599122802
98818.717084379095468
98814.286058179786778
98818.473278502351604
98831.030992352680187
98847.096706412179628
98859.207425860950025
98861.379399339959491
98852.648697373369941
98837.934347955306293
98825.447600671977852
98822.068594312746427
98829.079159221597365
98841.780090022468357
98852.384783322442672
98854.718367416091496
98847.964325710985577
98836.594501350351493
98827.246552653188701
98825.065415558201494
98831.087641687554424
98842.183907796264975
98853.817216508541605
98863.088125902286265
98869.051943439277238
98871.349374758559861
98869.268013216365944
98861.908887809739099
98849.231150237639667
98833.075948949393933
98816.725248164002551
98803.478314599662554
98795.401256072276738
98792.962491275800858
98715.51984858851938
98722.893490428730729
98727.8601008157857
98729.954088565282291
98729.310264568135608
98726.611675605934579
98722.944400438951561
98719.540711379799177
98717.406735923796077
98717.054131989905727
98718.357394896273036
98720.55686092445103
98722.546410347509664
98723.257858474578825
98721.994989253420499
98718.68256764949183
98713.881247444063774
98708.792965766522684
98704.428205594202154
98815.311732636313536
98819.531702549589681
98827.77432965238404
98837.073527506188839
98842.283265175545239
98838.813106602334301
98825.964324964224943
98808.57482075234293
98794.499220377969323
98790.390433061867952
98797.64088129492302
98811.262368305629934
98823.0867734302592
98826.543741434536059
98821.086760100035463
98812.881123441271484
98810.136045455976273
98817.462085825784015
98833.30606263653317
98851.021502069590497
98863.271675298849004
98866.68664646189427
98862.788379996156436
98855.017031366762239
98845.319425685316673
98833.397175218560733
98818.573353162020794
98801.69552778484649
98785.465608488419093
98773.0351795264869
98766.064805236310349
98763.981043860636419
98725.882336593655054
98737.410976362400106
98746.72410636980203
98752.617445443742326
98754.518778847617796
98752.592338354035746
98747.714143140954548
98741.218820439549745
98734.572312735894229
98728.993461671561818
98725.135039047891041
98723.00159760499082
98722.043709298523027
98721.398470281012123
98720.32000447671453
98718.516191626738873
98716.211491942667635
98714.304323346645106
98713.535655025611049
98809.863501586500206
98809.146599543979391
98810.140384887097753
98810.929705256668967
98807.778085688725696
98798.343872202734929
98784.126322820578935
98770.266170299670193
98762.472233808221063
98764.006615404025069
98772.924105801954283
98783.331408011654275
98789.800528009902337
98790.952946161938598
98790.880331490552635
98795.867402690622839
98808.745695756297209
98826.585177906206809
98842.688486474711681
98850.735528976496425
98848.636999795897282
98839.246784575108904
98827.291750748074264
98815.380168067218619
98802.991478956624633
98788.874579691764666
98773.400235159599106
98759.052311142906547
98748.932495500062942
98744.44996823791007
98755.998412477332749
98768.337894627300557
98777.087867860318511
98781.060605461185332
98779.919171693763928
98774.197917852594401
98765.177401560329599
98754.590314248111099
98744.206474471924594
98735.474608926306246
98729.258003998504137
98725.727372962501249
98724.443037987235584
98724.698136732229614
98725.838343558338238
98727.5339543435839
98730.126270577093237
98733.845012060948648
98774.098413951709517
98767.167564079500153
98766.262398719612975
98768.323323493386852
98767.858645622603945
98761.038206064040423
98748.87180989915214
98736.123119336785749
98728.455927261034958
98729.372545210630051
98738.22223800442589
98751.382447650074027
98765.14250451233238
98777.795669826329686
98789.495585055032279
98799.916905174017302
98807.581946337173576
98810.996006705914624
98809.6332247426908
98804.229735505272401
98796.578241581475595
98788.419882249610964
98780.095075499411905
98770.549504075373989
98758.971573821938364
98746.588608455305803
98736.643884481774876
98732.322631477829418
98776.699055581993889
98789.982014098975924
98799.918946686637355
98804.92266993879457
98804.18337748774502
98797.863943031989038
98787.090338715875987
98773.718351940144203
98759.910721380278119
98747.688349628311698
98738.577239564663614
98733.398502415366238
98732.222710158137488
98734.564849899703404
98739.597982374267303
98746.482549118387396
98754.794720855134074
98764.018625471246196
98716.625268011674052
98715.513033227340202
98723.040237418579636
98731.579210104275262
98733.074619057733798
98724.227092588320374
98708.779080753127346
98694.68151164225128
98690.03780863902648
98699.06795761876856
98720.714133393819793
98748.619590782691375
98773.137499247357482
98786.069139525206992
98785.008412703173235
98773.62143227517663
98758.861508370464435
98747.170383863165625
98741.465740118888789
98740.576893927514902
98740.89501324640878
98738.993410766503075
98733.773198785216664
98726.970874582402757
98722.152764092796133
98722.815994962787954
98730.537498583857086
98807.228001947194571
98816.167832066770643
98820.5258011414262
98819.317495424096705
98812.493309597775806
98800.985726115250145
98786.542753228073707
98771.433771593583515
98757.966555601204163
98748.080679235907155
98743.041476400685497
98743.246182972870884
98748.374651118079782
98757.538083535764599
98769.514134599841782
98783.231599739607191
98797.619378906383645
98684.10589160634845
98670.503113733531791
98669.31355497383629
98678.701174139219802
98691.432927801841288
98698.714894289238146
98695.410591237392509
98683.260380428866483
98669.921467570529785
98665.1167199806805
98676.296822318021441
98703.574086789580178
98737.772684957322781
98764.728882342358702
98773.062446643409203
98760.306509719433961
98733.706382845281041
98705.527519390408997
98686.297827972113737
98680.024127552387654
98683.557271692348877
98690.174880977196153
98694.925797415169654
98697.649967066230602
98701.814188962904154
98711.280018658391782
98727.753588233827031
98827.242627279847511
98829.44518475845689
98826.778115820707171
98819.257033888206934
98807.776343208432081
98793.926347909946344
98779.723988603887847
98767.361999019078212
98758.775885510622174
98755.32119602849707
98757.533983345463639
98765.165691566449823
98777.30023361966596
98792.564019550409284
98809.467255681171082
98826.439601117774146
98652.562226548980107
98642.365224767301697
98643.420830455317628
98652.555826653595432
98663.967305267011398
98672.210576527417288
98673.754281413523131
98669.023088931659004
98662.657462598450365
98662.003226778222597
98673.239336650032783
98696.375526870935573
98724.235414406095515
98745.245379821484676
98749.493019042361993
98734.89955470021232
98708.086703070206568
98679.841188271529973
98659.472434343857458
98650.876278886469663
98652.10816388540843
98658.740274419105845
98667.810368917518645
98679.358522889539017
98695.259711304650409
98716.933641511539463
98743.827800773811759
98773.454407442681259
98838.824290410761023
98834.245809753570938
98825.682037944745389
98814.232586218466167
98801.517434845591197
98789.312410844344413
98779.45584257428709
98773.480482041442883
98772.344011303939624
98776.282698908442399
98784.781900001617032
98796.913893153730896
98811.430245464856853
98827.01062841618841
98842.3113854865951
98629.970774838584475
98632.410486239998136
98640.565918553998927
98650.175072583559086
98658.354388099585776
98663.652118514874019
98665.790626231420902
98666.660518148608389
98669.798008962519816
98678.553619634578354
98693.226874990403303
98710.006796354806283
98722.175445526605472
98723.558876903014607
98712.537724967856775
98693.126323022355791
98672.282822492634295
98655.950636830588337
98646.817675053040148
98644.825336078094551
98649.189038218391943
98659.792152778871241
98676.903558360791067
98700.224067216244293
98728.377770895473077
98758.988878617732553
98789.469292526191566
98842.362265386123909
98833.217356131164706
98822.144761780262343
98810.863329171857913
98801.163447339073173
98794.385157092605368
98791.277212912027608
98792.119010535898269
98796.696970532662817
98804.582665999711026
98814.976515894275508
98826.850390857114689
98839.196484352622065
98851.077476344114984
98632.388548431888921
98639.452495701101725
98647.329468081254163
98655.44341183884535
98663.845931815492804
98671.943300579194329
98678.907152536339709
98683.765331461181631
98687.629449128915439
98691.73324439614953
98695.821411994067603
98698.72625494938984
98698.639053904335015
98694.076151185625349
98685.619934126443695
98675.646144447207917
98666.612465922225965
98660.132201464861282
98657.383239956747275
98659.938799313764321
98669.725157390261302
98687.912120655892068
98713.229545482769026
98742.176877131947549
98770.876463779830374
98797.10147038717696
98844.052201141952537
98834.075368760255515
98824.737689538989798
98817.458739725290798
98813.10295951802982
98811.968617793725571
98813.912874653207837
98818.496690760948695
98825.016520728604519
98832.678610955947079
98840.734859197516926
98848.705616812847438
98856.267879669394461
98649.035513210736099
98656.414185624496895
98664.543180817956454
98674.607860276155407
98685.79335967823863
98694.64756272957311
98698.743060068562045
98697.09778939645912
98691.393636574648554
98685.517242016125238
98681.651653293069103
98680.399154560465831
98681.259964746917831
98683.085205755967763
98684.670009686626145
98685.278382745091221
98684.937309250031831
98684.898661683793762
98687.677171831484884
98696.002063471067231
98711.142497147011454
98732.310452474557678
98755.452661105999141
98776.582800600546761
98794.939689799706684
98848.920112890205928
98841.674822214263259
98836.5631371181953
98834.107576666894602
98834.275979330588598
98836.584652899677167
98840.275086827095947
98844.607333716427092
98848.976154332820443
98852.98491645231843
98856.691966302663786
98860.243666230497183
98675.072528293690993
98683.155894527793862
98692.915621225634823
98703.349822508549551
98710.691169649609947
98711.425341909067356
98704.521847432421055
98692.996958598261699
98681.534951476423885
98674.100016976473853
98672.40190186817199
98676.434226996541838
98684.798437475270475
98695.43726111932483
98706.058366767203552
98714.771436069553602
98721.22090711123019
98726.794761921177269
98733.825607026214129
98743.506185643927893
98754.599291736187297
98765.545711514045252
98775.461327223325497
98785.365005392101011
98708.69299636100186
98716.637653280879022
98723.305825105548138
98726.004580783031997
98722.00880622920522
98711.141018139984226
98696.885979113911162
98683.971806976856897
98675.94874426718161
98674.520760437648278
98679.885211495144176
98691.25799613072013
98707.299511480581714
98725.815976708341623
98743.828772487671813
98758.623665808772785
98768.988505004512263
98774.848148339558975
98777.241255838656798
98777.211822754441528
98775.284806755516911
98772.660413053134107
98772.992492554141791
98743.816344915248919
98740.406027599878144
98731.277268720557913
98717.870401986918296
98703.700346926736529
98692.337917346128961
98685.965108419986791
98685.342873427289305
98690.604097811054089
98702.162921052746242
98720.250964179460425
98743.624236361269141
98768.906891939943307
98791.238874068119912
98806.127132240115316
98811.558881467470201
98807.985011761396891
98797.62526028076536
98783.92731917394849
98771.188784260215471
98764.840785916647292
98713.5737981681159
98705.215804504055995
98701.312201407316024
98701.35197422291094
98705.601895610205247
98715.608435032045236
98733.204196434351616
98758.436887222022051
98787.960822413253481
98815.465700991509948
98834.126721496228129
98839.5792152529757
98831.52448516280856
98813.524238754704129
98791.482349107973278
98772.048862180265132
98761.521345438421122
98723.011498945517815
98730.613896314709564
98746.055349290152662
98770.630991049474687
98801.458230281379656
98831.377512480758014
98851.811628985684365
98856.817343738861382
98845.731734760498512
98823.163651785827824
98796.791565105566406
98774.548808791281772
98762.675680046595517
98746.149224961074651
98758.669305104893283
98780.812252087605884
98810.109202508421731
98839.342886914135306
98859.27872362578637
98863.279283746436704
98850.551457275811117
98826.305786616037949
98799.120958230545511
98777.327415561463567
98766.510124292006367
99083.090591475629481
99066.588229795423103
99045.970489098865073
99021.549376349474187
98996.845759661548072
98978.796626844574348
98972.538201978866709
98977.350190431665396
98986.913325145433191
98994.299729655002011
98998.017751840219717
99002.083721182367299
99009.923458723336807
99019.514006027049618
99024.882655954221264
99022.573106095092953
99015.225242929605884
99008.893414977021166
99008.322133285022574
99014.295292675000383
99097.813254703476559
99089.281482221529586
99074.360737335256999
99051.555957529242733
99020.451625777408481
98987.802236397241359
98964.787823292252142
98958.741652488839463
98967.383774591842666
98981.045149380865041
98990.570203583512921
98994.37112670429633
98997.803955099356244
99005.661926940316334
99016.577486832422437
99024.611639146372909
99025.759192359968438
99021.509255841738195
99016.608008560346207
99015.27816630381858
99019.059701882884838
99027.04995798136224
99106.455820148345083
99103.997191274960642
99099.940968899070867
99094.382813775388058
99081.37291294564784
99056.323966963376733
99019.169758866119082
98979.09248724943609
98951.509122760166065
98945.763531545570004
98958.283776045413106
98975.994163222974748
98987.575900882831775
98991.353983699067612
98993.903277486257139
99001.428312732008635
99013.35338710618089
99023.852180535905063
99028.397144469083287
99027.129768906364916
99023.606495948304655
99021.542090231654583
99023.234898552807863
99029.019538710723282
99038.583193324622698
99051.586939686196274
99113.215052295214264
99110.33147456284496
99105.426083374943119
99101.611241424106993
99098.421704293912626
99087.54194075425039
99060.386498078747536
99017.611658870824613
98970.965715110811288
98939.204586976266
98933.916417680782615
98950.390522230838542
98972.191103925273637
98985.488121059883269
98988.906103815985261
98990.451045491776313
98997.596264391162549
99010.24512082664296
99022.931604873680044
99030.58328755099501
99032.08093993033981
99029.752020641681156
99027.009594176139217
99026.671387471447815
99030.509935175839928
99039.093866217081086
99052.147721436922438
99068.526475414459128
99118.313402499989024
99119.680051751391147
99113.762174496485386
99106.244398365131929
99102.771176223875955
99101.537732457873062
99092.90761080395896
99064.151251259449054
99016.384413100313395
98963.839055623378954
98928.286958721611882
98923.526506419002544
98943.705232070424245
98969.324326658155769
98984.275147564330837
98987.216304632573156
98987.571905010583578
98994.081964575598249
99007.291360978488228
99021.865063119199476
99032.248118829898885
99036.186649915325688
99034.833781882203766
99031.39636290280032
99029.297347143277875
99031.433044812103617
99039.238548944325885
99052.436591378078447
99069.453870845172787
99087.755791540563223
99116.376648285266128
99124.841717842384242
99125.113654482978745
99116.61457437138597
99106.71187371542328
99103.297361883349367
99104.209500336102792
99097.305048127571354
99067.792168799744104
99015.055446454047342
98957.441655551534495
98918.682003545996849
98914.442197424810729
98938.140970588268829
98967.320460384085891
98983.720777838825597
98986.153748549128068
98985.243376581696793
98990.960321035396191
99004.676400155076408
99020.952373343665386
99033.660631220482173
99039.618490857741563
99039.0302115684608
99034.889257686358178
99031.267358062556013
99031.987486883284873
99039.186258183195605
99052.58867437527806
99070.120700437328196
99089.10330895743391
99106.668444519804325
99120.632860636920668
99130.057548264769139
99129.48457062979287
99118.82644306270231
99106.814389389401185
99103.427159660466714
99106.350984382996103
99100.905344850427355
99070.931870576416259
99014.131578768545296
98951.97668275385513
98910.758029803881072
98907.078666813889868
98933.949698315918795
98966.105642211914528
98983.625630439666566
98985.425447670801077
98983.53130420819798
98988.574260090419557
99002.604554116303916
99020.28897017078998
99034.900996006370406
99042.410554063899326
99042.379670751543017
99037.580254285421688
99032.586359721564804
99032.082163964441861
99038.918042289282312
99052.631636489459197
99070.659521326364484
99090.098826948291389
99108.208286531546037
99121.95177085850446
98898.203047204093309
98917.654235175345093
98925.054382950242143
98923.377178550246754
98929.723707019889844
98947.130247459208476
99123.549462068636785
99133.747324324795045
99132.643332850682782
99120.286539322900353
99106.882621791330166
99103.328134510375094
99107.92570786520082
99103.788685842941049
99073.120566842204425
99013.784425049117999
98947.42320638273668
98904.571334674968966
98901.767294414123171
98931.132696372194914
98965.503425266811973
98983.783418865641579
98985.051306337292772
98982.250019517130568
98986.889326530465041
99001.201967383807641
99019.906781473080628
99035.836044283088995
99044.395657101005781
99044.680547136755195
99039.344465832182323
99033.338283582983422
99031.962444435164798
99038.515938164608087
99052.541543501836713
99070.977397020484204
99090.809586700008367
99109.370910619109054
99123.573648795034387
99130.332066759918234
98881.666404676667298
98895.232410533397342
98915.989302115645842
98924.076836786363856
98922.714644441366545
98929.821014182933141
98948.039947993936948
99125.070272147713695
99135.715204275024007
99134.351258421607781
99120.929013376138755
99106.822624592212378
99103.15465262249927
99108.920431375387125
99105.442612300263136
99074.207639291838859
99013.649065647070529
98944.784913852156023
98901.117238392645959
98899.120778776166844
98929.773967820496182
98965.359420450753532
98984.004914720047964
98984.905310436763102
98981.532930881206994
98985.988848741544643
99000.54333302154555
99019.759574466457707
99036.390044497515191
99045.426074914605124
99045.860962798658875
99040.213315655069891
99033.665075362019707
99031.864238992595347
99038.245147589186672
99052.379836146064918
99071.164148566502263
99091.269957434909884
99110.019970763954916
99124.461227099804091
99131.491594212013297
99129.497545062666177
98549.003667216136819
98547.019339099861099
98552.468668479239568
98565.44543348911975
98585.065462077254779
98609.57599056509207
98636.513659669479239
98663.172177419663058
98687.139072228761506
98706.396004424299463
98719.962684380923747
98948.010009641438955
98940.087344638988725
98927.033810857043136
98913.704664831515402
98903.669081133106374
98898.57931822311366
98898.968687642482109
98904.657815196827869
98914.534587214977364
98926.369562368665356
98937.650260924492613
98946.719226986562717
98953.2573901705764
98957.120047985110432
98957.337297239355394
98952.199082744293264
98941.214269538133522
98926.888405354315182
98914.703311469085747
98910.446676509949611
98916.706256761492114
98930.45391027230653
98944.000037334946683
98950.024593149530119
98946.428269610842108
98938.079465556904324
98933.866699135745876
98940.355421567976009
98956.968671727750916
98976.084727133216802
98988.384908535212162
98989.152723420949769
98980.473617273470154
98968.352783629015903
98957.93244256725302
98950.391694193196599
98629.68340710834309
98639.381171244662255
98646.065910271732719
98648.35719741662615
98645.268268797386554
98636.569954480059096
98622.929697899278835
98606.000552497018361
98588.195293423865223
98572.323930220518378
98561.178469758335268
98557.020892149274005
98561.10229900162085
98573.433190462688799
98592.840711635682965
98617.205920299442369
98643.715139202366117
98669.39200156685547
98691.727443487092387
98708.956095920410007
98720.330096327816136
98911.691726638688124
98908.83302586019272
98903.180799680107157
98898.28075336686743
98895.702688613251667
98895.295619712007465
98896.538975335395662
98899.412437544800923
98904.313622452755226
98910.945183155330596
98918.193348613756825
98924.503770565090235
98928.855917844135547
98930.247037347726291
98927.47468601091532
98919.460819452564465
98907.154141987222829
98894.476079719723202
98887.376283579375013
98890.87834595933964
98905.662592323991703
98926.426318406913197
98943.313059420208447
98947.911247941839974
98938.773650250659557
98922.301253215642646
98908.937404969386989
98906.54608931671828
98915.539629594073631
98929.063529611201375
98938.178088419081178
98938.026099563372554
98930.386209025688004
98921.324719824115164
98916.266724588669604
98916.421022884285776
98644.222765264261398
98654.150308816708275
98661.882684679148952
98665.756035691869329
98664.44825132045662
98657.197168404090917
98644.279855401851819
98627.170353153211181
98608.379417832111358
98591.044731750080246
98578.218130838751676
98572.391136258811457
98575.027581173024373
98586.208284285617992
98604.706591409209068
98628.227225279959384
98653.82163441432931
98678.478510467539309
98699.621672540757572
98715.524678520669113
98725.426020204395172
98878.790402742481092
98881.036680663339212
98883.93294332921505
98887.485426845858456
98890.466002648128779
98891.836444300613948
98891.923041040849057
98891.980815814604284
98892.980184034415288
98894.703826769778971
98896.298450654707267
98896.919772918190574
98895.543888428161154
98890.766292865300784
98881.671276212407975
98869.519919285987271
98858.630318756520865
98855.19432257952576
98864.239661065250402
98885.682831065991195
98912.813174829716445
98934.466255938896211
98940.860595851685503
98929.740739404223859
98907.297196409141179
98884.164852501329733
98869.409829429772799
98865.933006612351164
98869.933654999636929
98874.76236233394593
98875.756892669844092
98873.109504074163851
98871.061100608494598
98873.826145037863171
98666.28015543903166
98673.38532987133658
98677.799212698286283
98677.923722803840064
98672.716511898019235
98662.06120345745876
98646.94629074606928
98629.553608362126397
98612.809474639070686
98599.811563205104903
98593.269340570754139
98594.841597831531544
98604.836798186530359
98622.147010518368916
98644.450985284449416
98668.84548998970422
98692.390638692930224
98712.548414848846733
98727.68292717669101
98736.870389946881915
98852.878224509375286
98861.289370391576085
98868.975888074754039
98875.63433142399299
98880.015440228409716
98881.37242628520471
98880.111705315415747
98877.102997260808479
98873.109558739684871
98868.39895099203568
98863.386890933630639
98858.490734123784932
98853.597918847022811
98847.726084478970733
98839.62983055166842
98829.673615467210766
98821.354931940571987
98820.590856047609122
98832.661601475934731
98857.928733077002107
98889.543916945258388
98916.167147486863541
98927.124834107977222
98917.998004934372148
98892.546055327926297
98860.360244810726726
98831.75141049202648
98813.26424107310595
98805.861888611529139
98806.379767788035679
98810.933924709854182
98817.441640887293033
98826.054816082760226
98837.772464732712251
98676.75545818550745
98681.004107045606361
98683.995730949784047
98684.318455769855063
98680.892589834009414
98673.300695877056569
98662.036330730334157
98648.569893316293019
98635.192648298281711
98624.596205164372805
98619.243787212093594
98620.840228829154512
98629.93076271013706
98645.746923523111036
98666.454584593811887
98689.50785708388139
98712.066001274302835
98731.594170667289291
98746.337530213349964
98755.049648606873234
98843.692712741336436
98851.695676189934602
98857.481042750310735
98861.544266874348978
98863.67983233933046
98863.066859469472547
98859.109995797174633
98851.522663096067845
98840.580760169395944
98827.748818709063926
98815.624618650370394
98806.294950041250559
98799.916401486392715
98794.936280179565074
98790.117849509842927
98786.698093359053019
98788.882612300832989
98801.548420935185277
98826.297677075315733
98858.423159875630517
98887.945368246539147
98904.085355002782308
98899.7681536666787
98874.927549315965734
98836.884509223600617
98796.656301796552725
98764.55528262774169
98746.852393891575048
98744.712711858330294
98754.983305929330527
98772.496252900295076
98792.757233943339088
98687.882171666991781
98687.796524931269232
98686.960405870544491
98684.405905112726032
98679.599502867335104
98672.6913314981648
98664.534226438277983
98656.605225276536657
98650.778559675251017
98648.913192242514924
98652.404337751228013
98661.840657520951936
98676.816953925503185
98695.940084699948784