/*--------------------------------*- C++ -*----------------------------------*\
  =========                 |
  \\      /  F ield         | OpenFOAM: The Open Source CFD Toolbox
   \\    /   O peration     | Website:  https://openfoam.org
    \\  /    A nd           | Version:  12
     \\/     M anipulation  |
\*---------------------------------------------------------------------------*/
FoamFile
{
    format      ascii;
    class       volScalarField;
    location    "0.0057";
    object      pMean;
}
// * * * * * * * * * * * * * * * * * * * * * * * * * * * * * * * * * * * * * //

dimensions      [1 -1 -2 0 0 0 0];

internalField   nonuniform List<scalar> 
106891
(
98708.072527367854491
98708.825679410976591
98709.607617800487787
98710.418801551641081
98711.260487599342014
98712.134673846929218
98713.043566446140176
98713.990189347023261
98714.975320615907549
98716.000659245706629
98717.057039156454266
98693.922052541936864
98693.833040457873722
98693.754214926273562
98693.685338835697621
98693.623658481519669
98693.564456264546607
98693.502879671344999
98693.435659142181976
98693.361806804896332
98693.282258363135043
98693.199048136317288
98693.114821289826068
98693.031953640223946
98692.952027961422573
98692.875939806821407
98692.803665568731958
98692.734481752675492
98692.667713222239399
98692.603484929830302
98692.542698490273324
98692.486207983791246
98692.433498561338638
98692.382151475234423
98692.328472661349224
98692.268858377879951
98692.200792483781697
98692.12338894054119
98692.037295443558833
98691.94427404020098
98691.846686123899417
98691.747737014229642
98691.651439170193044
98691.561551664286526
98691.480175866541686
98691.406628497468773
98691.33733405181556
98691.267283774315729
98691.192199570155935
98706.011763018308557
98706.551334047995624
98707.116928809002275
98707.710051824265975
98708.331901820143685
98708.983270149692544
98709.664490872848546
98710.375424707162892
98711.115470319899032
98711.88385575011489
98712.679933694089414
98713.503515045827953
98714.354990266714594
98715.235508645215305
98716.146943477288005
98717.09135152908857
98718.071417342973291
98719.087741235649446
98720.141751785209635
98721.224745552855893
98693.936290567318792
98693.860467291931855
98693.795253402189701
98693.737171000582748
98693.680416668546968
98693.619274432174279
98693.550312686798861
98693.473263605294051
98693.390544774039881
98693.30565969539748
98693.221568860855768
98693.139806922030402
98693.060483250781544
98692.983127831204911
98692.907281988853356
98692.832463930419181
98692.758759859745624
98692.687133377883583
98692.619098614799441
98692.555926857981831
98692.497358709253604
98692.441141716073616
98692.383779931391473
98692.321298681243206
98692.250468096302939
98692.169841648908914
98692.080287294840673
98691.984336405788781
98691.88530415877176
98691.786930089612724
98691.692851068641176
98691.605798391799908
98691.526614717135089
98691.453545273368945
98691.382777701233863
98691.309992420559865
98709.393965494076838
98709.983173175161937
98710.597083319938974
98711.237187033169903
98711.904779300879454
98712.600750974495895
98713.325467706046766
98714.078822556708474
98714.860308789851842
98715.669210239182576
98716.504840290450375
98717.366910640193964
98718.255688119097613
98719.172119985858444
98720.117822858315776
98721.09464791987557
98722.105022401461611
98723.149558792996686
98724.2294940695283
98725.336476788754226
98694.060976213077083
98693.987413234339328
98693.923469275963726
98693.865302138103289
98693.806767625253997
98693.742262335828855
98693.668965768272756
98693.588022271884256
98693.503266548868851
98693.418838174329721
98693.33722833354841
98693.258581746675191
98693.181431167336996
98693.104097152332542
98693.025677646277472
98692.946159543716931
98692.866559559639427
98692.788644461325021
98692.714125737562426
98692.643969248834765
98692.57784765966062
98692.513940695105703
98692.449041674219188
98692.379533798346529
98692.302517138406984
98692.216904001397779
98692.123767909040907
98692.026104637421668
98691.927699377847603
98691.832060368004022
98691.741856080509024
98691.658468981491751
98691.581737770757172
98691.509702193070552
98691.438897310406901
98691.365883094680612
98713.402173501512152
98714.061512367916293
98714.74532666268351
98715.454920006581233
98716.191374553352944
98716.955342502624262
98717.746954979898874
98718.565865386772202
98719.411481418486801
98720.283206487467396
98721.180714988120599
98722.10410064845928
98723.053991915658116
98724.031615980988136
98725.038493357278639
98726.076668291672831
98727.146657623408828
98728.249484494997887
98729.377213199011749
98694.13003794735414
98694.064347188541433
98694.002024535104283
98693.93737552582752
98693.865681609589956
98693.785673734295415
98693.700086975542945
98693.613887440005783
98693.531564215256367
98693.454980211376096
98693.382507267713663
98693.310384597047232
98693.235168482817244
98693.155427210178459
98693.072171740161139
98692.988002576836152
98692.905552002062905
98692.826436806863057
98692.750773010804551
98692.677042102746782
98692.602833679135074
98692.525817483678111
98692.444297806199756
98692.357282711571315
98692.264842930599116
98692.168639101975714
98692.071531300476636
98691.976453880779445
98691.885769690517918
98691.800910302990815
98691.722152082220418
98691.648614600257133
98691.578503230659408
98691.509320510042016
98716.108876925893128
98716.789606780817849
98717.491327310417546
98718.215434981233557
98718.963370132347336
98719.736420619752607
98720.53551295066427
98721.361120252870023
98722.213288299288251
98723.091726490180008
98723.995960580097744
98724.925587159072165
98725.880501960855327
98726.861055803412455
98727.868121468738536
98728.902853490726557
98729.966784257208928
98731.060192740536877
98732.183760391490068
98733.329902142024366
98694.287289286367013
98694.21626410188037
98694.146166334990994
98694.072943742037751
98693.993549329490634
98693.907898175893934
98693.819206426211167
98693.732563324316288
98693.652377815509681
98693.579929609491955
98693.512341081528575
98693.444325242860941
98693.371196641659481
98693.291100819667918
98693.205779554409673
98693.119156162472791
98693.034740858711302
98692.953578927015769
98692.874095277264132
98692.793042020508437
98692.707511148939375
98692.616922623303253
98692.522764591456507
98692.426765630065347
98692.330163715188974
98692.234104487186414
98692.139989839488408
98692.049404187811888
98691.963753632604494
98691.88379469269421
98691.809325383903342
98691.739201043383218
98691.671694831515197
98720.124751464420115
98720.866551466577221
98721.628153598780045
98722.411109331107582
98723.217053040294559
98724.04744651830697
98724.90339370239235
98725.785451051764539
98726.693602086539613
98727.627410827175481
98728.586334214051021
98729.570030181683251
98730.578536479442846
98731.612352444615681
98732.67222916445462
98733.759178319887724
98734.873271521733841
98736.014927676325897
98737.177119108295301
98694.359525427455083
98694.281261203766917
98694.20088540505094
98694.116579684297903
98694.028493076213636
98693.9396287965792
98693.854579636928975
98693.777062619614298
98693.707698548969347
98693.643207329572761
98693.577852403774159
98693.506719969882397
98693.42809499570285
98693.344012450033915
98693.25876454419631
98693.175487976550357
98693.093742349519744
98693.010196043178439
98692.92125342489453
98692.825305628328351
98692.723947906924877
98692.620985467699938
98692.520021012911457
98692.422850824979832
98692.329692764207721
98692.240382887117448
98692.155226901304559
98692.074987795422203
98692.000215864944039
98691.93034059459751
98691.863934911176329
98691.799692946311552
98723.376081104637706
98724.154985116285388
98724.951254917061306
98725.766495501520694
98726.602614826639183
98727.461522190686082
98728.344795051860274
98729.253474896686384
98730.188047873991309
98731.148497688540374
98732.134398547379533
98733.145141935543506
98734.180231121121324
98735.239445421015262
98736.322891597097623
98737.431018267394393
98738.56366145357606
98739.720916151069105
98740.89638953685062
98694.410278268711409
98694.327101649469114
98694.24344704055693
98694.158496176736662
98694.073146017864929
98693.989973012750852
98693.911915873162798
98693.840474658034509
98693.774422812959529
98693.709998473350424
98693.642610898721614
98693.569222149671987
98693.489901589709916
98693.407207770709647
98693.323403324699029
98693.238295147821191
98693.149540509766666
98693.054749389819335
98692.953457044408424
98692.848302661368507
98692.744013959818403
98692.644710503926035
98692.551957092029625
98692.465061687500565
98692.382632724067662
98692.304146301437868
98692.230023647876806
98692.16059366837726
98692.095234863649239
98692.032636566145811
98727.331453432663693
98728.159158788912464
98729.003988909316831
98729.867875343858032
98730.752895566372899
98731.661003509274451
98732.593761591255316
98733.552130705822492
98734.536419895899598
98735.546375839578104
98736.581382723496063
98737.640579652943416
98738.723118411086034
98739.828313566555153
98740.955727558248327
98742.104606173088541
98743.27467556821648
98744.460360517536174
98694.43778907545493
98694.3606636984332
98694.283702691202052
98694.204717453641933
98694.123757171342731
98694.043508834889508
98693.967504754735273
98693.897636807043455
98693.832959589446546
98693.769861043401761
98693.703948148147902
98693.632048432147712
98693.553194170890492
98693.468189714520122
98693.378056252360693
98693.283566202298971
98693.185951415041927
98693.087185720607522
98692.989797661357443
98692.896174993817112
98692.807628640191979
98692.72419672695105
98692.645192467491142
98692.570092754889629
98692.498829551972449
98692.431677819651668
98692.36856488873309
98692.308378876274219
98730.365646857215324
98731.220554855754017
98732.091271062934538
98732.979777721804567
98733.888331645386643
98734.819134221048444
98735.774037542752922
98736.754303275156417
98737.760461455633049
98738.792290197670809
98739.84896954256692
98740.929326185476384
98742.032085384067614
98743.155985335746664
98744.299939904536586
98745.462683786608977
98746.64339740210562
98747.836847826780286
98694.479117165072239
98694.412530051777139
98694.341690177869168
98694.264890576698235
98694.184544056013692
98694.105661706620594
98694.032907910746871
98693.967900592528167
98693.908306823388557
98693.848410108650569
98693.78146021788416
98693.702450627562939
98693.610485003824579
98693.509555258075125
98693.406549906692817
98693.308096135311644
98693.218102099664975
98693.136974046661635
98693.062575682706665
98692.992119651578832
98692.923721933024353
98692.857167988855508
98692.793272788374452
98692.732733277371153
98692.675468701010686
98692.62020369230595
98692.564667629878386
98734.132168829237344
98735.025971584313083
98735.936888610274764
98736.866812409585691
98737.817793107024045
98738.791740132772247
98739.790074587319396
98740.813516652648104
98741.861976155181765
98742.934675274853362
98744.030273204291007
98745.147178274768521
98746.283791998488596
98747.438647100832895
98748.610216501139803
98749.797452975253691
98750.995815170317655
98694.636855178105179
98694.578475199232344
98694.520906138175633
98694.458408908481942
98694.387856831468525
98694.310686149678077
98694.23193156029447
98694.157486485739355
98694.090843738056719
98694.03075962830917
98693.971293898794102
98693.904330884484807
98693.823721972177736
98693.728789779008366
98693.62551332442672
98693.523798797556083
98693.432634237280581
98693.356296088197269
98693.293549754889682
98693.239600063709076
98693.189175414037891
98693.139043231043615
98693.088670777564403
98693.03897049256193
98692.990346510603558
98692.941666733051534
98692.890650880261092
98737.792083798543899
98738.722015055915108
98739.67077851461363
98740.640103879573871
98741.631437645075493
98742.645755881298101
98743.683483684901148
98744.744467054188135
98745.828017604333581
98746.932984959785244
98748.057907556503778
98749.201176149275852
98750.36117404383549
98751.536221979826223
98752.725056377166766
98753.923763224447612
98694.708994366257684
98694.656284696960938
98694.602169366073213
98694.542467100953218
98694.475660292577231
98694.403169035620522
98694.328463386395015
98694.255500291663338
98694.186969340924406
98694.122532105524442
98694.058072057610843
98693.987512422158034
98693.906166999659035
98693.813821493662545
98693.715875593072269
98693.621235031750984
98693.537904908938799
98693.469711426616414
98693.415647055575391
98693.371459051166312
98693.332263648131629
98693.294701246588374
98693.2573761974636
98693.219609278254211
98693.1802989783464
98693.137667001486989
98693.089784632669762
98693.035334950967808
98740.971672233790741
98741.932176472910214
98742.91281900924514
98743.914680603164015
98744.938378167775227
98745.984078993002186
98747.05147433457023
98748.139788360989769
98749.2478750396549
98750.374324765100027
98751.51774762228888
98752.676849740892067
98753.850326888263226
98755.03714880264306
98756.234236460644752
98694.699650797672803
98694.647107290162239
98694.588714697398245
98694.523735043112538
98694.453621005581226
98694.380824834996019
98694.307838566543069
98694.236502106505213
98694.166996930260211
98694.097289086625096
98694.024049901330727
98693.94473170870333
98693.859556337265531
98693.772211402654648
98693.688629607757321
98693.614333068879205
98693.552266554921516
98693.502059636462945
98693.461123025786947
98693.426483049508533
98693.395449608171475
98693.365612872308702
98693.334693968325155
98693.300411183212418
98693.2607769274764
98693.214519857589039
98693.161528821830871
98743.693086287225015
98744.680529371020384
98745.688543435535394
98746.71750705561135
98747.767282950284425
98748.837253534118645
98749.926534132682718
98751.034081850593793
98752.158797372161644
98753.299657576833852
98754.455623567017028
98755.625765207747463
98756.809344854176743
98758.003862907469738
98694.673899626955972
98694.615187491988763
98694.551292723233928
98694.4833132604399
98694.412219323086902
98694.338764648913639
98694.263896509073675
98694.188701731138281
98694.113890808061115
98694.039034699511831
98693.963514917908469
98693.887559989423607
98693.812655518428073
98693.741132016628399
98693.675521790370112
98693.61766362155322
98693.568048057131818
98693.525967193665565
98693.490163683847641
98693.459037590146181
98693.430424037418561
98693.401426721378812
98693.369005080676288
98693.331068350045825
98693.287235453666653
98693.2384639375814
98746.245530555330333
98747.25667789344152
98748.287799902303959
98749.338587855949299
98750.408390232143574
98751.496352609538008
98752.601556313733454
98753.723099897761131
98754.860237836910528
98756.01229888497619
98757.178721575735835
98758.359003018107614
98759.551063541541225
98694.618633275211323
98694.553543604357401
98694.484477987527498
98694.411815067491261
98694.335795132370549
98694.257130188227165
98694.177648315439001
98694.099667630260228
98694.025377824582392
98693.955488284293097
98693.889648053213023
98693.827240051934496
98693.767664643906755
98693.710719839858939
98693.656975938181859
98693.607174149146886
98693.561824685093598
98693.521266056093737
98693.485268449701834
98693.45241055637598
98693.420245918197907
98693.38626381510403
98693.349080273124855
98693.309148567321245
98693.267780773516279
98748.646843045557034
98749.677944469032809
98750.727633167858585
98751.795231851981953
98752.879995137322112
98753.981250772747444
98755.098404859672883
98756.231092018526397
98757.378963130060583
98758.541738778832951
98759.719089723788784
98760.909199751811684
98694.534782185655786
98694.462248699986958
98694.3865334950533
98694.307904536806745
98694.227359289143351
98694.146870361160836
98694.069424495930434
98693.997943105554441
98693.933682848175522
98693.875838508160086
98693.822569335083244
98693.771854312391952
98693.721967872639652
98693.672103613658692
98693.622368301977986
98693.573373101564357
98693.526145553361857
98693.481694642367074
98693.440372782366467
98693.401394846951007
98693.363869970999076
98693.327713633174426
98693.293561490776483
98693.261856228506076
98694.414987729673157
98694.335259614803363
98694.253845138999168
98694.172160853631794
98694.092533369301236
98694.018014199362369
98693.951050037256209
98693.892052801646059
98693.839799355278956
98693.792248932775692
98693.747206379848649
98693.702515581375337
98693.65651082729164
98693.608219784859102
98693.557537278742529
98693.505180846928852
98693.452788191134459
98693.40243557615031
98693.355901551956777
98693.314257964084391
98693.278403511823853
98693.249215967400232
98693.226747605309356
98694.185105710392236
98694.103085966795334
98694.025643773638876
98693.954988170793513
98693.892443661155994
98693.837757564688218
98693.789463840439566
98693.745598980065552
98693.704155194427585
98693.663002871006029
98693.620096590020694
98693.573511298003723
98693.521922350861132
98693.465410387638258
98693.406007632715045
98693.347535334934946
98693.294094496261096
98693.248867525180685
98693.213892562343972
98693.189794346602866
98693.17510094420868
98693.820299330371199
98693.768421318716719
98693.721745669725351
98693.678867261551204
98693.638507462121197
98693.599200144846691
98693.558696437277831
98693.514107280381722
98693.463002894321107
98693.404772819354548
98693.341600949774147
98693.27825897942239
98693.220624957728432
98693.173540174335358
98693.139759258323465
98693.11948580761964
98693.110165231002611
98693.561529247352155
98693.52303878654493
98693.484114961145679
98693.441550626332173
98693.39203298962093
98693.334065782182734
98693.269674450100865
98693.204417244167416
98693.145342379124486
98693.098365091049345
98693.066310689639067
98693.048734309253632
98693.04226886597462
98693.431448227085639
98693.393524107290432
98693.352632870926755
98693.305006566675729
98693.248839452586253
98693.186224803153891
98693.122808419371722
98693.065843898046296
98693.021360221813666
98692.991967356676469
98692.976534656379954
98692.970961196711869
98697.728905432028114
98697.631252644423512
98697.544184352751472
98697.468510246559163
98697.404827292615664
98697.351165023137582
98697.301996302921907
98697.250554549711524
98697.192143398933695
98697.126273066285648
98697.055237553533516
98696.980851086773328
98696.902453116024844
98696.818295538891107
98696.729289622511715
98696.639565438643331
98696.553343006846262
98696.471856830292381
98696.393330497143324
98696.314497843763093
98697.851783997073653
98697.743570148362778
98697.643294164707186
98697.553181836323347
98697.476328378746985
98697.415084738808218
98697.366990548252943
98697.324457309819991
98697.278348215084407
98697.222896574865445
98697.158164866312291
98697.087655951589113
98697.014036353386473
98696.936638379876968
98696.85346781554108
98696.76483712324989
98696.674298466081382
98696.585895126147079
98696.501269456770387
98696.419540266011609
98696.338455350167351
98696.255350356426788
98698.100333515918464
98697.980738976548309
98697.86688222567318
98697.758177579569747
98697.655397650421946
98697.562325133476406
98697.484243363462156
98697.424930109744309
98697.381859985049232
98697.345334439683938
98697.303872283548117
98697.250944985222304
98697.187149276418495
98697.117162384965923
98697.044434147013817
98696.96836784768675
98696.886468561890069
98696.798542585689574
98696.707633022844675
98696.617587171975174
98696.530416234891163
98696.446015286608599
98696.36292061911081
98696.278881506805192
98696.191503004432889
98696.098983798816334
98698.235708812775556
98698.109328809630824
98697.989221781463129
98697.875336930359481
98697.766052475242759
98697.661273394653108
98697.565744315565098
98697.486724094182136
98697.42958411181462
98697.391415944759501
98697.360557738793432
98697.32343272921571
98697.272545862666448
98697.209072633035248
98697.138983758486575
98697.066549431954627
98696.991383383428911
98696.910495565578458
98696.82301793640363
98696.731492087739753
98696.639574050102965
98696.549747576529626
98696.462839173822431
98696.378044704775675
98696.293308978769346
98696.206000704638427
98696.113736442843219
98696.014450086979195
98698.37635980079358
98698.24375560968474
98698.116541984200012
98697.997078892658465
98697.884107064688578
98697.77465037816728
98697.668047601255239
98697.569861779309576
98697.489797306450782
98697.434334994264646
98697.400331893921248
98697.374316388057196
98697.340745859240997
98697.291342596072354
98697.2279372317862
98697.157771147540188
98697.085971585009247
98697.011922802907065
98696.932196200665203
98696.845500010051182
98696.753846182356938
98696.660728884264245
98696.568882254883647
98696.479897788260132
98696.393773081508698
98696.308635688998038
98696.221535768389003
98696.129512309562415
98696.03013901769009
98695.922076205912163
98698.519857820647303
98698.383575047831982
98698.248966988525353
98698.120106508256868
98698.00020011626475
98697.887477493160986
98697.777349886571756
98697.669028285308741
98697.568648860222311
98697.48776446429838
98697.4340616249101
98697.403935783164343
98697.382423064686009
98697.35210254532285
98697.303862932953052
98697.240179130880279
98697.169460175864515
98697.097655724559445
98697.02442929559038
98696.945691936620278
98696.859412439516746
98696.767335648939479
98696.672907325773849
98696.579230046903831
98696.488519370381255
98696.40132875854033
98696.315874169740709
98696.228896455388167
98696.137202543584863
98696.038045084831538
98695.929843762307428
98695.813475670671323
98698.530113189728581
98698.391977311533992
98698.25559656637779
98698.125948950430029
98698.006439065473387
98697.894567890180042
98697.784481352180592
98697.674923588419915
98697.572682523008552
98697.490704379379167
98697.438167168293148
98697.4109632314794
98697.392818871812779
98697.3647893267771
98697.317258638824569
98697.253306135360617
98697.182390485191718
98697.110940695536556
98697.03839174460154
98696.960397612812812
98696.87472055303806
98696.782689869098249
98696.687498989136657
98696.592515004027518
98696.500531571044121
98696.412604296157951
98696.327043103156029
98696.240337137889583
98696.148874700491433
98696.049633189526503
98695.94107093065395
98695.824188103637425
98695.701439366239356
98711.616556199049228
98711.350672662098077
98711.069696224440122
98710.783578308983124
98710.494611419548164
98710.196300584051642
98698.534955134702614
98698.395965804083971
98698.258459836637485
98698.127961988240713
98698.008316547202412
98697.89662595828122
98697.786210848891642
98697.675390601667459
98697.571631897211773
98697.488768531533424
98697.437246906527434
98697.412689882592531
98697.397281499186647
98697.371066057545249
98697.324002749155625
98697.2596101496747
98697.188132120034425
98697.116669066570466
98697.044569343706826
98696.967113846592838
98696.881722686899593
98696.789466926449677
98696.693513282123604
98696.597418440855108
98696.504472645683563
98696.416065519064432
98696.33049430239771
98696.243994468444725
98696.152771709370427
98696.053603671563906
98695.944891433813609
98695.827757409424521
98695.704570960355341
98695.578892965975683
98711.862309664531494
98711.618404966255184
98711.353526928418432
98711.072962177931913
98710.787108816337422
98710.498255639715353
98710.199391391390236
98698.543961280287476
98698.404406580390059
98698.266213681286899
98698.135323804599466
98698.015859691338846
98697.904468298816937
98697.79407351896225
98697.682654277188703
98697.578102626619511
98697.494769440410892
98697.443765237258049
98697.420641284566955
98697.406546882586554
98697.38115982983436
98697.33424497093074
98697.269557626845199
98697.197907784749987
98697.126610341932974
98697.054781972721685
98696.977566536093946
98696.89237619326741
98696.800080494358554
98696.703779747025692
98696.607156702812063
98696.513808565257932
98696.425277200542041
98696.339741080548265
98696.253393466075067
98696.162348798825406
98696.063194062298862
98695.954345126723638
98695.837100258417195
98695.713635095540667
98695.5875367619592
98695.464347731380258
98709.077219213926583
98709.848358147370163
98710.653358404146275
98711.490978116853512
98712.360124474158511
98713.2601538496383
98714.190711196148186
98715.152708936831914
98716.145738563660416
98717.171171632799087
98718.220255873398855
98695.164329209685093
98695.075445381284226
98694.991434482697514
98694.913753034852562
98694.841957734010066
98694.774430964156636
98694.709103225643048
98694.643684381735511
98694.575914776680293
98694.504291633944376
98694.428544187670923
98694.349141687896918
98694.267005389003316
98694.183378683577757
98694.09942711412441
98694.016980710643111
98693.938551477665897
98693.866165634608478
98693.799958197094384
98693.737434469207074
98693.673789359265356
98693.604075453593396
98693.526389784921776
98693.442784717772156
98693.357679292719695
98693.274934641100117
98693.195105667793541
98693.114721105972421
98693.028532983764308
98692.933326478654635
98692.830260095506674
98692.724140594829805
98692.620527283012052
98692.52293331513647
98692.431963511844515
98692.346532321127597
98706.491178076597862
98707.010980274120811
98707.551429665312753
98708.114617025843472
98708.702951249899343
98709.318931499787141
98709.96499713693629
98710.643301741481991
98711.355453287498676
98712.102252658442012
98712.883669862654642
98713.698918534544646
98714.546780922057224
98715.425742350445944
98716.334349573531654
98717.271659192541847
98718.237142113503069
98719.231562636836316
98720.254670673690271
98721.307901685548131
98722.383352569973795
98695.320513390397537
98695.235577778803417
98695.152699203244993
98695.072458328781067
98694.994461567344842
98694.918166374613065
98694.843063099062419
98694.768610829341924
98694.693905921289115
98694.617827373338514
98694.539507055480499
98694.458685763878748
98694.375840021748445
98694.291998476706794
98694.208551237083157
98694.127436578841298
98694.051117725321092
98693.980791851121467
98693.915247387209092
98693.850694904424017
98693.781719783597509
98693.703459430500516
98693.614794900946436
98693.519433792549535
98693.423586430013529
98693.332470780762378
98693.247616948647192
98693.166050418134546
98693.08240508394374
98692.992838545120321
98692.897527551380335
98692.800153820295236
98692.705385334978928
98692.616101083622198
98692.532212035148405
98692.451724485115847
98709.79951857807464
98710.371975586036569
98710.964707338061999
98711.579377370493603
98712.21801791897451
98712.882884511869634
98713.576237636152655
98714.300103867935832
98715.05608755609137
98715.845128450586344
98716.667377638601465
98717.522164284964674
98718.408177369667101
98719.32380397975794
98720.267477311615949
98721.2380740740482
98722.234892145730555
98723.258472656816593
98724.308601335855201
98725.38659514739993
98726.485234858526383
98695.40880932410073
98695.325182145606959
98695.240657615897362
98695.155357701674802
98695.069800637793378
98694.984834420902189
98694.901237874379149
98694.819153199307038
98694.737980626683566
98694.656903648807202
98694.575225457563647
98694.492872943199473
98694.410412159617408
98694.328998619035701
98694.2503117693268
98694.176303511500009
98694.107610815219232
98694.042441367011634
98693.976440016806009
98693.903555266704643
98693.81861650000792
98693.720742079836782
98693.614556905973586
98693.507712285689195
98693.406987714522984
98693.315542665295652
98693.23180138618045
98693.151273314244463
98693.06978364722454
98692.985905213557999
98692.90105220960686
98692.817864846103475
98692.738012027228251
98692.660862427437678
98713.718268120544963
98714.360485917146434
98715.024193418852519
98715.710998632232076
98716.422790421784157
98717.161520022738841
98717.928952512142132
98718.726480432611424
98719.554948812103248
98720.414574079055456
98721.304838977113832
98722.224598955755937
98723.172320183599368
98724.146438901007059
98725.145840867058723
98726.169814835651778
98727.218701633028104
98728.292276757594664
98729.391613842948573
98730.510077748316689
98695.584837200178299
98695.498122076664004
98695.407906987908063
98695.314984336757334
98695.22079291533737
98695.126977404521313
98695.034877792364568
98694.945214891093201
98694.858175777626457
98694.773577602492878
98694.691118246235419
98694.610581679429743
98694.531841607225942
98694.454973396874266
98694.380487764021382
98694.309321039865608
98694.241760263743345
98694.176142259282642
98694.108390641064034
98694.032610512280371
98693.943621783808339
98693.840219310062821
98693.726603527873522
98693.610657069686567
98693.500536244173418
98693.401784787216457
98693.315479313896503
98693.238588641659589
98693.166534503805451
98693.095787666898104
98693.024819424696034
98692.953452348403516
98692.88171595793392
98692.808983570619603
98717.031628147407901
98717.720432220899966
98718.430703648889903
98719.163461195756099
98719.919990660375333
98720.701744860954932
98721.510175045157666
98722.346495562960627
98723.211456321369042
98724.105232108748169
98725.027378164901165
98725.976954557874706
98726.952715884661302
98727.953304741051397
98728.977637843825505
98730.024926672529546
98731.095257038061391
98732.188378881532117
98733.305193681080709
98734.439722514274763
98695.667277080501663
98695.571753747979528
98695.473374755471013
98695.373571913660271
98695.273556051513879
98695.174737971407012
98695.078531151302741
98694.986028874671319
98694.898238444235176
98694.815778114265413
98694.738314606365748
98694.664515254466096
98694.592731035896577
98694.522043246455723
98694.452424377057469
98694.384259622325771
98694.316807488605264
98694.247110525917378
98694.169944031295017
98694.080021030822536
98693.975264746637549
98693.858621252627927
98693.737357294274261
98693.620570512299309
98693.516040052010794
98693.427575853042072
98693.354228401236469
98693.291531790790032
98693.233660871876054
98693.175314980355324
98693.113096356450114
98693.045653218126972
98721.027831000785227
98721.78164772981836
98722.557848281649058
98723.357004426652566
98724.179844243190018
98725.027148455046699
98725.899658589391038
98726.797896351490635
98727.722068027462228
98728.671986367844511
98729.647019306416041
98730.646223343588645
98731.668484150577569