/*--------------------------------*- C++ -*----------------------------------*\
  =========                 |
  \\      /  F ield         | OpenFOAM: The Open Source CFD Toolbox
   \\    /   O peration     | Website:  https://openfoam.org
    \\  /    A nd           | Version:  12
     \\/     M anipulation  |
\*---------------------------------------------------------------------------*/
FoamFile
{
    format      ascii;
    class       volScalarField;
    location    "0.0057";
    object      rho;
}
// * * * * * * * * * * * * * * * * * * * * * * * * * * * * * * * * * * * * * //

dimensions      [1 -3 0 0 0 0 0];

internalField   nonuniform List<scalar> 
106891
(
1.1472985886736166705
1.147430729406926142
1.1475818466358931325
1.147734846010607157
1.1478716562535862256
1.1479750625392781682
1.1480366906158596674
1.1480468645822521356
1.148021070512264874
1.1479539090819583791
1.1478701591511912827
1.1503124197125227379
1.1501567671901031797
1.1499791723627708073
1.149822288230242906
1.149729270567971362
1.1497237753317282039
1.1497981211101122589
1.1499163644189107636
1.1500353828534375378
1.1501239466639801012
1.150165507468866144
1.1501540315310716522
1.150091216935452243
1.1499877214440497042
1.1498613884442461242
1.1497322652997266079
1.1496114540853774599
1.1494959911236470873
1.1493734060497573513
1.1492378615132763375
1.1491039211307942924
1.1490041594270787861
1.1489744707962898929
1.1490334858418949082
1.149172923476241337
1.1493628737719754351
1.1495661334672087062
1.1497512332227299847
1.1498954100600560224
1.1499797635328814494
1.1499889860930374574
1.1499189385760031357
1.1497884931074486836
1.1496436055403453924
1.149542972352060044
1.1495300453053969303
1.1496123407288718621
1.1497587088336287398
1.1476785456184674938
1.1476307849672668926
1.1475654069953753478
1.1474903331470283074
1.1474165217511116399
1.1473560233148873966
1.1473216440218574341
1.1473223702185135764
1.1473634663382696885
1.1474430187448201313
1.1475539791274207424
1.1476826854519184273
1.147811790384505537
1.1479245016634209708
1.1480059127732293867
1.1480489082434968129
1.1480453356774760199
1.1480083196935009227
1.1479357248353081467
1.1478491613648242886
1.1499553467481049562
1.1497586016721643709
1.149589899098243384
1.1495040718328783935
1.1495279695725773017
1.1496440494575279612
1.1497990547419802976
1.1499326389990816022
1.1500076498280755732
1.1500188700099864825
1.1499807381797935157
1.1499105617721951944
1.1498237136132045677
1.1497312659282858949
1.1496401921385515088
1.1495504000156417934
1.1494533871493857191
1.1493370602641495015
1.1491965828276378137
1.1490475732904956718
1.1489252314847644421
1.1488706850462333531
1.1489113262468837462
1.1490455010738296338
1.1492428173453628215
1.1494568055889160529
1.1496421154953673227
1.1497670259396950421
1.1498159693270844084
1.1497869189463785222
1.149691487221064401
1.1495579319120030615
1.1494319327842219547
1.1493630120048889953
1.1493816279773185762
1.1494818356460381192
1.1478132668565015351
1.1477903251024599296
1.1477451694192677412
1.1476852602199063558
1.1476210598865155266
1.1475636899092811483
1.1475256437850382962
1.1475166161963474831
1.147542794516915432
1.1476031480974193677
1.1476911811945043063
1.1477950498585138828
1.1478989174434812703
1.147987185699699042
1.1480458030445888085
1.1480689828277668152
1.1480517095730284893
1.1480053910110039617
1.1479310804062963225
1.1478466361102017679
1.1497502131833789996
1.1495605829984278934
1.1494067567805108521
1.1493438145610550549
1.1493938125515601456
1.1495297499269490071
1.1496862763547475161
1.1497941804941314015
1.1498202285180658677
1.1497768044461695869
1.1497025678880785637
1.1496321185131583853
1.1495818433282878335
1.1495485131830398551
1.1495167970786484002
1.1494693037005847547
1.1493928953789309677
1.1492837007852736431
1.1491493966450636588
1.1490121519121996307
1.1489055542150161671
1.1488633687784186588
1.1489075250249951576
1.1490349965618811279
1.1492151914380439592
1.1494010797362590459
1.149546347079768438
1.1496203636570216933
1.1496150014518990989
1.1495411396363490741
1.1494226573366106425
1.1492923297005841476
1.1491884471010294089
1.1491459567119175489
1.1491815303174564011
1.1492815672327520993
1.1478879225115916629
1.147874998857618678
1.1478430622249184978
1.1477997590306809883
1.147754810888915733
1.147719854590768751
1.1477044844466786078
1.1477161605736914129
1.1477562317978129425
1.1478203191911806602
1.1478988375574792347
1.1479777621949789346
1.1480435476025077079
1.1480829568356416548
1.1480900667925355574
1.1480620579745122178
1.1480092780539881137
1.1479376576358726325
1.1478622710974673016
1.1494231006929598315
1.1493221378892648499
1.1493074792367656833
1.1493895251385153333
1.1495312188903659134
1.1496622004818126683
1.1497173563446152489
1.1496756943155248543
1.1495676983068934263
1.1494527879898457368
1.1493815798801705341
1.1493694024420870736
1.1493943195372682275
1.1494141167170095486
1.1493935713252025899
1.1493204380837647172
1.149207346383746664
1.1490841364323887142
1.1489845843490313904
1.148934394940628767
1.1489436849938865493
1.149009720162531778
1.1491191308897494849
1.1492475070731373865
1.1493625856246363348
1.149432392582643514
1.1494370236614039893
1.1493748581412752685
1.1492630150942364509
1.149130585471094701
1.1490091511541502545
1.1489260070839888428
1.1488995039191678416
1.148933627925734946
1.147898048753695166
1.147940134035411841
1.1479642429663250436
1.1479684296734586901
1.1479546671067524244
1.1479285308396478538
1.1478996335522646532
1.1478774732615366627
1.1478712608417132035
1.1478856224462212765
1.1479198119448492665
1.1479681880927887772
1.1480194640712213516
1.1480625314349670596
1.1480857475730730233
1.1480833220274040407
1.1480533483634702829
1.1480030636292326562
1.147941873698760995
1.1478821024707992482
1.1493517700704007911
1.1493107346246400624
1.1493331839124192317
1.1494174590388759327
1.1495247642772565833
1.1495945932097915154
1.1495782345716438755
1.1494681847679977249
1.1493059714186402154
1.1491611169643194401
1.1490929885991607584
1.1491147733525786112
1.149189253697182389
1.1492522895851586817
1.1492516372046903683
1.1491787271008455651
1.1490691761889086919
1.1489774921973363586
1.1489467958480030774
1.1489867203173460553
1.1490720211557703401
1.1491647293034805699
1.1492397190947525321
1.1492882039418181872
1.1493066781799965437
1.1492890176050614137
1.1492276308210407354
1.1491218230871556027
1.1489864181666076259
1.1488485148126938995
1.1487358496474464609
1.1486662253431789704
1.1486441614162465896
1.1479910780323903108
1.1480529122945466458
1.1480952417005099164
1.1481139855574236108
1.1481095804129992644
1.148087803715045041
1.1480570968065328952
1.1480282003048414285
1.1480095400223844226
1.1480055596765688097
1.1480162779505926895
1.1480345253968162744
1.1480524102748301818
1.1480599320762172599
1.1480513785412658212
1.1480257647863372217
1.1479867416483826581
1.1479453128742727053
1.1479094906018731947
1.1493370606556856384
1.1493599658800417451
1.1494074793412460966
1.1494559524123093563
1.1494643417897054682
1.1493961161885977162
1.1492466740338143083
1.1490574131254649437
1.1488953748556467449
1.1488180948477693111
1.1488396442517683216
1.1489203698289576216
1.1489928146454420066
1.1490013212178296076
1.1489391373103734484
1.1488555467525038978
1.1488183896900798775
1.1488670340438480455
1.148990138762127744
1.1491333827449106142
1.1492350501084331871
1.1492650386751439573
1.1492339023975790546
1.1491693511354628132
1.149087917010119142
1.1489878432208204817
1.1488638438409282116
1.1487228352615168614
1.1485869943780007141
1.1484825613179836523
1.1484237610696192977
1.148406283810693207
1.148074119273288618
1.1481699700886192073
1.1482483432537808898
1.1482990794018304026
1.1483167616159639657
1.1483026242353471247
1.1482632177047371602
1.1482098301405065932
1.1481545378568909221
1.1481074280362275619
1.1480750531406755943
1.1480564749003963065
1.148048728554033282
1.1480436917184457801
1.1480350742463356628
1.1480214705549895982
1.1480016364584659794
1.1479867513735522166
1.1479805712084956149
1.1492656758188846133
1.1492374017117208407
1.1492150739992739172
1.1491851297542166055
1.1491188300607437789
1.1489984203765919446
1.1488374625317911981
1.1486799117077299837
1.1485747183731915833
1.1485507645981001268
1.1485936512188767988
1.1486550311843379824
1.1486889964740110148
1.1486822430586700605
1.1486669099345445666
1.1486948250095294632
1.1487907157329657615
1.1489317742401021771
1.149062974562210071
1.1491308505577297883
1.1491157758194046057
1.1490391835969555601
1.1489394407762782979
1.148838872467103922
1.1487342866487668669
1.1486159351929139394
1.1484869233090757579
1.1483675724426203324
1.148283468735596724
1.1482464881650740196
1.1483223343798785177
1.1484258890162815092
1.1485006987575991921
1.1485362990336784872
1.1485296305878067713
1.1484843423606103663
1.1484109899780223785
1.1483237428196229057
1.1482370098937824121
1.148163912495569372
1.1481105787680612185
1.1480802349194370038
1.1480684588013523317
1.1480692060239787722
1.1480793005010256902
1.1480911064436309932
1.148113412104457165
1.1481441661996725223
1.1489550888758961467
1.1488652481446521847
1.1488192177489944257
1.14879475993755098
1.1487485459212187777
1.1486498447987607552
1.1485075515679987745
1.14836208465958034
1.1482616444800461952
1.1482366865485209573
1.1482828394688611162
1.1483700493549882093
1.1484666472527369496
1.1485572299340236491
1.1486424520591029808
1.1487198246730059292
1.148777326844786284
1.1488023934040743068
1.1487900232441639048
1.1487452738890664428
1.1486818501874205278
1.1486135054588273441
1.1485431306363715898
1.1484624685134992017
1.148365153883974088
1.1482614095443006708
1.1481780961755430059
1.1481417953565977719
1.1484948644534545004
1.1486064296526981021
1.1486913306755721642
1.1487358832845426804
1.1487330317538908542
1.148683360677050791
1.1485959463769757072
1.1484859166081433646
1.1483707854316662633
1.1482683730264300337
1.148190287558213285
1.1481452290278095774
1.148133158992591607
1.1481497491572474345
1.14819142598007784
1.1482449521582704932
1.1483144314822659737
1.1483906102563810059
1.1484423534167871317
1.1483973553269299916
1.1484212644219828903
1.1484531407829992045
1.1484272427311461584
1.1483161929953928926
1.148151100955935755
1.1479986345153057048
1.1479272066032815136
1.1479730689608318439
1.1481283979412653107
1.1483411670163705676
1.148531304579389678
1.1486294236952065972
1.1486134491718620332
1.1485122213631757671
1.1483829439301034281
1.1482796386606310968
1.148227482027894597
1.1482172903872915892
1.148218762792216685
1.1482024068946607986
1.1481580007004437149
1.1480994404131736886
1.1480565616076274793
1.1480591406786284647
1.1481210916458324256
1.1487527691782910555
1.1488295324866368841
1.1488688033359206742
1.148862037374653422
1.1488081656442148404
1.1487145664490150399
1.1485955072224149909
1.1484693181691087993
1.1483561528848380551
1.1482710952177475061
1.1482264644419761801
1.148225101113014901
1.1482638366319108947
1.1483393311874523501
1.1484342861564174054
1.1485484279299593702
1.1486672972333002996
1.1482211929422734276
1.1480725503508260044
1.1480215796278641083
1.148056082204966577
1.1481186574290229707
1.1481377608550589198
1.1480710354889986924
1.1479326179231863492
1.1477860526693788312
1.147712450269345652
1.1477747525867452172
1.1479759273829883703
1.1482416281012459702
1.1484542765657019814
1.1485171913162428581
1.1484064973567258416
1.1481795666887217866
1.1479374970292650637
1.1477690587831848035
1.1477098073417706381
1.147735249789888945
1.1477894349375195038
1.1478294335525587311
1.1478518394480685672
1.1478845046551384712
1.1479599498404244873
1.1480935700229171204
1.1489252998209069645
1.1489465361358461859
1.1489272715513114687
1.1488671553857725538
1.1487732197965447867
1.1486585970214693297
1.1485395606027632986
1.1484352104459523147
1.1483607381009586224
1.1483289879225400121
1.1483441900858144535
1.1484034870528947447
1.148503630217750926
1.1486257383282769684
1.1487664312108740727
1.1489068286862891277
1.1479568004575899653
1.1478462695116067316
1.1478237655034813081
1.1478650372410144076
1.1479232953910689652
1.1479544142279614061
1.147929909922045022
1.1478537295164650267
1.1477646701478778635
1.1477241923928076517
1.1477850715345949695
1.1479495920647058149
1.1481598700842510219
1.1483200435670914974
1.1483458481188142386
1.1482166773235333856
1.1479848914650452318
1.1477394354225260997
1.1475588187114402761
1.1474774525272866121
1.1474806044742957845
1.1475313535319577873
1.1476037861547108143
1.1476968606526347649
1.1478255636402232565
1.1480020529393411
1.1482225708441502476
1.1484671250454530078
1.1490266820020447192
1.148991228540864995
1.1489220376641873234
1.1488278248957066729
1.1487221475437083829
1.1486193518298530858
1.148535516363525133
1.1484827045325138872
1.1484702142295972749
1.1485000702093624003
1.1485669816011101485
1.1486675698195063511
1.1487840470023344963
1.1489140912902910951
1.1490407140189125013
1.1477592544107977357
1.1477427300732094828
1.1477702022803255577
1.1478077903610357513
1.1478327682345339511
1.1478344764013777013
1.1478116651405567694
1.1477805765422606221
1.1477710345506411116
1.1478118551332698871
1.1479068809569996645
1.1480255625959341348
1.14811222339428598
1.1481142083695818901
1.1480156111702111144
1.1478476740823244651
1.1476674258836669917
1.1475247377811994554
1.1474427649234353321
1.1474213200926712819
1.1474534868488301953
1.1475377309199037423
1.1476760660746263554
1.1478661894411354982
1.1480970924540985223
1.1483494569217396197
1.1486019223018479885
1.1490590171342458525
1.1489847474093968227
1.1488933155547671472
1.1487991583926517869
1.1487168586435161366
1.1486584766247784906
1.1486297647184173787
1.1486341084046884919
1.1486698972439401967
1.1487321615598380387
1.1488187256184148044
1.1489139040435047967
1.1490173734796298444
1.1491156114277378819
1.1477103164885780195
1.1477329007413450412
1.147760612792156687
1.1477895053320490426
1.1478211094818220328
1.1478517740123879154
1.1478754224924649918
1.1478844645330001928
1.1478881200330581791
1.1478973291193101947
1.1479105642705296209
1.1479182368601867914
1.1479050672473900541
1.1478578970033026518
1.14778035186537819
1.1476913941861333068
1.1476112270902059098
1.1475531252378876612
1.1475264578672472737
1.1475436961112890355
1.1476205132932215669
1.1477669517797752796
1.1479733384265697893
1.1482112516216280707
1.1484486010191516936
1.148666378303219604
1.1490742012703738517
1.1489916462897129534
1.1489134988686562355
1.1488513593194464857
1.1488132083638471492
1.148801263753656432
1.1488151199286968929
1.1488514965373437526
1.1489030461654541337
1.1489673366123969167
1.1490314826421956784
1.1490987774438539137
1.1491610286544446939
1.1478121225394433136
1.1478322934203253336
1.1478585556059939243
1.1479023523271816298
1.1479585523954638493
1.1479995480109421724
1.1480049385287136587
1.147966235066640639
1.1478964806082405659
1.1478279062039462577
1.1477790071348743517
1.1477548913349022719
1.1477512916694403433
1.1477583415183343352
1.1477655726762148181
1.1477663286203807491
1.1477601745510801479
1.1477567250054392378
1.1477762064772714101
1.1478412258927757073
1.1479626458363880737
1.1481348113381188991
1.1483250440319505703
1.1484999506550614967
1.148652305997457157
1.1491139588108594261
1.1490531791165143893
1.1490091880140160807
1.1489870828733810271
1.1489864864606924577
1.1490038520127181521
1.1490334728129418806
1.1490675039471149876
1.1491047547849473354
1.1491358455485454204
1.1491676834390223139
1.1491963636947666316
1.1480041891172547697
1.148033811647342084
1.1480777748930679483
1.1481296752511018777
1.1481592590922207187
1.1481373178294780324
1.1480544085549702071
1.1479347648138358284
1.1478171638127883103
1.1477351259684989149
1.1477034055351096331
1.1477221431114879024
1.1477796883528363914
1.1478587456649964604
1.1479400136857760284
1.1480073597832896048
1.1480571161463368757
1.1481000815056636721
1.1481552230881686416
1.1482328985750915873
1.1483229897708961964
1.1484124301276479319
1.1484936692553642246
1.148574845651138876
1.1482372001550325002
1.1482664840238323567
1.148287677944348717
1.1482793502111097173
1.1482188567342292984
1.1481037714646302739
1.1479622509484423976
1.1478336500402717135
1.1477479856508883138
1.1477197292214640356
1.1477505278240200948
1.1478333719763731402
1.1479568471578402988
1.1481027945746953289
1.1482466451950659181
1.1483657345911832959
1.1484496429861998923
1.1484974089674317987
1.1485167207562130276
1.1485160889980239318
1.1484994903547662837
1.1484764074636664155
1.1484763892512881434
1.1484907613014567751
1.1484313654316140596
1.1483262349882363829
1.1481870080648104437
1.1480429444713493581
1.1479243906215659266
1.1478502545057605033
1.1478270619876700387
1.1478553443572967474
1.1479377523768752312
1.1480756429554601628
1.1482588821008767876
1.1484601446209583564
1.1486397715401013286
1.1487604808651683541
1.1488046676512644328
1.1487752929615338005
1.1486895708073898703
1.1485751613973333995
1.148466999516839282
1.1484099619893979316
1.1481304893423716074
1.1480350768915064119
1.1479808741081700685
1.1479635725783723377
1.1479843143215748835
1.1480545152483461191
1.1481885063023085092
1.1483867936565834711
1.1486225707610926428
1.148844519081376303
1.1489963565154424074
1.1490412197595625265
1.14897522541056607
1.148826333635958763
1.148642247909218872
1.1484775588523457035
1.1483847065209187299
1.1481262210631573151
1.1481769568160040684
1.1482935550765742683
1.1484867070609685591
1.148733518992444802
1.1489758482183163313
1.1491429569397269006
1.1491847314721210793
1.1490939693907855634
1.1489070825302587497
1.1486865360092408661
1.1484978799575134012
1.1483933995682893414
1.1483059426024402327
1.1483983476568964122
1.1485714725278883819
1.1488057835375156124
1.1490426373360811407
1.1492058770762403341
1.1492395497108460756
1.1491352529637555158
1.1489342662980146503
1.1487066322954810893
1.1485214584218028655
1.1484259689087616962
1.1447642208188024693
1.1445034314587996249
1.1443066342882106667
1.144114090833832087
1.1438882779066226192
1.1436400017270995644
1.1433978679536069833
1.1431749117141176697
1.1429637414059421463
1.1427666725511025358
1.1426340888014254737
1.1426548587209814922
1.1428970412862735628
1.1433600813657900375
1.1439831390216088636
1.1447006671666826172
1.1454806638110357486
1.1463134564550878647
1.1471825092381267019
1.148049238252169868
1.1454145986323600592
1.1450001657033728186
1.1446480856557132988
1.1443577188852207538
1.1440870904257476326
1.1438274258179739196
1.1436089769407606909
1.1434523698531733338
1.1433297928351775496
1.143183142186058765
1.1429832664051358115
1.1427787958242541233
1.1426796613083296528
1.1427823409095210216
1.1431114936913890912
1.1436251546889411035
1.144267857158234758
1.1450069185372335756
1.1458247247988804229
1.146697826585256097
1.14758723962563014
1.1484454625005244832
1.1462746390772942107
1.1460713020053097111
1.1456958638674143991
1.1452819773101445833
1.1448819582708280596
1.1445021958688301744
1.1441295907242645669
1.1437879505227288579
1.143541734810308963
1.1434184672624256862
1.1433661313840690621
1.1432856058176554814
1.1431207976017006001
1.1429152169769765113
1.1427878512973592695
1.1428477157016698751
1.1431278337665518041
1.1435901306247024944
1.1441799062821238486
1.1448608668321900161
1.1456142343056601174
1.1464206435907116077
1.1472532690666805699
1.1480772202397917514
1.1488622514298363342
1.1495880047049842343
1.1458011539609755935
1.1458870398131835167
1.1457072075950758272
1.1453921413211645142
1.1450537631800592475
1.1447140852041228776
1.1443418506730691497
1.1439331913564370069
1.1435410210630954086
1.1432660778529317724
1.1431623510440340752
1.1431738854647115478
1.1431750448139104126
1.1430851723793304942
1.1429430775996738401
1.1428713244537826998
1.1429817102849497701
1.1433055130997402671
1.1438047812524596569
1.1444205678737282561
1.1451084812039291627
1.145842959357466162
1.1466056163120614819
1.1473773399243891724
1.148138141170935933
1.1488677332225019079
1.149548492128167787
1.1501645620797311675
1.1451213167161944373
1.145011424351509266
1.1447947269393434766
1.1445801883867579019
1.1444550964836388562
1.144416943832728295
1.1443741250683021615
1.1441922474001582355
1.143847790297980449
1.1434374372539408693
1.1431397745391569387
1.1430894444073973482
1.1432720464547376782
1.1435610691674653605
1.1438488658195788972
1.1441376197574926188
1.1445068325464469172
1.1450200170454680748
1.1456628672383328826
1.1463641549026284405
1.1470468613466973107
1.1476622745786582147
1.1481949662020594083
1.1486536724498985773
1.1490566387917493518
1.1494248639118900268
1.1497729336948769863
1.1501051522190899323
1.1504171531178104537
1.1506972819171279454
1.1453396489013856208
1.1454858381388917099
1.1456061550634595303
1.1457012088296751884
1.1458284994643137544
1.1460458755753581972
1.1463262387226100802
1.1465582386065515941
1.1466084686053481523
1.1464578635630271464
1.1462501048822615335
1.1461784908996290877
1.1463767237793853759
1.1467976719722587919
1.1472593341966077496
1.1476083756067754216
1.1478299403418465996
1.1480082849230768272
1.1482245638892740747
1.1484900634303150113
1.1487591954810214556
1.1489803923302774891
1.1491272801183984864
1.1492024009580765753
1.1492320506403794766
1.1492517076570409884
1.1492949739507456464
1.1493814289276613749
1.1495104092102590432
1.1496662251297049551
1.1498279654784908654
1.1499735421280683489
1.1478335264713523944
1.1480164044049203653
1.1481183926266587125
1.1481335871350855093
1.1481304409784822695
1.1481915489860552437
1.1483011380695240522
1.1483389926367995049
1.1481691565062568383
1.1477656465711612022
1.1473013248937227182
1.146996397356482511
1.1469946110653201909
1.1472467605495635379
1.147546095594860871
1.1477228653872468822
1.147761627377264837
1.1477598545380236494
1.147808204868162596
1.147927957002542021
1.1480778810095770837
1.1482025126679018534
1.1482670594512012219
1.1482663680655511573
1.1482228722651506292
1.1481750894351685499
1.1481629318465167433
1.1482111191853463517
1.1483163225691213061
1.1484570413232266795
1.1486089895065061395
1.1487497437551819068
1.1488549580865743405
1.1424270571723640355
1.1426478757887037485
1.1427832244220870184
1.1428492182880691796
1.1429825504718031937
1.1432109564563870396
1.1476377652687625996
1.1477385725354831703
1.1477465722371991141
1.1476587207561570469
1.1475568316504232147
1.1475317482578351047
1.147574367798692041
1.1475488320585514046
1.1473070194221708373
1.1468258774610788908
1.1462775628769179548
1.1459144411595694191
1.1458780354873590035
1.146110722199227272
1.1463917661306088913
1.1465439076240360183
1.1465547170787306897
1.1465286879715745894
1.1465617200239426321
1.1466740875347858353
1.146823320797861312
1.1469505658260679137
1.1470177673158179488
1.1470170135176804838
1.1469695194812905559
1.1469155167712026255
1.146898545140248471
1.146946458410580405
1.1470566624436144831
1.1472044038090249973
1.1473646200860219135
1.1475153229703889401
1.1476310590986107396
1.1476862816949826573
1.1440271770639973692
1.1441636154524783553
1.1443671301567883702
1.144470737975988861
1.144494028001316055
1.1445830679929558382
1.144764184437772947
1.1468501287591690296
1.1469393429179188804
1.1469314773638019656
1.1468234125855174543
1.1467067512298947385
1.1466740086140279065
1.1467204619802182641
1.1466954062337637588
1.1464440569958642691
1.145949205448959729
1.1453787624674098833
1.1450091788667571269
1.1449820438878164364
1.1452287053126213312
1.1455229100460024849
1.1456804390631569746
1.1456898874432510649
1.1456605618528665769
1.1456939416615126159
1.1458109411226471419
1.1459680831600735917
1.1461057365027362831
1.1461819836733277977
1.1461875719726895007
1.1461422528280758026
1.1460880475992210048
1.1460715491795052667
1.1461217533947511971
1.1462359412823672766
1.146388905906824407
1.1465534677727966528
1.1467079253233909419
1.1468283663885614487
1.1468890896336016993
1.1468755434566018092
1.14662668634040954
1.1466064736032810512
1.1466469560290553087
1.1467499026353973335
1.1469090696188248835
1.1471087736315370709
1.1473331831261426306
1.1475520315330509646
1.1477564125478532109
1.1479175851903740124
1.1480346818027902245
1.1504240597291282011
1.1503584893392611033
1.1502430868304684974
1.150117854380067639
1.1500132111628995624
1.1499439006281630959
1.1499154830576585606
1.1499278932151186794
1.149973840581698159
1.1500367538150537694
1.1500971485263722371
1.1501416961200094935
1.1501677834877681583
1.1501742489146709048
1.1501532944304619921
1.1500906886034361065
1.149981705361224904
1.1498460576855866755
1.1497284086539234504
1.1496768947878623912
1.1497141176016945074
1.149816604278922183
1.1499214362135430356
1.1499671565050195721
1.1499343796084766645
1.1498613435581062081
1.1498209533672363314
1.1498687474903244166
1.1500020998316324849
1.150159395782101468
1.1502631188175360677
1.1502724008287958934
1.1502026851898019544
1.1501030424808160735
1.1500166101996143198
1.1499541500858689869
1.1472793124962130662
1.147360640723408487
1.1474181313196920584
1.147440301783649419
1.1474184495303976217
1.1473504266296685739
1.1472406953447329414
1.1471028466215775765
1.1469557097971037063
1.1468230829905148305
1.1467275140743060646
1.1466888071049810005
1.1467176352113310767
1.1468148344258239923
1.1469721686294349627
1.1471708638137394498
1.1473917394016994731
1.147603348024618608
1.1477938346050793328
1.1479393206540364769
1.1480381243956627735
1.1501237814174036789
1.1501002117631580202
1.1500468582734133527
1.1499930152098607472
1.1499522300837847766
1.1499238171564867272
1.1499039850608709923
1.1498934881288793708
1.1498972757579113413
1.1499150179771517877
1.1499393332357727981
1.1499583692115344924
1.1499639971357002999
1.1499480212037191951
1.1499005018424928171
1.149812245318312165
1.1496903252453107847
1.1495664092169954884
1.1494894591385862448
1.1495017065792527688
1.1496101614806735203
1.1497724718146846712
1.1499075178424518207
1.1499441831162369176
1.1498678687013745847
1.1497292516035482191
1.1496141050916086623
1.149588836275562409
1.1496591476418609457
1.1497699219793726666
1.1498469884873121494
1.1498484505756836338
1.1497871518953810543
1.1497124915886955954
1.1496699161761632091
1.1496705552258963401
1.1474001980674437551
1.1474828329153752282
1.147548477827031066
1.1475833786264941772
1.1475761176651317896
1.1475200752497698442
1.1474164169099831945
1.1472771938586923124
1.1471219905300205077
1.1469772388442713851
1.1468677163720810697
1.1468150034440043328
1.1468318355520175089
1.1469193455694759454
1.1470692002799895981
1.1472611106215340193
1.1474743394562543219
1.147678334697149749
1.1478582625281608109
1.1479935907863476618
1.1480799069118026168
1.1498462559447806264
1.1498585938356751246
1.1498703010743818176
1.1498816522711543531
1.1498826297843238731
1.1498647779024251392
1.1498316081134938305
1.1497952091410597042
1.1497660722292017965
1.1497445847959750775
1.1497249599450660718
1.1497005664839952122
1.1496629387045154136
1.1496001489504703574
1.149503957846139679
1.1493837453426467565
1.1492743672447038872
1.1492268221215111712
1.1492836492774203272
1.1494460232454435378
1.1496602314451260796
1.1498344949567365081
1.1498863954116669284
1.1497944364271444062
1.149607404257225074
1.1494124215752632434
1.1492853996768859215
1.1492522477722677543
1.1492830500161657081
1.1493229557488313652
1.1493322680985365025
1.149310958761140089
1.1492932107014846022
1.1493143325616761441
1.1475841477267600954
1.1476441079821719793
1.14768294353397593
1.147687034442127274
1.1476474298710948041
1.1475621254011345584
1.1474391128198562217
1.1472953405311445696
1.1471554685205769264
1.1470446453757661143
1.1469861161923209369
1.1469944276060342059
1.1470722436877802686
1.1472125406341850962
1.1473946094484903657
1.1475975778737583788
1.1477930035825074651
1.1479638597511410136
1.1480934737338011065
1.1481736588093633955
1.1496430442350840107
1.1497084067660598983
1.1497596702304566652
1.1497946019653626504
1.1498034540312591645
1.1497809433576782201
1.1497320345525465779
1.1496663910998674574
1.1495930416360240489
1.1495163594939574736
1.1494409168206671801
1.1493704717021155925
1.1493039272250360483
1.1492326976087030577
1.1491457006831120591
1.1490447411276842882
1.1489575699844716272
1.1489327204761452528
1.1490147919564817069
1.1492089775769325222
1.1494607611840961248
1.1496770720572986324
1.1497684350684314047
1.1496956324987781528
1.1494870111891202225
1.1492203063674715224
1.1489808484697250357
1.1488239829146025262
1.1487591397432233009
1.148760865616462068
1.1487967406575423368
1.1488487905949518186
1.1489177508644357051
1.1490121219583924184
1.1476726628537627928
1.1477084193599806916
1.1477347511282274262
1.1477396370321339969
1.1477139175291430906
1.1476532443393063776
1.1475615449942340174
1.1474499946954592744
1.1473379169122308596
1.147247170925541182
1.1471988059190882936
1.1472078444414779419
1.147278559819674193
1.1474069496796370782
1.1475761523111984719
1.1477677304368263389
1.1479555997846107029
1.1481201981796969047
1.1482470083628373292
1.1483230637051138334
1.1495589174406721789
1.1496117479143406204
1.1496387319789262982
1.1496450038406251792
1.1496303353161887451
1.1495895701749654361
1.1495195478047472992
1.1494197362373212989
1.1492938268645027655
1.1491545768099691305
1.1490237027464191844
1.1489187102412732333
1.1488411538081717556
1.1487780003157492814
1.1487182556172448322
1.1486710102501400677
1.1486704422051230434
1.1487574390935406665
1.1489470916934216849
1.1492025838909674107
1.1494423569762053372
1.1495765138679012729
1.1495444299547432632
1.1493426543420226515
1.1490293969891789416
1.1486949131711836625
1.1484250035977017212
1.1482728532561947699
1.1482494465763910529
1.1483296276881287401
1.1484707682639188064
1.1486354989449047981
1.1477672879077072121
1.1477672213502141396
1.1477614088712351226
1.1477417585359943608
1.1477031427642736539
1.1476467235270204625
1.1475787159139712035
1.1475116766520283562
1.1474607460711510054
1.1474417424423537515
1.1474671615128091418
1.1475412510221112417
1.1476631696880053024