#                 v                   n
  5.23598775598e-10   1.88570227857e+15
  6.96909970321e-10   3.60265472054e+14
  9.04778684234e-10   3.92985994566e+14
  1.15034650999e-09    4.3330011996e+14
  1.43675504024e-09   4.82850753387e+14
  1.76714586764e-09   5.43507916287e+14
  2.14466058485e-09   6.17351101638e+14
  2.57244078451e-09   7.06592846272e+14
  3.05362805929e-09   8.13411937653e+14
  3.59136400183e-09    9.3965627315e+14
  4.18879020479e-09   1.08637242923e+15
  4.84904826082e-09   1.25312918659e+15
  5.57527976257e-09   1.43713689213e+15
   6.3706263027e-09   1.63223582648e+15
  7.23822947387e-09    1.8279434414e+15
  8.18123086872e-09   2.00916413759e+15
  9.20277207992e-09   2.15555080392e+15
  1.03059947001e-08   2.24446546779e+15
  1.14940403219e-08   2.25365783335e+15
  1.27700505381e-08    2.1663734346e+15
  1.41371669412e-08   1.97689146168e+15
  1.55985311238e-08   1.69499492897e+15
  1.71572846788e-08   1.34747274588e+15
  1.88165691987e-08   9.75263051397e+14
  2.05795262761e-08   6.25900744168e+14
  2.24492975038e-08   3.42134282685e+14
  2.44290244743e-08   1.49209501326e+14
  2.65218487804e-08   4.60577019523e+13
  2.87309120146e-08   7.53234773515e+12
  3.10593557697e-08   6.66608634056e-63
  3.35103216383e-08   9.37291178399e-86
