/*--------------------------------*- C++ -*----------------------------------*\
  =========                 |
  \\      /  F ield         | OpenFOAM: The Open Source CFD Toolbox
   \\    /   O peration     | Website:  https://openfoam.org
    \\  /    A nd           | Version:  12
     \\/     M anipulation  |
\*---------------------------------------------------------------------------*/
FoamFile
{
    format      ascii;
    class       volScalarField;
    location    "0.0067";
    object      alphat;
}
// * * * * * * * * * * * * * * * * * * * * * * * * * * * * * * * * * * * * * //

dimensions      [1 -1 -1 0 0 0 0];

internalField   nonuniform List<scalar> 
106891
(
8.7325351482339935439e-06
8.7242247653312129555e-06
8.7147419717909344495e-06
8.7067544283572806971e-06
8.6978047761292448769e-06
8.6905883303887755009e-06
8.6824298468075749061e-06
8.6760860554530395484e-06
8.6688572144717390477e-06
8.6630288870952304019e-06
8.6553328529088461397e-06
1.1376596051903810225e-05
1.1406243849683074773e-05
1.1441853752448219805e-05
1.1482442777833076403e-05
1.152499686197710685e-05
1.1564511178497320659e-05
1.159619887968396544e-05
1.1616573463400150926e-05
1.1625274896507498828e-05
1.1624605238181943731e-05
1.1618532483344856765e-05
1.161182958966055866e-05
1.160903619902782997e-05
1.1615337896811899529e-05
1.1632945142256354202e-05
1.1661454513765788645e-05
1.1698709534032213057e-05
1.1741271931298867596e-05
1.1783975150207458721e-05
1.1823201467076201697e-05
1.1855321950165382359e-05
1.1879500479332172523e-05
1.1896399909845773964e-05
1.1907964991550300276e-05
1.1915953643306985497e-05
1.1921711572173596626e-05
1.1927134895543260428e-05
1.1933099798964694768e-05
1.1941359002072396612e-05
1.1953300235621404206e-05
1.1969860013792013131e-05
1.1990016406241305272e-05
1.2012412812102104593e-05
1.2034207443009442632e-05
1.2053042531490007567e-05
1.2067606821879162975e-05
1.2077340946044249484e-05
1.2083590275722260124e-05
9.2680726956785225082e-06
9.2580100641436442966e-06
9.2496113270454268358e-06
9.2398963606994346685e-06
9.2317186532488843925e-06
9.2220660434616278061e-06
9.2139109945279961447e-06
9.2041350283979632961e-06
9.1957105177284972864e-06
9.1856264388378902467e-06
9.1769197495383475965e-06
9.1666454184927832728e-06
9.1580854838906733525e-06
9.1482197743841564178e-06
9.1403222835242278586e-06
9.1312338471709850218e-06
9.1241873041906030922e-06
9.1160388469745234078e-06
9.1096221351690266193e-06
9.1009324069569172612e-06
1.2006839316186343722e-05
1.204533129672001837e-05
1.2090197992066770133e-05
1.2136939817158526152e-05
1.2180370820851527214e-05
1.2215445887921993757e-05
1.2239134962478820774e-05
1.2250789329355371216e-05
1.225222833031433249e-05
1.2246736673435851324e-05
1.2237817233299741351e-05
1.2228821320827045475e-05
1.2222600892446949575e-05
1.2222834609959666062e-05
1.224012898660388688e-05
1.228909452480653105e-05
1.2345537732594711865e-05
1.2401530404939979082e-05
1.2451107747083512724e-05
1.2490908588895830879e-05
1.2518687176539691443e-05
1.253533458243027278e-05
1.2543703593053712558e-05
1.2545897293784537849e-05
1.2545293406228308402e-05
1.2544397604768276573e-05
1.2546110700704682597e-05
1.2552034621995672374e-05
1.2564310208365629291e-05
1.2582532118901763196e-05
1.2605870927700399658e-05
1.2631574560407931432e-05
1.2656737913385210338e-05
1.2678932406836850643e-05
1.2696021205444533715e-05
1.2708333256528902072e-05
9.7487646062050551207e-06
9.7379371083176364122e-06
9.7291419794330774356e-06
9.7187714800755383007e-06
9.710291683438992212e-06
9.7000617661604205229e-06
9.6915894752040186109e-06
9.6812105019439678515e-06
9.6724369271526714858e-06
9.6616885510202972839e-06
9.6525869341809363564e-06
9.6415667549065112179e-06
9.6325605730434967546e-06
9.6218644837781295274e-06
9.6133691303521283015e-06
9.6033845004310037439e-06
9.5956133633880753023e-06
9.5864184798834037321e-06
9.5792734239727628823e-06
9.5694201391235928178e-06
1.2662926160679100566e-05
1.2693097933098485035e-05
1.2729422851432943561e-05
1.2767443787539519814e-05
1.2803294409793262694e-05
1.2833258062700063555e-05
1.2855838152235978428e-05
1.2872072989916104384e-05
1.28841851194854305e-05
1.2895600869782035359e-05
1.2909275737339199195e-05
1.292802388010901817e-05
1.2952235824690415484e-05
1.2981934243305548479e-05
1.3014628225684294287e-05
1.3048560282064530799e-05
1.3080168814255965193e-05
1.3108218696675109162e-05
1.3131169509815364068e-05
1.3149084999714881757e-05
1.3162477140474949431e-05
1.3172511539336573749e-05
1.318087723108928529e-05
1.3188699336525034811e-05
1.3198152275875983579e-05
1.3210495989480093763e-05
1.3227267166154129589e-05
1.3248454748596766095e-05
1.3274445911462959949e-05
1.3303569961285736158e-05
1.3333751607119033998e-05
1.3362094898139387168e-05
1.3386097330044879081e-05
1.3404364228604546242e-05
1.3416050681549302877e-05
1.3422507963202905901e-05
1.0242718794689753735e-05
1.0233461239124922159e-05
1.0222322418240046757e-05
1.0213411927712475917e-05
1.0202463863465187989e-05
1.0193556458329535978e-05
1.0182428515245529768e-05
1.0173245833570306425e-05
1.0161807740894398576e-05
1.0152380755359818063e-05
1.0140689713480163933e-05
1.0131311985870716466e-05
1.0119895628905843399e-05
1.0110891396258572651e-05
1.0099985930444402044e-05
1.0091483102817080773e-05
1.008112648534993998e-05
1.0073081339226845932e-05
1.0061813011345875564e-05
1.3271892188190514622e-05
1.3301009901674766377e-05
1.3356159309227240103e-05
1.3418170676956631867e-05
1.3479212215395491961e-05
1.3532837333352525007e-05
1.3574374866754175363e-05
1.3603105467011284034e-05
1.3621148954223633888e-05
1.363292597052259003e-05
1.3643023676092742893e-05
1.3655945044631718346e-05
1.3673422769392938727e-05
1.3696211271280754322e-05
1.3721797249546099226e-05
1.3748261859617385341e-05
1.3772457320661586131e-05
1.3793108313962281205e-05
1.3810621317818324138e-05
1.3825471718968003782e-05
1.3840328768449421739e-05
1.3856351243317165841e-05
1.387575903774212426e-05
1.3897994171776799404e-05
1.3924068965977686284e-05
1.3953485138441917824e-05
1.3985781551865653788e-05
1.4019585883162872711e-05
1.4053319954356275555e-05
1.4084701052898198836e-05
1.4111191323583780681e-05
1.4131643189405983959e-05
1.4144123957478093565e-05
1.4149716504638287573e-05
1.078587399975428597e-05
1.0773334563946689718e-05
1.0763528407903975344e-05
1.0751531558284508009e-05
1.0742060381287250252e-05
1.0730211124026780108e-05
1.0720728100065108441e-05
1.0708773844874499954e-05
1.0699154011525262203e-05
1.0687015495938417963e-05
1.0677272222353790905e-05
1.0665001755306009363e-05
1.0655302073181642481e-05
1.0643190042748015744e-05
1.0633710400093034678e-05
1.062180626119288406e-05
1.0612498225551880349e-05
1.0600794350744690452e-05
1.0591636267088203133e-05
1.0578624559719916669e-05
1.4066380189589255134e-05
1.4097815799915294665e-05
1.4134386485379839786e-05
1.417279013580121478e-05
1.4209042445791129992e-05
1.4239928906760195403e-05
1.4264141188410070095e-05
1.4281333987778393319e-05
1.4294142139790576233e-05
1.4305672535095213381e-05
1.43207335461838937e-05
1.4341970787706944797e-05
1.4371399767513339931e-05
1.4407516184667723658e-05
1.4447787680582398009e-05
1.4488172132214607407e-05
1.4524502104574110067e-05
1.4554164994231108909e-05
1.4575210348246750512e-05
1.4588398797091703738e-05
1.4594635592027462855e-05
1.4597034511146588052e-05
1.4598376097159563081e-05
1.4602870505487668663e-05
1.4613399588743435222e-05
1.463170052685002512e-05
1.4658226891012697803e-05
1.4691463032361485301e-05
1.4728566992629063008e-05
1.4765362610106573486e-05
1.4799217547075169016e-05
1.4827108760025212256e-05
1.4848415879788943962e-05
1.1331324823559860173e-05
1.1320735772583871291e-05
1.1307674893831567444e-05
1.1297477992493603832e-05
1.1284689714386331188e-05
1.127455952230937702e-05
1.126169563395300422e-05
1.1251587060805402177e-05
1.1238724363103246579e-05
1.1228676587062520818e-05
1.1215778394207712404e-05
1.1205746787745756311e-05
1.1192834764697343712e-05
1.1182756842772942804e-05
1.1169691483072560751e-05
1.1159396622302205333e-05
1.1146055905373444464e-05
1.1135506827809045038e-05
1.1120377391293768086e-05
1.481792912063507291e-05
1.4843641206947286323e-05
1.4874595149858681282e-05
1.4908813819786090338e-05
1.4943631585351833843e-05
1.4977272663240050185e-05
1.5007685542198684041e-05
1.5035318048767392472e-05
1.5060270919821258268e-05
1.5085384868812885847e-05
1.511121811737779175e-05
1.5139786850680628905e-05
1.5170337518268551142e-05
1.5201845150281593949e-05
1.5232547360312578149e-05
1.5260062309017896306e-05
1.5283128428564318383e-05
1.5299892880688311091e-05
1.5311045623109097456e-05
1.5317417037398903338e-05
1.5322298543932522433e-05
1.5328335483822691255e-05
1.5339517204214030393e-05
1.5358233729036326314e-05
1.538553895621676905e-05
1.5420105920273685928e-05
1.5459241584648169318e-05
1.5499564307658366546e-05
1.5536967968207407366e-05
1.5569788050453729344e-05
1.5596193236635769684e-05
1.561659345711197182e-05
1.1918641503949905949e-05
1.1907024137931113126e-05
1.1892702079073115139e-05
1.1881618321563521443e-05
1.1867845925793714498e-05
1.1857123899581455007e-05
1.1843485945436105426e-05
1.1832958569365267703e-05
1.1819328226731336896e-05
1.1808856852216637463e-05
1.1795106150689724125e-05
1.1784506820250837967e-05
1.1770516379270441122e-05
1.1759592359461917507e-05
1.174508400525846861e-05
1.1733526720463849559e-05
1.1718280568368920884e-05
1.1706142483399879683e-05
1.168863937444896652e-05
1.5592774021206668963e-05
1.5618355590758720749e-05
1.5651812333887164905e-05
1.5692309605487224882e-05
1.5736696061350617047e-05
1.5783317442514302838e-05
1.5828861015602391102e-05
1.5872044906662979342e-05
1.5911461409396998541e-05
1.5946668226911605524e-05
1.5977599035030526348e-05
1.6004401933009479729e-05
1.6027931143278835934e-05
1.6048171278187480719e-05
1.6065454586850705653e-05
1.60790985460540038e-05
1.6089685144396662759e-05
1.6096667940901498582e-05
1.6102149501840675388e-05
1.6109046922661483613e-05
1.6120574767784261796e-05
1.6139475448869977479e-05
1.6167468398882292103e-05
1.6204084632335244361e-05
1.6246384913038250961e-05
1.62903644222149573e-05
1.6331931927300117062e-05
1.6369042308850852271e-05
1.6399718287770991232e-05
1.6424287239998670059e-05
1.2525974163269250165e-05
1.2510290834783428283e-05
1.249827320376200496e-05
1.2483549711895354915e-05
1.2472318222683730321e-05
1.2458037612128987497e-05
1.2447151630776761506e-05
1.2432776733172323753e-05
1.2421714879086305337e-05
1.2406896512728601446e-05
1.2395389316967099592e-05
1.238002095373979618e-05
1.2367801513688543203e-05
1.235157049917699713e-05
1.2338470419163444388e-05
1.2321254570626659792e-05
1.2307518983824537704e-05
1.2288055923150113317e-05
1.6410843206842968769e-05
1.6457602065948225391e-05
1.6511168209002575585e-05
1.6567666299615608762e-05
1.6621733578589091161e-05
1.6670572790945917984e-05
1.6712046745565526512e-05
1.6745746265987021274e-05
1.6773245237391124521e-05
1.6796028139797007504e-05
1.6816844979837242385e-05
1.683683606761537363e-05
1.6856777964273956941e-05
1.687546267492595308e-05
1.6892253991534788334e-05
1.6906537948830579175e-05
1.691857093432687416e-05
1.6930267044926579313e-05
1.6944667218815424257e-05
1.6964606245390100026e-05
1.6990855854830353577e-05
1.7023608043811033628e-05
1.7061083213941459328e-05
1.710067356494788561e-05
1.7139345136107051197e-05
1.7175523294029508228e-05
1.7208719540293797854e-05
1.7238666113606429016e-05
1.319582268522464834e-05
1.3179468921192576331e-05
1.3166716500001611695e-05
1.3151782217875346919e-05
1.314018643233750865e-05
1.3125990899681473057e-05
1.311476747353334049e-05
1.3100147975764459319e-05
1.3088410480278466128e-05
1.3072808617265434537e-05
1.30601832836318988e-05
1.3043577844282399546e-05
1.3029898564996666237e-05
1.3012225971722794378e-05
1.2997608874842933813e-05
1.2978814821403756484e-05
1.2963762147680653959e-05
1.2943857694740737004e-05
1.7311911557722524716e-05
1.7357132668737876378e-05
1.7403523949648013933e-05
1.7448182151970308666e-05
1.748974104882968937e-05
1.7527006504829613663e-05
1.7560352412119768127e-05
1.7590670380120453705e-05
1.7618634749391607811e-05
1.7645921522362556191e-05
1.7673486548469430081e-05
1.7702344384668630836e-05
1.7731042223671028503e-05
1.775889612089793013e-05
1.7783656099176678976e-05
1.7804463473576280893e-05
1.7821873693941265112e-05
1.7837734206508750124e-05
1.7854891552454081437e-05
1.7875050645684495556e-05
1.7899599731809708107e-05
1.7927915276696203327e-05
1.7958679961907142794e-05
1.7990013139448349824e-05
1.8020830043124209902e-05
1.8051355563799669759e-05
1.808160465274769648e-05
1.3815185554982594001e-05
1.3796258348227764242e-05
1.3780785039638188388e-05
1.3762939399901437303e-05
1.3748592133639371925e-05
1.3730853925236801349e-05
1.3715958788833519018e-05
1.3697338747573744726e-05
1.3680694163118124935e-05
1.3660786544169255851e-05
1.3642695303797267492e-05
1.3621363838671644657e-05
1.3602589632658814266e-05
1.358018283487507334e-05
1.3560919725272739869e-05
1.3538383662211483875e-05
1.3519220705018775462e-05
1.8091557314031407648e-05
1.8124211530453832785e-05
1.8144224460617364267e-05
1.8152854012534015227e-05
1.8155256437078828169e-05
1.8157507186614876279e-05
1.8165758471593511342e-05
1.8185251491316442704e-05
1.8218763406921842455e-05
1.8266717838178270439e-05
1.832673597564228726e-05
1.839413297535939573e-05
1.846122930602990848e-05
1.8521166769447007939e-05
1.8568702395636996823e-05
1.8601110435758289659e-05
1.8619039798890060214e-05
1.8625105639014458435e-05
1.8624206634544530854e-05
1.8621137641546597945e-05
1.8621562189202407517e-05
1.862835219808579157e-05
1.8644241701544839239e-05
1.8668868315423200148e-05
1.8700837806498141647e-05
1.8738876545607947101e-05
1.8780358888741272152e-05
1.4159715609312566498e-05
1.4142386052875091887e-05
1.4117620679711170021e-05
1.4101045147148197462e-05
1.407620346980054502e-05
1.4058918232596984846e-05
1.4032696855879956744e-05
1.4013781993031443332e-05
1.3985645127162147822e-05
1.396506678471960629e-05
1.3935549092377150332e-05
1.3914164794783573763e-05
1.3883961293382640842e-05
1.3862655149757287368e-05
1.3827835915066944328e-05
1.3817883433459487232e-05
1.413007136993501875e-05
1.4154209647092719503e-05
1.4166169761829667812e-05
1.4168214156366716388e-05
1.41640849555911462e-05
1.4157262696996497159e-05
1.4150033014005784974e-05
1.4143114969251058597e-05
1.4137229836382942915e-05
1.4134031422121303974e-05
1.4139934877943840469e-05
1.417585940617434522e-05
1.4269420575502106635e-05
1.4363429130191291368e-05
1.4444237250772522786e-05
1.4507436645338138998e-05
1.4551024543929328006e-05
1.4575667045715616469e-05
1.4585118643450432948e-05
1.4584280332658549988e-05
1.4577613438233574233e-05
1.456806241327943642e-05
1.4557062662436828665e-05
1.4545549776541180409e-05
1.4535222636602105462e-05
1.4531918784609314103e-05
1.4552210181898993935e-05
1.4617342768165255207e-05
1.0993421336002479223e-05
1.0974547447451610415e-05
1.0961571987932286316e-05
1.094261453041366552e-05
1.092911798569289118e-05
1.0909192246582568637e-05
1.0894382504615400241e-05
1.0873028621823082536e-05
1.0857139612728527854e-05
1.0834698156956510561e-05
1.0818348544551500772e-05
1.0795608149255254485e-05
1.0779571329870814839e-05
1.0753971050576447097e-05
1.074944169290641672e-05
1.3409349527557462315e-05
1.3449656940106750956e-05
1.3480770684025159125e-05
1.3501102251702078519e-05
1.3511480445301401684e-05
1.3514029968795577378e-05
1.3512095998502194686e-05
1.3509262303743198281e-05
1.3508810185468310267e-05
1.3515281045255686813e-05
1.3541712058166706877e-05
1.3597867476952353914e-05
1.3656696261332859312e-05
1.3710416655059628593e-05
1.3753625561668694175e-05
1.3784209259890588134e-05
1.3802310044026665852e-05
1.3810049847115286265e-05
1.3811322450167673695e-05
1.3810111433893738764e-05
1.3811202676431917318e-05
1.3817345364092076354e-05
1.383167338255136113e-05
1.3854596565568224023e-05
1.3885247361838279516e-05
1.3921110186145749702e-05
1.3958392865881346151e-05
1.0474178191726072197e-05
1.0462595388051209279e-05
1.0445979789171413925e-05
1.043392216562146892e-05
1.0416405805674396312e-05
1.0403127970697649372e-05
1.0384327904175052321e-05
1.037008411308986967e-05
1.0350408277525552914e-05
1.0335770326030384273e-05
1.0315969495554089125e-05
1.0301708846283321602e-05
1.0280390424703032964e-05
1.0270536255172120566e-05
1.2933733229104975001e-05
1.2961877263798823794e-05
1.297773205111775089e-05
1.298499283358726311e-05
1.298744635240538738e-05
1.2990355062072177374e-05
1.2997986729967606748e-05
1.3013016703766139493e-05
1.3036216962642733816e-05
1.3065726623070941358e-05
1.3099361857753196432e-05
1.3133463305440205455e-05
1.3166059230386695686e-05
1.3195114817678937514e-05
1.3220506644960296344e-05
1.3242094990766693205e-05
1.3260179972950259466e-05
1.3275222552074111186e-05
1.3287908662568802688e-05
1.3300183406834614061e-05
1.3313238864786002761e-05
1.3329773883017859761e-05
1.3350293698546180089e-05
1.337502332892490045e-05
1.3402459607824282188e-05
1.3430563016416093383e-05
1.0079310897878453882e-05
1.0063572966073200656e-05
1.0052108421185720254e-05
1.0035546122247567517e-05
1.0022991011170003862e-05
1.0005237194776891389e-05
9.9917866619812118498e-06
9.9732510517403257221e-06
9.9595035925132532672e-06
9.9408859318836466639e-06
9.9274841227637654041e-06
9.9077120944228329796e-06
9.8978450442176288578e-06
1.2477705321371784057e-05
1.2487517752711051441e-05
1.2490902497449783151e-05
1.2491600611501904887e-05
1.2494504662782947015e-05
1.2503118704527265163e-05
1.2518987450075565415e-05
1.2542488459087308282e-05
1.2572052745123802635e-05
1.2605653269261970416e-05
1.2639934177676787462e-05
1.2673026911080342282e-05
1.2702805745465374024e-05
1.2728686189143360725e-05
1.2749963143304771486e-05
1.2766807366514224526e-05
1.2779955761155693516e-05
1.2790711384038185087e-05
1.2801438478072806696e-05
1.2813276291607554147e-05
1.2828264146214890377e-05
1.2846396330643781856e-05
1.2867377191123064348e-05
1.2889871665887727009e-05
1.2912521528274023409e-05
9.6810810734539950474e-06
9.6701099450412478958e-06
9.6543214887079976369e-06
9.6424305374619610971e-06
9.6255531683696682137e-06
9.6128381905446027341e-06
9.595262716267587998e-06
9.5823086756592219782e-06
9.5646811743122093412e-06
9.5520248344063423161e-06
9.5332049710231036503e-06
9.5238921042092016136e-06
1.2052521385567330152e-05
1.20677036809068736e-05
1.2074836351920668312e-05
1.2075973662476582711e-05
1.2073842107938182041e-05
1.207079822078656709e-05
1.2068882077514627436e-05
1.2071292591501146051e-05
1.2089421899191207267e-05
1.2130014281512994852e-05
1.2172466365681957863e-05
1.2212504796769937276e-05
1.224822342163044836e-05
1.227766795366992206e-05
1.2300379002590193777e-05
1.2317569963609319942e-05
1.2331185978946770598e-05
1.2344035737678266115e-05
1.2357760871386770191e-05
1.2374050793515862913e-05
1.2392611610964497911e-05
1.2413351978844910806e-05
1.2434695660683275711e-05
1.2455401038769204974e-05
1.1617048070458733564e-05
1.1619864940596096682e-05
1.1618456862346186837e-05
1.1615426718073949719e-05
1.1612731264802783648e-05
1.1612331164424106588e-05
1.161874893716499714e-05
1.1646809512049341166e-05
1.1689675306024432735e-05
1.1731510171236482262e-05
1.1769595997551421545e-05
1.1802343340117545033e-05
1.1828840502241151023e-05
1.1849471189155357065e-05
1.1865510113826736229e-05
1.187910714300458804e-05
1.1892533724833821774e-05
1.1906560001040193111e-05
1.1922400356085660866e-05
1.1939501504902059751e-05
1.1957595204327327038e-05
1.1976188246341971477e-05
1.1994320347663676459e-05
1.1169649335523932748e-05
1.1183750426836169673e-05
1.1200586468038127073e-05
1.1219640584896785075e-05
1.1239434456036820486e-05
1.1258964118341949502e-05
1.1277288575455707287e-05
1.1294482894623719509e-05
1.1310268977908273811e-05
1.1325316624004220731e-05
1.1340378023614897945e-05
1.1356799771055374316e-05
1.1375942051412316975e-05
1.1398518044233133141e-05
1.1425321190381416931e-05
1.1455054194765319984e-05
1.1486872772330616435e-05
1.1518637259257472478e-05
1.1549212838687213589e-05
1.157678726773309297e-05
1.1600988618098452735e-05
1.0819102050430505255e-05
1.0834684754755393476e-05
1.0851278516230125482e-05
1.0868389742149428732e-05
1.0885811800619661833e-05
1.0903533149493846205e-05
1.0921495244665378754e-05
1.09401484989476749e-05
1.0960311785911987446e-05
1.098190436721327708e-05
1.1004959022010969385e-05
1.1028800306962726024e-05
1.1054175728346556773e-05
1.1080448088365310686e-05
1.1108274573117967972e-05
1.1136626299288313101e-05
1.1164227856957609729e-05
1.0546497052219613251e-05
1.0559256509943099566e-05
1.0567592333806792403e-05
1.057429400829799889e-05
1.0582618729465887369e-05
1.0594484678036731226e-05
1.0610645112304079593e-05
1.0630014644001651764e-05
1.0652654776133853171e-05
1.0677176503617322718e-05
1.0703870210465985283e-05
1.0731722319253259737e-05
1.0759359555062025459e-05
1.0185547162487452972e-05
1.0197497793142497332e-05
1.0201419478618190052e-05
1.0200038300798166963e-05
1.0196553303129030684e-05
1.0194319547930875475e-05
1.0196134322138188636e-05
1.0207362983017972309e-05
1.0227031497639788433e-05
1.0252346282000555697e-05
1.0281305773821376967e-05
1.0311327701608663759e-05
5.0529812138296485293e-06
5.198915689563447959e-06
5.5971935214675478556e-06
5.9717787946656604179e-06
6.2086630145035655718e-06
6.3281598106846367603e-06
6.3651639583709491586e-06
6.3616546799324096711e-06
6.3395928536057027304e-06
6.2578806357538906607e-06
6.0259363093044300772e-06
5.780189563507620587e-06
5.5945913972960479709e-06
5.4693764282579894373e-06
5.3977436580483755142e-06
5.3664807829434779714e-06
5.359471869707732891e-06
5.3622734029896777081e-06
5.37726580085426723e-06
5.4329986149243151346e-06
7.3901227340836142958e-06
7.4475103765575973455e-06
7.6590927404161671875e-06
8.1229937949104555171e-06
8.4902408094486671644e-06
8.7135789288784363751e-06
8.8152785201291396146e-06
8.8372259877075327585e-06
8.8264629696259013734e-06
8.7931467216911273258e-06
8.6879960964106092811e-06
8.3948367789962740921e-06
8.0471589457918473213e-06
7.7569335001957139312e-06
7.5352418814196024026e-06
7.387183925095990222e-06
7.3069339553227982315e-06
7.2784391226819816848e-06
7.2767315346046455464e-06
7.2863248325515170137e-06
7.3234547454257203566e-06
7.4423282940954337437e-06
1.3034336385386223345e-05
1.3062773237832205539e-05
1.3161761298479846631e-05
1.3460761766299216452e-05
1.387765102334681682e-05
1.4178739923700335693e-05
1.4336677180534870929e-05
1.4381736265228164029e-05
1.4376162281753970674e-05
1.4345026743445314025e-05
1.4260481796382736621e-05
1.4037587348561608597e-05
1.3681867473894000385e-05
1.3344419359653420811e-05
1.3061953261742200987e-05
1.286635362876033668e-05
1.2765666370064141782e-05
1.2734448232573284651e-05
1.2730527731050972145e-05
1.2753381718335798283e-05
1.2836414537170603596e-05
1.3074049427695732042e-05
1.3375963478238622943e-05
1.3601263185977950656e-05
1.3729874607952052685e-05
1.3767863506636637906e-05
2.9954485820589616996e-05
3.0382091114717802599e-05
3.0866791122686260595e-05
3.1297775303835179031e-05
3.1600355743151701854e-05
3.1747848651469796574e-05
3.1779847773082388969e-05
3.176392939518767549e-05
3.1691128160157771101e-05
3.1451560098051347574e-05
3.1036572327077466629e-05
3.0653193441930828324e-05
3.0341238771465909902e-05
3.0119066987170504306e-05
2.9989097006422680544e-05
2.9928510750701544106e-05
2.9897127540096836163e-05
2.9896871673388423953e-05
2.9968596741908144282e-05
3.0223639630587121479e-05
3.0622953491162712997e-05
3.0996187595901350423e-05
3.1288228390412203069e-05
3.1464160670023152869e-05
3.1522339629443662525e-05
3.1517607642339348487e-05
3.1481628671212295867e-05
3.1380784289900345591e-05
6.6435833989150129444e-05
6.6697556634927795743e-05
6.6952767506701671993e-05
6.7138713504685069706e-05
6.721675831713467338e-05
6.7201100741265694166e-05
6.7130226759342046254e-05
6.6978151114404133504e-05
6.6633165187257505785e-05
6.6238890244923459148e-05
6.5895258137817550297e-05
6.5613595363509086256e-05
6.5403980771982437844e-05
6.5264002465359043396e-05
6.5177835615912432105e-05
6.5120243014072650778e-05
6.5095734561400447871e-05
6.5176496218395394756e-05
6.537952269690261854e-05
6.5572416743325194054e-05
6.5723822388714088038e-05
6.5803036279301401422e-05
6.5806336607209946384e-05
6.5764674380480348686e-05
6.5678477680090934171e-05
6.5489619444819937612e-05
6.5137270060708574388e-05
6.4768990428239694057e-05
6.4436745330175417088e-05
6.4167770199121654229e-05
0.00010229853256491597019
0.00010208893163282568319
0.00010186699579927583237
0.0001016233107553432915
0.00010134868277987797117
0.00010103913403607655554
0.00010070022045011475483
0.00010035142282905475726
0.00010001834162684683732
9.9722672228370643301e-05
9.947565303577045727e-05
9.927536552453570238e-05
9.9113104569884230132e-05
9.8977719885076555911e-05
9.8856477496652613566e-05
9.8737198042509312455e-05
9.8612158911924564179e-05
9.847953557091429467e-05
9.8339406152807574946e-05
9.8187567135202760021e-05
9.8014037467773269157e-05
9.7807063672187646874e-05
9.7560229750376541223e-05
9.727885951097289222e-05
9.6979140321238062436e-05
9.6682927223040257699e-05
9.640859025535456503e-05
9.616963460487631878e-05
9.5969895271000592351e-05
9.5808738453421839524e-05
9.5679444884706578499e-05
9.5575084567841911334e-05
0.00012265410230700567618
0.00012234280211036039276
0.00012204060792903869705
0.00012174529090683794636
0.00012144995294982890608
0.00012114494048412219828
0.00012082774184953084813
0.00012050866948329144192
0.00012020509177187184543
0.00011993204447294557931
0.00011969187605850348081
0.00011947585743688442358
0.00011927092042480743131
0.00011906449863644837225
0.00011884600500037892921
0.00011860874750597192944
0.00011835345965487431314
0.00011808997011272963687
0.00011783196033937177679
0.00011758887998288908771
0.00011736090932538357427
0.00011714121531246898063
0.00011692312369558512488
0.00011670616046682568974
0.00011649472408837968217
0.00011629394325160078859
0.00011610427822797303476
0.00011592134830768990417
0.00011573761624568610598
0.00011554775284348103371
0.00011535071825729414788
0.0001151533632666588736
0.00011496467044800721686
0.00016152837131865375141
0.00016061241404080736292
0.00015973799002136620314
0.00015888052039127382488
0.00015803910899816751606
0.00015723590392993142982
0.00013383417578213642539
0.00013355354701077506866
0.00013328026376951924515
0.00013301273964982931954
0.0001327436889926377091
0.00013246312601576757263
0.00013216799265095718376
0.0001318682871158095534
0.00013158432865330508383
0.00013133195206979951042
0.00013111322637495662503
0.00013091805701009572309
0.00013073178534075638067
0.00013054085946453237391
0.00013033491196476346065
0.00013010842171292974923
0.00012986450874914471569
0.00012961622699179722591
0.00012938018063754231626
0.00012916646619277161829
0.00012897268853060591385
0.00012878729180943723548
0.00012859978779147424629
0.00012840863891049375989
0.00012821904049787046518
0.00012803606499841096934
0.00012785970757385895771
0.00012768453788001180396
0.00012750333517964546125
0.00012731128632842206023
0.00012711026015401613522
0.00012690963753442477554
0.00012672328015397019878
0.00012656056196769669623
0.00015557427034073090569
0.00015473148256793837433
0.00015393993319992894399
0.00015318483988432509487
0.00015244747946854437528
0.00015173463567439942463
0.00015106716173624644786
0.0001310886270205091251
0.00013083501751384507333
0.00013058959873210476774
0.00013034865286600880586
0.00013010582371458483792
0.00012985612954259417905
0.00012960415620397267716
0.00012936885615719360119
0.00012917238718188417206
0.00012902246723233947367
0.00012890866622694509194
0.00012880858038800721663
0.00012870050268705814176
0.00012856999745703060855
0.00012841173413547993373
0.00012822998403032084542
0.00012803828323225315824
0.00012785634974629058055
0.00012770003597544708198
0.0001275723766855607318
0.00012746295722521121209
0.00012735603675997436918
0.00012724187614998236882
0.00012712186614232217599
0.00012700331548043592746
0.00012689124322655390338
0.00012678386297099728322
0.00012667453474530488105
0.00012655681191059715688
0.00012642934550173546247
0.00012629770573036326847
0.00012617407976693337615
0.00012606918932750820861
0.00012598407212152133911
0.00012590931772819572636
8.5312539286336416963e-08
8.5374876850745620398e-08
8.5533397106931503732e-08
8.5684647403798955411e-08
8.5749582870066528581e-08
8.5969358882086302683e-08
8.6116404656577388622e-08
8.6298865008893710973e-08
8.6547108511283376042e-08
8.6869300261921286398e-08
8.7097837757855261639e-08
6.759569390586456359e-07
6.7715195860282906782e-07
6.7785080365033236169e-07
6.7816889658816121188e-07
6.7820248983273995523e-07
6.780577416788609441e-07
6.7777783475905719637e-07
6.7743332662901147745e-07
6.7709513558892239658e-07
6.7692690152737170814e-07
6.7756097509041576774e-07
6.8084851444659613103e-07
6.8588588233349963568e-07
6.9010951812318164777e-07
6.9302376362425236293e-07
6.9456095702322503231e-07
6.9506928904996340765e-07
6.9493750905690909091e-07
6.9452420668293472524e-07
6.939312914900958493e-07
6.9254049908842355909e-07
6.8942612097425317396e-07
6.8627457583490109564e-07
6.836004913676316629e-07
6.8147079740764297648e-07
6.7992103273123761516e-07
6.7886835720979487979e-07
6.7813644269495301919e-07
6.7755233730234066422e-07
6.7699765815698465456e-07
6.7646757759305596158e-07
6.7597285827818475932e-07
6.7553930280551709173e-07
6.7510235824476698575e-07
6.7462897574900448826e-07
6.7417651867840233357e-07
8.9849574144736705632e-08
8.9788086061556402879e-08
8.9741274594599391593e-08
8.9712886000960761114e-08
8.9713081967106398999e-08
8.9719400428332814819e-08
8.9776854176564319212e-08
8.9913890510779745106e-08
8.9986906658278153481e-08
9.0133745102308192687e-08
9.0275770763277237542e-08
9.034038110467795222e-08
9.050065731223080751e-08
9.0632095213607297535e-08
9.0690396426894885012e-08
9.0890018820696576374e-08
9.0991631691931152732e-08
9.1138403194847658771e-08
9.1329316361749697777e-08
9.1585539943578641668e-08
9.1777075094774869787e-08
6.8231167622855375343e-07
6.8859256824154923113e-07
6.9431019687895147577e-07