/*--------------------------------*- C++ -*----------------------------------*\
  =========                 |
  \\      /  F ield         | OpenFOAM: The Open Source CFD Toolbox
   \\    /   O peration     | Website:  https://openfoam.org
    \\  /    A nd           | Version:  12
     \\/     M anipulation  |
\*---------------------------------------------------------------------------*/
FoamFile
{
    format      ascii;
    class       volScalarField;
    location    "0.0067";
    object      k;
}
// * * * * * * * * * * * * * * * * * * * * * * * * * * * * * * * * * * * * * //

dimensions      [0 2 -2 0 0 0 0];

internalField   nonuniform List<scalar> 
106891
(
0.017286085116004611811
0.017277463694808495309
0.017264242354026154702
0.017256618759245789113
0.017244583688956195006
0.017238489571902711889
0.017227501454096086353
0.017222679390204876509
0.017213271441739556866
0.017209027385314160791
0.017197343153607269617
0.018375264174183197907
0.018497361418691654622
0.018636361562382228185
0.018788779073643079726
0.01894612154919871061
0.019094455955655044443
0.019220481060705740112
0.019313945502323143916
0.019373175512581906899
0.019404070062788748852
0.01941778328111627705
0.019428791390274174899
0.019451510006291018035
0.019502889630221960371
0.019590255992633937715
0.019712161525366117543
0.019861817674808959072
0.020029034372127475783
0.020198318933047538365
0.020359210735527769748
0.020499542486621981363
0.02061493227426912378
0.020705318340782923048
0.02077588054870014439
0.020833003109423514632
0.020883221848944862747
0.020935137506168356725
0.020992380608258337515
0.021059502796569654764
0.021138229323347676458
0.02122864206399580761
0.021325544226471749437
0.021425121569501767022
0.021520473268232354763
0.021606942314171997954
0.021682402832930967179
0.021745266903054946001
0.021798891471607542009
0.0182827252850324036
0.018266906893922425087
0.018257090955693281581
0.018241609874509727429
0.018231926842477364642
0.018216405484307592044
0.018207057636237759107
0.018191795126589322545
0.01818251381887694279
0.018167313952193491627
0.018158065580967736735
0.018142875640256413139
0.0181343450465765825
0.018120195833602185942
0.018113034444957216984
0.018100038632146812911
0.018094044111139937631
0.018082430280112939819
0.018077045121344441359
0.018062446235931832461
0.019465412368001974025
0.019613646653692862198
0.019780000944135785884
0.019951579259502635194
0.020114125551569120298
0.020253502929979561725
0.020360763829157708243
0.02043300861733979637
0.020474401665234086278
0.020493664984823370401
0.020500694609947755359
0.020505584388132439694
0.020517078311241970789
0.020547061225225250053
0.020630894666353843947
0.020819443019557161423
0.021033680443719126457
0.021248875180252573686
0.021446339796765002961
0.021614432991472424389
0.021743514775259212973
0.021834136134119545847
0.021894754704035474663
0.021933039936281442661
0.02196263058423213177
0.021994087238848492039
0.022037784785274770055
0.022097510975079094619
0.022177667539398284585
0.022273957126152977432
0.022382350731795033066
0.022494385068828979396
0.022602884384265872764
0.022702805088249882609
0.022789041298844719269
0.022863255293692662934
0.019219704588253953143
0.019202017947481747617
0.019191595218396226979
0.019174294105620784401
0.019164017511169900015
0.019146736502606169494
0.019136653746782108371
0.019119589313224751026
0.019109599822361336696
0.019092564700044861725
0.019082643206189603413
0.019065495472945385991
0.019056292405166611048
0.019040057706003195998
0.019031873830969804617
0.019016842388388036089
0.019009646222303794999
0.018995633305475746744
0.018989007831139839699
0.018971322852723664781
0.020559567156186692866
0.020681786852781474523
0.020822321502250003278
0.020968381711538277429
0.021109526931315587134
0.021235224046723521346
0.021341062611902536506
0.021429902638856232477
0.021507717263316791095
0.021584396849654106237
0.021668468492844737
0.021768367797120841828
0.021884578178883843519
0.022016719275282068541
0.02215616414002560125
0.022297766237072053075
0.02243104500343288954
0.022553673005076688846
0.022661438717274315358
0.02275458203666750126
0.022833571174666767584
0.022900848128988602476
0.022961541427655704495
0.023020320137779201608
0.023086320689897098235
0.023165115965610980076
0.023261946760368093501
0.023374983833120376725
0.023503037286221193508
0.023638202778872543369
0.023772585216479510256
0.02389712247670431125
0.02400555745293392329
0.024095930886014176736
0.024167128911951059334
0.024224017708113037423
0.020185004342668354943
0.020173835678939079641
0.020154510684205123594
0.020143466608832722581
0.02012421420186806878
0.020113219175335882855
0.020093989488274101307
0.020083137084095713937
0.020064100189772896693
0.020053579436030300603
0.020034466867406574425
0.020024539993853542053
0.020006320293501984181
0.019997188396703603069
0.019979857936217090136
0.019971437109071857319
0.019954850826595284946
0.019946861942915145027
0.019925850430645358075
0.021472305881845229342
0.021590662135078993178
0.021795603178947405704
0.022026369598674672839
0.022258023145110765462
0.022469132888637680101
0.022643435829930672748
0.022777408008532049055
0.022877029008049984404
0.022956060840562231284
0.023028707724522395894
0.023109187445494866475
0.023202333873606553749
0.023310510872255212067
0.023425950902709071627
0.023543446014666031402
0.023653861999533128124
0.023753646064723028808
0.023844215926437151154
0.023926847081410941576
0.024010183269386243393
0.024098401173197298714
0.024199781478258304557
0.024312879865333033441
0.024441220928138118057
0.024582259793592485531
0.024732998660757243153
0.024887256054635990138
0.02503876923554924569
0.025179725357572103894
0.0253024007264172901
0.025404662868510775181
0.025481041256791656796
0.025535877738563774603
0.021238841716477017962
0.021217027079084922053
0.021205074802047595844
0.021183726631391928269
0.021171809275439313486
0.021150296090160940199
0.021138189022478950929
0.021116678854180517821
0.021104875081159966271
0.021083684530576542876
0.02107240030850933421
0.021051432036082447924
0.021040711601153290478
0.021020391172809533425
0.021010334231307378067
0.020990434076011452863
0.020980689438149183884
0.020961187605603177897
0.020951575078155117854
0.02092669238165256046
0.022908982096338317141
0.023041391318853535197
0.023193805816110170392
0.023354633324189043309
0.023509666296151258275
0.023647234834491784317
0.023762680191813514291
0.023855239861988897232
0.023934185570877560684
0.024010012357080754569
0.02409861043912021536
0.024207732362195508863
0.024343407917016720438
0.024500145602362851521
0.024669435167207695581
0.024838286816437186305
0.02499283382172785492
0.025124768873506255623
0.02522767767646985973
0.025304397389512608973
0.025358761168815604353
0.025401935718661290686
0.025443315927615568761
0.025496602077477621695
0.025570541263757566586
0.025670086176196666577
0.025796508364534793956
0.025945154852657519029
0.026107447613685948185
0.026270389129350778246
0.02642575501834644805
0.026562601554341556953
0.026677899961937718426
0.022300392000600799403
0.022287362528823826541
0.022263722617445889235
0.022250681015180778094
0.022227035704820024414
0.022213746950920380124
0.022189798636188744207
0.022176944372668979527
0.022153530342186932706
0.02214148762471822296
0.022118439109215435462
0.022106913425302660015
0.022084204259217789235
0.022072979853895134672
0.022050242954639431153
0.022038935334668326854
0.022015976255216753582
0.022004323021406486938
0.021974831042895524164
0.024185000760117744689
0.024308059217222763998
0.024450402796192618332
0.024602741972176600527
0.024754536648418975359
0.024899756041678718088
0.025032898923187940632
0.025157410318198372007
0.025275193610214238132
0.025396232107364354741
0.025521934887652451135
0.025657914565612210261
0.02580035529551950868
0.025944569354345869278
0.026083616211499727894
0.026209254349330170231
0.026317723845064255883
0.026404109202468665357
0.026472779845261314169
0.026528233431939114706
0.026582293802402689326
0.026643011414780520124
0.026722028669655419758
0.026825302045327431566
0.026955393895467503335
0.027108603867654550851
0.02727813165852029445
0.027455143335332179988
0.027626882812649175558
0.027786854997138600576
0.027926199784762999884
0.028043747501025957647
0.023438172477183143866
0.02342374512295849337
0.023397651638552802861
0.023383305814795061345
0.023357559865651262437
0.02334328003360638254
0.023317291624558974389
0.023303562691527463652
0.023277811124725135417
0.023264798693435846666
0.023239236145669688038
0.023226579106167911937
0.023201096175389242238
0.023188482681588625661
0.023162542382986244655
0.023149239263986085002
0.023122315496057869316
0.02310831489892841567
0.02307366822007711829
0.025498105631311225594
0.02562676561533129907
0.025779085124176544241
0.025949981578979573055
0.026128990144546986735
0.026312518510657537107
0.026492480413614499096
0.026667294982105103213
0.026833853584024850575
0.02699118360643978573
0.027137842340201331209
0.027272128334321348031
0.027393995349593944916
0.027501062486494167597
0.027593503383173404592
0.027670119907103510326
0.02773581350615004007
0.02779181450719265048
0.027847394005116592186
0.027912514660453479481
0.02799601774293917697
0.028104126282310879642
0.028240363876008658939
0.028402957900983603207
0.028584142301378484552
0.028773772251856195165
0.028960661217630957048
0.029138232476302185214
0.029297258375208006659
0.029435017248738606921
0.024623063460205766445
0.024594360475166419239
0.024578695360063077674
0.024551064591495638106
0.024536115749881393794
0.024508555657682024737
0.024494198147692908263
0.024466401632420212153
0.024452246594765410931
0.024424110283462998477
0.024410028458629898229
0.024381793061991893085
0.024367235971389393512
0.024338062137544011487
0.024322461084580887514
0.024291740724210315883
0.024275383294807651585
0.024236930248381114567
0.026893442890757721098
0.027090624750109267016
0.027306135792682487834
0.027526547983791487678
0.027735268811836254893
0.027925359940410576093
0.028092487216520328763
0.028237606584485906019
0.028367212119563781775
0.028485764777647235024
0.028600010144275527652
0.028710519643987516408
0.028817101139258033404
0.028914784842754101546
0.029003488108358878306
0.029084831400488699721
0.029163285699328422157
0.029246776834889333385
0.029344200148425939045
0.029461801558372996412
0.029598602054862810373
0.029753445642289284151
0.029921185250198805566
0.030096427576041879376
0.03027254458291095407
0.030445722613058116141
0.030613289439866939873
0.030771075550256456882
0.025952860239486421484
0.025924137037901723302
0.025907812795743549728
0.025881114611487204824
0.02586608209032140171
0.025839950536089350414
0.025825380082166067564
0.025798033398606284861
0.025783195983399020274
0.025754617094116326326
0.025739451685949744919
0.025710154698674835688
0.025694001038401942383
0.025663422336866928419
0.025646059116434853642
0.025613171940443983654
0.025595319913824559482
0.025558380074684722283
0.028484824958956569269
0.02867412768272566484
0.02886361159054243522
0.029043686336112248259
0.02921128094643422532
0.029364929786533964379
0.02950850262953890607
0.029646533429809426852
0.029781082994097540784
0.029915835746790454125
0.030050994784723807779
0.030187733337468106859
0.03032132543126238311
0.030451897238906903281
0.030574987565091776842
0.030689872705062074681
0.030798313788393497092
0.030904087623537673107
0.031013476549128754511
0.031129702548235868576
0.031257408322121642275
0.031396974281933033579
0.031547197347298147618
0.031703825992989667637
0.031863032658211484782
0.032022833292472338562
0.032179612554357944765
0.027049515616687589553
0.027011147585043557978
0.026984277414213084928
0.026946440413692696741
0.026921384067130522955
0.026883045925527156161
0.026856798401710339774
0.026817666258928143236
0.026788371460449288131
0.026748579229393970591
0.026717840579966099096
0.026676121979910361742
0.02664555874280832154
0.026601440108531757001
0.026570043470456983919
0.026525440468436193436
0.026493570812599270131
0.029511090661645755784
0.029660536551024820756
0.029770986505159642566
0.029842747755396754894
0.029889942069704602406
0.029932010536315049876
0.029990844331585511662
0.030086402641656906365
0.03023019083204007279
0.030424547715283065119
0.03066122952809258867
0.030924188019479340039
0.031187883971531691479
0.031430037448204557748
0.031633811400165932903
0.031790578906446251284
0.031901841403713701584
0.031974228598175329086
0.032021664238911472233
0.032058516925603137981
0.032104230145021547815
0.032170787717429309704
0.032270505846347032064
0.032404359543778092634
0.03256776610789001436
0.032754159709424399138
0.032950801486366719517
0.027015874428757229858
0.026984088987909552598
0.026922444062289489775
0.026891287763013749235
0.026828794487408970382
0.026796280809188111061
0.026731646393465403888
0.026697191803194377652
0.026630048697316381634
0.026593671099833841864
0.026524821919536884646
0.026487733918753551821
0.026417189559641521268
0.026380298611130007652
0.026290962807435654114
0.026295243988511254885
0.023757786706972823521
0.023871255925704312761
0.023948090032308803204
0.023992529940570894026
0.024014052321150732017
0.024022870737981493611
0.024026973853907902801
0.024030092769039793077
0.024035959465356516312
0.024050796456993581152
0.024096681770597629113
0.024245508419677718609
0.024595228084121519008
0.024952923710473345204
0.025270755035070150557
0.025531793274150959422
0.025726145310353745049
0.02585304052178622955
0.025923807899896473411
0.025955743178388317877
0.025966154576791099229
0.025967489721482574921
0.025966313548168137165
0.025966147564871248921
0.025971705156691973077
0.026001411801911046562
0.026112129507111787874
0.026380426145494365042
0.021506711125878031493
0.021459590152740164876
0.021435119226065554171
0.021387530244729918705
0.021362305310859839441
0.021313539197190201069
0.021286627562544950532
0.021236038274003471438
0.021208268631380811087
0.021155963773084301288
0.021127848147548589086
0.021074573868082140116
0.021047023045976217398
0.020981084460650289286
0.020996465721785331771
0.022266677922867964684
0.022436252730201389216
0.022578030030289721053
0.022682931363632297811
0.022751226617473852692
0.022789296699919400768
0.022808991103933782402
0.022823472644772937329
0.022844870792071467203
0.022889662987562266194
0.023003344873231947043
0.023221749459787863895
0.023454261092133488892
0.023673800389624660712
0.023859768322802957924
0.024002171575329404873
0.024099524049034311973
0.024158686596501072891
0.024194223919057858407
0.024221888890093815072
0.024259957423157518103
0.02431853836397047941
0.024407898513495587117
0.024528066446684138741
0.024674483486674017585
0.02483714604621094918
0.025002255058418652867
0.020310366640923508547
0.020290619196781656264
0.020251651445243018523
0.020231331194704622184
0.020191333811430286355
0.020169488540051596498
0.020127946167994160975
0.020105356106950005718
0.020062565043705002377
0.020039533644646195798
0.019996147212817103056
0.019973695209370753018
0.019922853692071980369
0.019915578555277872047
0.021567951987675432896
0.021699293525792161252
0.021788808443209572996
0.021846225466396085313
0.021883277042012781732
0.021918123675591212607
0.021966426714981265866
0.022038854007930010898
0.022139873453685239568
0.022264935331899694815
0.022407786085120031533
0.022555967354739091951
0.022701436186610565726
0.022835059376521221752
0.022954684488070975501
0.023059358167346267338
0.023150905271994849655
0.023232549286841014391
0.023308133457584648968
0.023385086885220160435
0.023467121234402969765
0.023562410898359809064
0.023671290743794742156
0.023793554079488025282
0.02392354925016745848
0.024054314511450822917
0.019568946919082740726
0.019532369908573654627
0.019513251758966541211
0.019475706462594326307
0.01945529671536092714
0.019416278632571989937
0.019395141635997571739
0.019355021964519568412
0.019333660648043326374
0.01929303659113612221
0.01927212349501039243
0.019225565965367841237
0.019216717963543406
0.020904463777083007181
0.020973259894276983367
0.021017170851664677966
0.021047637283644376333
0.021081446132245707653
0.021131760875463471983
0.021205767577777746152
0.021306970132589947431
0.021431798489518136264
0.021574081666256423456
0.021721725449978412925
0.021866602921893300154
0.021999553971464615165
0.022117603967070815357
0.022218722112916675787
0.022304770851009039084
0.022379710541266167878
0.022448746456682981687
0.022519840279568957564
0.022596004069410084714
0.022683206370217437464
0.022780451923401397185
0.022886248443217582088
0.022995994537707613314
0.023105358909176341303
0.018785866540335774411
0.018767252070451198587
0.018731125351803604856
0.01871153898314099201
0.018674033664508822572
0.018653786796370537548
0.018615408116289502288
0.018595176604883106863
0.018556539636716551378
0.018536753314911346563
0.018492297554159133066
0.018484140766342749274
0.020308955260546986826
0.020391766647914894017
0.020443522886704579983
0.020471105927102575123
0.020484843839487759665
0.020494654579544663298
0.020509480349819475542
0.02054146226985200871
0.020629424451156442438
0.020796407007190705757
0.020970602055825671856
0.021135985410353819863
0.021285735718268104788
0.02141385787120964751
0.021519874802732798236
0.021608652548744743116
0.021686920931053409872
0.02176388062925975822
0.021844451615472351008
0.021933895070541678529
0.022030645883707497545
0.022134109609658763479
0.022238706493037271178
0.022340196800577468567
0.019642594253115215619
0.019679058885782699934
0.019697654902053891857
0.019708049787655598784
0.019718636551865932616
0.01973789665073580335
0.019782294332010570692
0.01990248027572882536
0.020075302513489001049
0.020245217148751180891
0.020402108539536688292
0.020540686398732497381
0.020658467312753822642
0.020757303892077992591
0.020841610441514078766
0.020918374048582218105
0.020995037992259112797
0.02107409987137392679
0.021159886142042609591
0.021250337744849356891
0.021343988973434407236
0.021438426501175091021
0.021529792577151544292
0.018921245692398214883
0.018990122514121379055
0.019067501190350135548
0.019153092961922274506
0.019242817640758490272
0.019333193687676736988
0.019420174176431485857
0.019503255383458897171
0.019581445636529432736
0.019657643965493593746
0.019735053736357390658
0.019818436651692545453
0.019911975650760301709
0.020017569890818560224
0.020138041388792285447
0.020269562950382638555
0.020410049699915111532
0.020552098183138228088
0.020690742867095841123
0.020817893563643163901
0.020930961219239554993
0.018532297620509952107
0.018607020428111596677
0.018685732400769355238
0.018766699238128022043
0.018849664275392374185
0.018935250758695652135
0.019023437417203095667
0.01911514422479805575
0.019212026324944363187
0.019312875164995402938
0.019418053310896979391
0.019526469442007386712
0.019642195760067097249
0.019763426971632545859
0.019891380665074006456
0.020020409457839647566
0.020144415452670334093
0.018387785475744482244
0.018456115423371055595
0.018510811946248584975
0.018560604701749118528
0.018615370867065265947
0.018680879383400739169
0.018760230868225747508
0.01885130973597709883
0.018956143472339842537
0.019070317416452545883
0.019193637312278216678
0.019320257438216064533
0.019443571775161223175
0.017847600857064736812
0.017913691269188968674
0.017952606007097558077
0.017972257090339685548
0.017982754159099081231
0.017996192596302584832
0.018024000702320953221
0.018086871289641204275
0.018182107645165965226
0.018298689049342595908
0.018427486991847177172
0.018557751719020527947
0.0082764124772668791474
0.0087615699956531886694
0.010157948075340750976
0.01157587672937318915
0.012531905609798402179
0.013045124468001326884
0.013229369474944928375
0.013248928268590141541
0.013193369902097963967
0.012893258876499001306
0.011991316982485320658
0.011062749766173532798
0.010388605031727784003
0.0099481182353872137786
0.0097024008069667884435
0.0095969861087519519466
0.0095723196624376734321
0.0095776498213562093198
0.0096237636657620292957
0.0098170222011723234923
0.018410400968240342445
0.018705109839035883451
0.019784606637986947714
0.022260111535777130087
0.024335224844198928562
0.025659947425778588392
0.026303730159793203836
0.026489232427786460478
0.02648902472137784625
0.026361265400688258659
0.025810909931494329522
0.024173058249410087073
0.022274565468813040114
0.020749754688018914872
0.019623211258084461567
0.018891512534996414419
0.018504240972954177219
0.01837000447357177435
0.018360408363274769578
0.018398803245003890472
0.018571893246147042761
0.019165480280994549173
0.059423503571646815735
0.059762495496242809545
0.060730845385161436045
0.063559822717483172028
0.067593329956569761507
0.07058682732713893182
0.072198306409646972881
0.072699194795904115152
0.072721171399840994765
0.072525694820196925927
0.071830527777626052011
0.069788557469424694624
0.06648641566550499149
0.063434097035984973734
0.060952162805528758982
0.059296460888205372586
0.058505711054139646066
0.058329835755747704018
0.058377384559884955284
0.058639487087818957523
0.059422780618917467321
0.061624576862055253923
0.064466838606928048017
0.066614329821736220638
0.067857804415999770087
0.068257533153541188886
0.32556784958123802243
0.33542205778873257493
0.34664372631082857046
0.35677003747542235246
0.36404325560332617684
0.36775928915629829685
0.36878607115688322171
0.36870198499698830785
0.36736741265561401182
0.36231410900171256984
0.35340882374224363849
0.34544175079761552105
0.33925430903061382093
0.33518415605234219701
0.3332125118787833129
0.33276395714936085612
0.33287926541063650454
0.33355074530836320568
0.33567147851479028908
0.34176579449824223689
0.35108568178199733856
0.35978956480880769364
0.36657869171841012124
0.37063058620459615744
0.37195267088971950553
0.37193454843241907648
0.3714236081431582237
0.36966989733873323321
1.660983948799375165
1.6760126443600087409
1.6905552429322743269
1.7016945516277597328
1.7078024751652527424
1.7097764766599448105
1.7094938377959747466
1.7053497272464099854
1.6913420363192424034
1.6745924809368952779
1.6602169522425400672
1.6488812760698730031
1.6411836816083507085
1.6370730352159525989
1.6357723242223545235
1.6358844099465306154
1.6373469155814102116
1.6434848341936145744
1.6551096425197242556
1.6656916304781865801
1.6740039615026744979
1.678882200798733848
1.6804019974175234964
1.680229251505413135
1.6783419163876271973
1.6716462712951742908
1.6568703147027605826
1.6413961340997398342
1.6276956140280476326
1.6169335507587343503
4.0858376101332440911
4.0760195811781638753
4.0645360481914440953
4.0507124633497397781
4.0343021297480401444
4.0156777499188409664
3.9957558790639695623
3.975804282975599957
3.9570846082603701177
3.940589400545243759
3.9268514347070389015
3.915883328110979722
3.907376415434981709
3.9008790477485399961
3.8958034941740931067
3.8915150457028508946
3.8874126143855214366
3.8829574265738600047
3.8775841564971269548
3.8706052070363230477
3.8613187349482824828
3.8492120226542212436
3.8341564574974102975
3.8166496756871093332
3.7977983065231013526
3.779139126243558966
3.7620828501182792536
3.7478250472899419243
3.7368731040918579112
3.7292807314933642537
3.7243777418719417049
3.7212322266762645206
6.0877048745657926787
6.0659558414653398373
6.0447164079317161622
6.0239201040461658465
6.0034217549355943788
5.9830406411911942755
5.9627719651987769467
5.9428939405447875899
5.9238225665664376862
5.9059376320186816045
5.889289110334734012
5.8736592367198028342
5.8587040857893581958
5.8440530820984672999
5.8293210534093047315
5.8141990887358927509
5.7985562331780604595
5.7825160441594922744
5.7663593577723046835
5.75036627575336734
5.7346738098972576125
5.7192998839314759252
5.7042351217007265518
5.6895722650508320228
5.6754850758680381873
5.6622097100512327472
5.6498127892344554013
5.638181091532294964
5.6269939994123259197
5.6159684287184594709
5.6047973334918204102
5.5934839217276293155
5.5820596408286400347
10.203094864320132018
10.100868984975749143
10.002977504220497806
9.9086093822403604747
9.8173521239573044994
9.7293339056833154643
7.510415739157321191
7.4906435072914199225
7.4713636348135699095
7.4525321111787183881
7.4339962351314934352
7.4155312008507463517
7.3970685001101559308
7.3788478601258509215
7.361371228901148811
7.3450376317359147293
7.3298826384898632114
7.3156133272898209441
7.3018132757407538946
7.2880906269308072254
7.2741233419459305765
7.2597106481113087284
7.2449095671021899179
7.2300748674979704589
7.2156977377937812079
7.202094724866177522
7.1892040821816243223
7.1766752472883217351
7.1641895379247131359
7.1517260948012726374
7.1394737820969531583
7.1276203584952133596
7.1162087804792530932
7.1050959793670154241
7.0940550631874002008
7.0828712577183967625
7.0714845702618296386
7.0600130235065723383
7.0488453360867451281
7.0382163061177278607
9.780343124338637395
9.6898545834625480211
9.6034533177671743687
9.5205015794684531016
9.4409342634360200464
9.3654326645897771897
9.2940902467354735705
7.4754872526997164783
7.4587315626074692787
7.4425276756177654036
7.426668295782791418
7.4110223473960781249
7.3959078608620307804
7.3822504441591014768
7.3712609427458737343
7.3636354324323836096
7.3588867659636250096
7.355606705792552269
7.3521007509072804353
7.3471341671455050459
7.3402128874283096849
7.3315803345240277977
7.3221143757849107558
7.3130500012736092685
7.3055195708694027346
7.2999682750147183441
7.2959408445492925921
7.2924797292660885617
7.2887559521748617186
7.2845209989158838937
7.2800652677989399209
7.2757885865702807138
7.2718574763441941045
7.2681149880368467464
7.2642956500796902475
7.2602759565705534683
7.2562263289396433663
7.2525643882624653003
7.2497020990725946632
7.2476423044438904597
7.2456903965016268288
7.2427748587139708647
1.6492466619082539334e-06
1.6540327835262518083e-06
1.6626495100949506975e-06
1.6710977764698313427e-06
1.6762177312496333005e-06
1.6874168050308915122e-06
1.6957926572620868929e-06
1.7055382828681229818e-06
1.7178407310193404491e-06
1.733088152776115732e-06
1.744542651614106521e-06
6.5052205582899567254e-05
6.5348769243109083122e-05
6.5546849123065208218e-05
6.567272019299798876e-05
6.5747287583914004673e-05
6.5791696749055241541e-05
6.5814908476856992026e-05
6.5832431972331564721e-05
6.585978475006074495e-05
6.5929027562626861948e-05
6.6160412630578919525e-05
6.6913189660654505907e-05
6.8019438406971872318e-05
6.8970874436283282336e-05
6.9663982143938524456e-05
7.0081009673252347416e-05
7.0288329387032869163e-05
7.0361038241908906523e-05
7.0369117238112179622e-05
7.0334004361445213592e-05
7.013556364218975726e-05
6.9592651389331438129e-05
6.9051556349549491937e-05
6.8618303158423778827e-05
6.8301705965675223154e-05
6.8101508229246574032e-05
6.7993025757374841241e-05
6.7935253076802684354e-05
6.7891969563692791266e-05
6.7842366807757499753e-05
6.7792715984773060868e-05
6.7754363904738376407e-05
6.7739906884200097158e-05
6.7739334385487963929e-05
6.7743780716899879382e-05
6.7759179536480937151e-05
1.7168432542591355537e-06
1.7167202975662178626e-06
1.7170416708301579312e-06
1.7179674121931140419e-06
1.7199237313878361038e-06
1.7220892194209262035e-06
1.7262349123301684638e-06
1.7335351714501302517e-06
1.738483531170150957e-06
1.746414991575900856e-06
1.7543277744461646905e-06
1.759352212309283405e-06
1.7682165237625231737e-06
1.7760765546180351542e-06
1.7811196077191278561e-06
1.7917633307568386632e-06
1.7985770537618357325e-06
1.8071546103011430028e-06
1.8174339632915457942e-06
1.8302780693933060228e-06
1.8404481897819490412e-06
6.2971147994973363134e-05
6.4194148267165786269e-05
6.5319123650309937287e-05
6.6331606613953349627e-05
6.7214788379595856406e-05
6.7945186240508367642e-05
6.8488330678242870654e-05
6.8837283920662186657e-05
6.9019148991237557964e-05
6.9085381911905048178e-05
6.9086679303638278706e-05
6.9071518596919588345e-05
6.9042499937340664953e-05
6.899965194097380241e-05
6.8897126084593342255e-05
6.8751814659832600736e-05
6.8622750591679448863e-05
6.8503686764725117047e-05
6.8382295924952738483e-05
6.8235123263431620225e-05
6.8042960823779896715e-05
6.7808220368081826841e-05
6.7551725710857067077e-05
6.7309789064269682428e-05
6.7112341600033867373e-05
6.6973724799883289699e-05
6.6887457526357388437e-05
6.6844862352460015066e-05
6.68383426024152683e-05
6.6847008136794967901e-05
6.688408566248032908e-05
6.7003511583464117271e-05
6.7336402202591415928e-05
6.769982915062396371e-05
6.7967419844210092512e-05
6.812170028362737168e-05
1.8233574021573004131e-06
1.8237023125221912865e-06
1.8246468172864942481e-06
1.8261164766022664961e-06
1.8282248559467869365e-06
1.8306654786358145104e-06
1.8355232527985158583e-06
1.8431801795920448808e-06
1.8495293499641658377e-06
1.858390598061698997e-06
1.8660968374474102955e-06
1.8711564207175233747e-06
1.8793016709561204904e-06
1.8862098689219791086e-06
1.8915752036688612254e-06
1.9014837240592984076e-06
1.9075434035242002654e-06
1.9139211593265699501e-06
1.9224535591811041199e-06
1.9315059885819994819e-06
1.9418891730420475602e-06
6.7011864122730143735e-05
6.7555928677455302583e-05
6.8080224839444289093e-05
6.8611374853885871337e-05
6.9144809166408669181e-05
6.9675005224092100269e-05
7.0175147240879195932e-05
7.0600924559323125374e-05
7.0911843641572276978e-05
7.1108531000121339241e-05
7.1213090004882450613e-05
7.1249478604936710194e-05
7.1266043868114617465e-05
7.1299804556466353945e-05
7.1368747669942015775e-05
7.1446428052525764096e-05
7.1504856511266993145e-05
7.1532359120915654988e-05
7.1541511670103569652e-05
7.1532411415966296194e-05
7.1455141566908152162e-05
7.1133225114883668456e-05
7.0655340243504425571e-05
7.0302593612294998911e-05
7.0074783384118351031e-05
6.9957110555310397793e-05
6.9921996218620926307e-05
6.9920644221696789185e-05
6.9953918744106819913e-05
7.0097773183721071282e-05
7.0377175822187274684e-05
7.0589694193457462861e-05
7.0705885924484985095e-05
7.0752980838928797237e-05
1.9336396109763163373e-06
1.934620221447701861e-06
1.9361500989674833825e-06
1.9382567410586098392e-06
1.9408080153997564306e-06
1.9460449022851728273e-06
1.9532562775046877497e-06
1.9607900329831424406e-06