/*--------------------------------*- C++ -*----------------------------------*\
  =========                 |
  \\      /  F ield         | OpenFOAM: The Open Source CFD Toolbox
   \\    /   O peration     | Website:  https://openfoam.org
    \\  /    A nd           | Version:  12
     \\/     M anipulation  |
\*---------------------------------------------------------------------------*/
FoamFile
{
    format      ascii;
    class       volScalarField;
    location    "0.0067";
    object      p;
}
// * * * * * * * * * * * * * * * * * * * * * * * * * * * * * * * * * * * * * //

dimensions      [1 -1 -2 0 0 0 0];

internalField   nonuniform List<scalar> 
106891
(
99618.135758563235868
99616.934357394726248
99615.51340627130412
99615.193778660162934
99617.311849058489315
99623.091262393951183
99633.34128945262637
99648.115965074743144
99666.612769782208488
99687.133054782039835
99707.773018177264021
99453.956021574704209
99442.256683115090709
99444.378087399250944
99461.973654397908831
99490.321013885477441
99519.855166601162637
99540.316488079784904
99545.270146908747847
99534.612567983698682
99513.315016905515222
99488.091016840626253
99464.039933010935783
99444.182490894003422
99430.598835772616439
99425.141461388251628
99429.514025889337063
99443.533011287508998
99463.169551235085237
99481.423629574084771
99491.183445935326745
99490.298966462083627
99482.427209777073585
99474.272462605906185
99470.288141859316966
99469.220776918591582
99464.878726730385097
99450.956049386732047
99426.014684778565424
99395.88559132561204
99371.589067378154141
99364.273550109035568
99379.385550515173236
99413.593603702422115
99456.094013807320152
99494.157933389680693
99518.945574414523435
99528.586684566937038
99527.442817123039276
99558.047616773445043
99563.8062789307005
99571.598682386771543
99581.074198840811732
99591.48432001650508
99601.839433044617181
99611.118711379327578
99618.411722309887409
99623.155890109512256
99625.323881877717213
99625.412647979013855
99624.43059100555547
99623.726723875093739
99624.715754695265787
99628.722560044989223
99636.77650742973492
99649.371289025599253
99666.193053038979997
99685.793444185677799
99706.316375187772792
99460.122947269948781
99465.432130176413921
99485.621905912936199
99514.806418345615384
99543.022098628105596
99560.506640462728683
99561.848194720965694
99547.767366339423461
99523.1403588950634
99494.476444303334574
99467.275541331575369
99445.09244186343858
99430.72599109155999
99425.980880519884522
99432.28497004811652
99448.031307803743402
99468.177347681135871
99485.596000244491734
99494.450967044831486
99493.731180832910468
99487.69281474496529
99482.607751257615746
99481.794801617361372
99483.317381820772425
99480.882873445982113
99468.714754390108283
99446.36798466964683
99420.130596193004749
99400.57678154236055
99397.479492789658252
99414.807515587424859
99448.738591316214297
99489.317903189643403
99525.001592457498191
99547.460898263700074
99554.673003155432525
99544.505050820705947
99550.619781453991891
99559.352290115828509
99570.391991535070702
99582.919895234575961
99595.705887171367067
99607.457449552588514
99617.117970688574133
99624.002453019522363
99628.02550724640605
99629.698623203192255
99629.980345772375586
99630.155770596014918
99631.52427415017155
99635.227060953548062
99642.141153707168996
99652.767826549577876
99667.176165659824619
99684.461645819596015
99703.214702890138142
99484.538841701767524
99492.678304452172597
99511.041077817659243
99534.006809036189225
99553.785554004352889
99563.833419978705933
99561.104757804743713
99546.286135060276138
99523.089815452840412
99496.029597457061755
99469.46325573620561
99447.02075605886057
99432.057395865995204
99426.862219534843462
99432.775139984223642
99447.661760444185347
99466.369450901314849
99482.684751256470918
99492.754320140331401
99495.800302588831983
99495.077837394899689
99494.823124316157191
99496.881888791525853
99498.814259366088663
99496.025383586762473
99485.376683298294665
99467.911215650543454
99449.710002242500195
99439.074601536878617
99442.40025044803042
99461.314328160660807
99491.832923532580025
99525.526515900535742
99552.900412922215764
99567.726025300595211
99569.452896163769765
99537.085367592895636
99546.471782010223251
99558.314784634145326
99571.815352838093531
99585.820798958811793
99599.016444173481432
99610.290813095009071
99619.03204122542229
99625.181891227301094
99629.209016722685192
99631.926688613006263
99634.346170460732537
99637.478542157245101
99642.135520140145672
99648.864883576039574
99657.919718839286361
99669.407560348510742
99682.843810126651078
99697.527980899161776
99518.560317631316138
99529.638903135724831
99539.726505998143693
99545.930379879981047
99546.512555376713863
99541.10856482257077
99529.990021354518831
99514.090658969420474
99494.636430856859079
99473.4714130051143
99453.681433213627315
99438.279870355283492
99430.953657508987817
99433.206075594411232
99443.61221499639214
99458.805860213295091
99474.165633052965859
99486.988825509382877
99496.762315187093918
99503.964397589035798
99509.831278636134812
99513.673554763445281
99513.923111702504684
99509.480947834934341
99500.861681127367774
99490.962359475888661
99484.231069622619543
99484.791152667079587
99494.583497285362682
99512.525865308183711
99534.409872351694503
99554.174146469595144
99567.091091451700777
99571.301107184321154
99517.170851541377488
99523.490469026422943
99532.682661542916321
99544.293632531785988
99557.532913232862484
99571.418462041794555
99584.950812066337676
99597.269407231666264
99607.827325076621491
99616.487177139075357
99623.525457424068009
99629.514187474764185
99635.082642041685176
99640.756936729158042
99646.88036031104275
99653.574178082024446
99660.791013100199052
99668.587123066114145
99676.80926441133488
99685.486423635840765
99532.794790253261453
99533.438831916719209
99527.717190962095628
99518.811749366184813
99510.190097076963866
99504.330261910523404
99500.967003268931876
99497.47777636894898
99491.115659657021752
99480.667608563933754
99466.544430402864236
99452.551613273244584
99442.062978784553707
99437.788466754253022
99440.914426440693205
99450.129334835379268
99464.385847369558178
99481.127088436740451
99498.247569917235523
99513.787161574728088
99524.578265741598443
99528.722357819977333
99526.515565868481644
99520.625373444432626
99515.145343857526314
99513.994370486441767
99519.117556594806956
99529.78098008321831
99542.964030665825703
99554.301345336585655
99560.71652263039141
99562.145063172880327
99559.92505976666871
99512.98140622243227
99520.234855150003568
99530.139993480348494
99542.081814936289447
99555.183197297053994
99568.550519565367722
99581.487960827245843
99593.575408395437989
99604.660602445263066
99614.782179491419811
99624.068178957735654
99632.62377809190366
99640.433421328911209
99647.328377631143667
99653.04133886974887
99657.278942405086127
99660.070649984874763
99661.627033143333392
99662.72569051606115
99517.131772237538826
99497.970629890915006
99476.560718117863871
99461.33595979976235
99456.971436726758839
99462.982273754794733
99474.424609252280788
99484.635280820497428
99488.394605253328336
99484.122900762507925
99473.352023763916804
99460.040363490101299
99448.608652847702615
99443.192997328209458
99446.885216541457339
99460.015808659649338
99480.696406555405702
99504.309919548642938
99524.69314637084608
99536.708854832875659
99538.612968148067011
99533.077427727403119
99526.017175575136207
99524.133187982050003
99531.124365027382737
99545.428909787617158
99560.971081616080482
99570.424524377463968
99569.469398624059977
99559.405200562119717
99545.61475813263678
99533.997102998750051
99510.213233761649462
99513.992292076189187
99520.7272429066943
99530.338278227907722
99542.314649685999029
99555.822845661270549
99569.949072283605346
99583.941844489527284
99597.283225122620934
99609.647420976209105
99620.787942160081002
99630.444849109335337
99638.257334258159972
99643.769767453966779
99646.569032697909279
99646.331534024808207
99643.149090142775094
99637.470885357484804
99630.536373523485963
99455.129143638681853
99428.071701368156937
99410.392015009434544
99408.545305484192795
99422.286841861438006
99445.837143136668601
99470.629310902659199
99488.930139960822999
99496.269929536487325
99491.379231256971252
99477.731188232908607
99461.414415896913852
99450.360766090991092
99450.661668196960818
99464.608992977795424
99488.848324895559927
99515.39712244963448
99535.654844506949303
99543.843263400063734
99539.850417900175671
99529.390172594212345
99521.095745970233111
99521.861258593489765
99533.001106446230551
99549.217414242215455
99561.574927163033863
99562.510337557163439
99550.425924270486576
99530.274525137298042
99510.723422370021581
99519.300540533164167
99522.719812179275323
99529.956007709464757
99540.889280290983152
99554.751386075615301
99570.322609342605574
99586.242042159894481
99601.280301282095024
99614.511692604981363
99625.297805519832764
99633.16974831011612
99637.75514077351545
99638.752851714540157
99636.040638128572027
99629.675793109970982
99620.106256158440374
99608.073716226557735
99594.953424689592794
99386.179569796659052
99371.035168107569916
99370.648265657175216
99386.226149701717077
99413.607140728752711
99445.327044006073265
99473.068459496513242
99490.184951360788546
99493.503533060502377
99484.723177519917954
99470.884859314377536
99460.945026235945988
99462.538543832153664
99478.046361878266907
99502.240992073100642
99525.61094084965589
99538.736605313068139
99537.578143755919882
99525.343616051599383
99510.322360325153568
99501.369609134737402
99503.239517970214365
99514.038922351421206
99525.660371687219595
99529.269344228785485
99521.275789210674702
99504.130482919950737
99485.226367942625075
99536.926352982889512
99537.973663254713756
99543.70054617607093
99554.192197006705101
99568.602183325361693
99585.323837472315063
99602.345084298212896
99617.698730941076064
99629.829268266694271
99637.776494334349991
99641.156937504798407
99639.990733159938827
99634.509176251885947
99625.127309903415153
99612.36364588503784
99597.056800354941515
99580.320661511868821
99563.694467736873776
99349.654495378374122
99348.323972161349957
99358.810612930217758
99380.353079739128589
99408.572142934950534
99436.754406746651512
99458.257170973171014
99469.385370144736953
99470.826189504703507
99467.541618712071795
99466.979044097824953
99474.737421791578527
99490.414110129131586
99508.24069837348361
99520.494699449787731
99521.588141046828241
99511.307169463776518
99495.044823212272604
99480.598199602216482
99474.045399496928439
99476.111969965320895
99481.611638778660563
99483.562263617001008
99477.335143241565675
99463.328502680305974
99447.845125581821776
99438.907135132059921
99564.730405837923172
99569.312274157302454
99579.066585122651304
99593.076165763020981
99609.451078354788478
99625.74222799668496
99639.493179283876088
99648.737822558556218
99652.303455399232917
99649.919626321687247
99642.096194717480103
99629.799358509088052
99614.225202340414398
99596.531075977443834
99577.902021151021472
99559.512626306794118
99542.661079136873013
99346.420084227473126
99343.808222678446327
99337.795484376023524
99335.743191343382932
99342.858808831733768
99359.578937939193565
99381.883199751624488
99404.042515849112533
99421.882146380172344
99435.060981012953562
99446.378278692922322
99458.44158055036678
99471.462147349535371
99483.106913812909625
99490.050328116747551
99489.206872377035324
99480.545909394844784
99467.861072422470897
99456.619774653212517
99451.069492003356572
99451.437726384974667
99453.675035887092235
99452.31913125635765
99443.561849167657783
99427.826956369550317
99410.484522202663356
99399.578992866227054
99603.847015558523708
99611.977926929946989
99623.872886648401618
99637.681321290903725
99650.928818299042177
99661.083212480240036
99666.104301751794992
99664.835420734932995
99657.164765306719346
99643.919910045398865
99626.533403463487048
99606.756455981623731
99586.255585851627984
99566.500477233101265
99548.676006977490033
99533.71570504650299
99339.354212522695889
99340.835636646428611
99331.136710503356881
99319.14034058888501
99313.362941109939129
99317.925925304560224
99331.896536312982789
99351.430690727007459
99372.844026218255749
99394.494823726970935
99415.721570513254846
99435.016127242153743
99449.780991813895525
99457.343019139530952
99456.329162635927787
99448.149482905471814
99437.316724687654641
99429.401141458001803
99427.750004890142009
99431.673840188843315
99437.002274131344166
99438.506207864455064
99432.506084022752475
99418.709267416357761
99400.913963748927927
99385.756774294612114
99379.87320133834146
99386.933989783239667
99640.251495746473665
99650.373349884117488
99661.815976706449874
99672.27249324847071
99679.364951352472417
99681.186490708860219
99676.721812546165893
99666.024992889448185
99650.121517574836616
99630.674460360009107
99609.641412622411735
99588.82419548938924
99569.698260435427073
99553.319471676441026
99540.257253421208588
99333.42475397636008
99320.40757127883262
99302.048249260755256
99288.273102332939743
99285.121623176455614
99293.684589867800241
99311.470718432115973
99334.955405078188051
99361.024734331076615
99386.544726909836754
99407.791507397880196
99421.284770541795297
99425.023164985468611
99420.190110392606584
99411.469738203813904
99404.861821880476782
99404.357946066898876
99410.200557786592981
99418.910913063664339
99424.990410455618985
99424.147965013340581
99415.324253724131268
99401.227720313443569
99386.776127462071599
99377.177654675600934
99376.317508861189708
99385.392938717064681
99665.483371064285166
99675.865765727125108
99685.124981640503393
99690.967230691530858
99691.585934295027982
99686.069485589338001
99674.580251548890374
99658.264717818790814
99638.892323178573861
99618.472511560685234
99598.78903063578764
99581.190173989220057
99566.52465288543317
99555.037882357471972
99304.863015080874902
99282.096514087854302
99263.275552825914929
99255.490314028924331
99261.129393322451506
99278.501989801065065
99303.709500772878528
99332.039318809271208
99358.393029127284535
99378.096227437214111
99388.241681982777664
99389.121681335222092
99384.624575823589112
99380.815901454072446
99382.296575224318076
99389.910152793090674
99400.90973629632208
99410.299920643825317
99413.771553405546001
99409.652938602215727
99399.546057622384978
99387.646743530975073
99378.579621769094956
99375.619572696334217
99379.934949799266178
99390.67816941899946
99681.312486562412232
99690.730842271499569
99696.975224882888142
99698.259895247378154
99693.688226466430933
99683.419467922605691
99668.581645765530993
99650.927979101907113
99632.429389025564888
99614.805914527314599
99599.278590278918273
99586.50408885460638
99576.462735783876269
99261.779413301264867
99240.53334151339368
99230.484114742954262
99234.7668834511569
99252.130172727789613
99278.318629725501523
99307.362157124749501
99332.79307408236491
99349.923349146396504
99357.401600604702253
99357.878043777003768
99356.921059943633736
99359.941843304593931
99369.19295506751223
99382.555747600170434
99395.370447071472881
99402.890891014045337
99402.939300616664696
99396.641533163448912
99387.309912517521298
99379.022677933899104
99375.149532194423955
99377.340248122854973
99385.345526174132829
99397.649575669609476
99689.145097965418245
99697.088755138305714
99700.545921496523079
99698.547887932494632
99691.135235575668048
99679.280303800987895
99664.581542313622776
99648.882889903936302
99633.818271685682703
99620.528549760681926
99609.597442005499033
99600.903239942752407
99222.284607995534316
99211.727078067167895
99214.989490953652421
99231.523319415311562
99257.27274900500197
99285.654958386832732
99309.932126960193273
99325.923985006040311
99333.460110006737523
99336.247391613665968
99340.089695837596082
99348.916321536016767
99362.596251286377083
99377.464872843702324
99388.812164449482225
99393.908510394743644
99392.748897804063745
99387.572352144648903
99381.459368666881346
99377.067130704221199
99376.424271698473603
99380.617063086217968
99389.621037383956718
99402.685948764730711
99199.862380309874425
99201.946362087284797
99216.415489162231097
99240.135391477844678
99266.976745544336154
99290.664695977349766
99307.429011060856283
99317.414345766766928
99324.43769057438476
99333.099641199994949
99345.297038008400705
99359.286090462308493
99371.648705652216449
99379.743435634911293
99383.158480922589661
99383.565549621809623
99382.95572379049554
99382.33673257479677
99381.891545809776289
99382.152890569996089
99384.831715804975829
99392.014212687121471
99404.926184419149649
99207.202881392920972
99227.509684603341157
99251.864132107933983
99275.0036768893915
99293.459875343731255
99307.312461533379974
99319.333403928161715
99332.054341084614862
99345.400873779246467
99357.154468274005922
99365.203833224775735
99369.433908921142574
99372.214414167363429
99376.198137952480465
99381.9677115635277
99387.628072137100389
99390.529223659817944
99390.173918004307779
99389.497750120004639
99393.440187952990527
99405.571534616319695
99283.183905585596221
99300.459940934350016
99316.794157325319247
99332.562619537231512
99346.227336250536609
99355.414429302414646
99359.428236519481288
99360.555094992130762
99363.158856877867947
99370.630498580489075
99382.136757948552258
99393.11230077187065
99398.64983168085746
99397.445431066837045
99393.831210497854045
99395.078492815606296
99406.582231530570425
99345.513835880468832
99353.769811111647869
99355.820934165894869
99355.17657334471005
99357.545215447025839
99366.732606446952559
99381.398259500638233
99395.485684553263127
99402.696884942037286
99401.560149780852953
99397.024692538412637
99397.598543597210664
99409.491388790454948
99352.151208988754661
99354.91359340857889
99353.984527486070874
99355.512699821774731
99363.954535389319062
99378.415950808033813
99392.989240355425864
99401.227503515139688
99401.559180246826145
99398.845770087500568
99401.355169032220147
99415.059189964158577
98935.913452074062661
98914.466622458116035
98898.062674845699803
98890.654750186367892
98892.859130431053927
98901.878188042377587
98913.417176604445558
98922.442657048246474
98923.256629300201894
98912.013649732252816
98889.282489593693754
98861.38711605964636
98837.405715381901246
98824.106864357978338
98823.092080702015664
98831.871031384609523
98845.946596101071918
98860.528689444865449
98872.131731969304383
98879.067428913127515
98954.872654368169606
98929.872183856263291
98902.823397465850576
98881.263062243233435
98871.550030163285555
98873.515857469494222
98884.169644144698395
98897.861323860153789
98908.724689376365859
98910.685739922773791
98899.747307317200466
98876.733830450830283
98848.550530377324321
98825.060021860219422
98813.233147514503798
98814.12371977273142
98824.178209809775581
98838.243763326783665
98852.111578805473982
98863.285720605665119
98871.053488351375563
98875.789683351540589
98992.242019451892702
98976.211918314293143
98954.439250952622388
98924.869738824927481
98892.301468682358973
98866.10458251577802
98853.345009851109353
98855.720644518922199
98868.275536263157846
98884.250830158955068
98896.972254019594402
98900.081251870622509
98889.393865028454456
98866.108821411267854
98837.731232081860071
98814.798753334209323
98804.417677685749368
98807.115454282044084
98818.247698990555364
98832.099171776833828
98844.966485913813813
98855.617845049942844
98864.157346880514524
98870.951474053756101
98875.465108775315457
98877.01429178348917
99011.182922440944822
98995.317321629932849
98978.887156395823695
98954.868900380883133
98921.076585648697801
98883.365021480887663
98852.292495018467889
98837.618913030179101
98840.166482369459118
98854.426167162921047
98872.697363331753877
98887.250148551291204
98891.42583054145507
98880.919846535500255
98857.320903800136875
98828.759815751327551
98806.343767499769456
98797.335177230022964
98801.721916656286339
98813.797771193392691
98827.320669915498002
98839.097775458867545
98849.124587086334941
98858.360000337008387
98867.045117759305867
98873.71407405656646
98876.298395909208921
98874.212111397544504
99032.161655093703303
99013.742285434535006
98998.515244389622239
98981.758976808923762
98955.664831959831645
98918.13150434975978
98875.725722553412197
98840.929711905759177
98823.740844253479736
98826.076894429585082
98842.460876221957733
98863.140874865363003
98879.510228963888949
98884.661034210308571
98874.288951220820309
98850.326093736483017
98821.529931669225334
98799.538697439536918
98791.775969476686441
98797.698558134812629
98810.626026545331115
98823.783957628678763
98834.461485942534637
98843.802508944339934
98853.640059451703564
98863.991959828970721
98872.550217093114043
98876.015632367998478
98872.98084560665302
98865.911586380883818
99053.490056966707925
99033.14636360546865
99016.061698078163317
99001.545139113964979
98984.252969903085614
98956.907298028439982
98915.957316729356535
98869.355780685553327
98831.204917051945813
98812.354117546114139
98815.454660248695291
98833.452164922637166
98856.164909311846714
98874.165946431428893
98880.097565089687123
98869.707840311559266
98845.173671092750737
98815.928245718678227
98794.127472537671565
98787.37962069112109
98794.64815129879571
98808.362660432496341
98821.158465822969447
98830.828552804610808
98839.581011373200454
98849.949571574426955
98861.829815830365987
98872.103685733454768
98876.480391381628579
98872.715550020351657
98863.369190632220125
98855.694929209057591
99053.304294105546433
99034.009642041637562
99017.967652458988596
99004.110245389805641
98986.955235259680194
98958.016023371688789
98914.484268031344982
98864.714755264096311
98823.505030026499298
98803.553286669688532
98807.03332726622466
98826.534470072918339
98851.086506048537558
98870.517516940701171
98877.077874459719169
98866.611444656242384
98841.495947481525945
98811.740162676433101
98790.039579738833709
98784.143819180753781
98792.584138313730364
98806.999122189139598
98819.498475534870522
98828.305439356772695
98836.493637810388464
98847.278466918316553
98860.398387413210003
98872.012558306436404
98877.052921460388461
98872.63593506802863
98861.313656684724265
98851.296459475765005
98853.019770857034018
98959.398801310060662
98965.340438206811086
98980.156277951042284
98987.870648055541096
98989.717093368497444
99003.386300415950245
99053.01315774586692
99034.51109562178317
99019.234659022913547
99006.052122516004601
98988.813503845827654
98959.013589022462838
98913.851803660960286
98861.362993571441621
98818.170506113106967
98797.426911909235059
98801.263386892169365
98821.950759776940686
98847.919003687275108
98868.440833760294481
98875.440240328622167
98864.805969370194362
98839.160868922961527
98808.940614665625617
98787.221038789837621
98781.919003858085489
98791.219881409648224
98806.162775747419801
98818.489420005964348
98826.656847982303589
98834.420718942099484
98845.501720720145386
98859.57314708152262
98872.197068373803631
98877.703217390357167
98872.81610851676669
98859.966242785885697
98848.112284868140705
98848.646938104182482
98869.753274478818639
98971.530832282980555
98958.084117697464535
98963.260447109947563
98978.271218946669251
98986.070370973451645
98987.394920040242141
99000.774051761633018
99052.766040041504311
99034.68189885377069
99020.112625529523939
99006.990407659264747
98989.699309290808742
98959.837130176179926
98913.476625612194766
98859.495702129162964
98815.336943748596241
98794.194034676096635
98798.341798441702849
98819.715815495714196
98846.508380667582969
98867.640507994074142
98874.798095087928232
98863.995984037959715
98837.99966727825813
98807.493723497376777
98785.767229684206541
98780.809517986956052
98790.605972712000948
98805.853767989421613
98818.085185533374897
98825.883050085103605
98833.411597341386368
98844.667184091682429
98859.270403255010024
98872.436383134234347
98878.107531536894385
98873.001640081623918
98859.178625425585778
98846.241561170056229
98846.299497016647365
98867.484591089596506
98909.86040811080602
99644.103439805738162
99641.343597015904379
99634.856917281431379
99625.623514771956252
99614.855848498671548
99603.83976629524841
99593.834527241720934
99585.991195658163633
99581.3997397327621
99580.794516603622469
99584.913928978377953
99345.583663385375985
99364.44870994608209
99389.418019562333939
99415.453406347194687
99439.448535069313948
99460.007181570370449
99475.612408797780517
99483.535458227255731
99481.381559607762028
99468.596264733321732
99448.089080977428239
99425.266673488746164
99404.583120292518288
99388.670618615535204
99377.585333892144263
99370.56483592382574
99368.014777020143811
99371.532034913718235
99382.554721590495319
99399.775839965295745
99418.077661687217187
99430.502974147093482
99431.527119801859953
99420.230974131423864
99400.804252729620202
99380.873152097672573
99369.313376592588611
99372.714576016864157
99393.156844421246205
99427.639273653825512
99468.372807295978419
99505.484440389278461
99530.990715980820823
99541.540151330918889
99538.968769554892788
99528.726486671250314
99520.479135557819973
99526.615857500568382
99537.610768755737809
99552.743098920065677
99570.635503040684853
99589.512838971510064
99607.469596340728458
99622.78158548612555
99634.193958478659624
99641.048660158412531
99643.213443292988813
99641.024485763220582
99635.088294533721637
99626.144075991745922
99615.12432160685421
99603.106902181461919
99591.249042207942693
99580.797258640246582
99573.141521760815522
99569.474119131918997
99571.023499046190409
99332.686264554795343
99358.572245200310135
99392.47930133115733
99428.553144977937336
99461.797562175881467
99487.686088366273907
99503.766523670958122
99507.987653900752775
99501.245768123786547
99484.964422877063043
99463.914233924020664
99442.310049688836443
99423.711848316306714
99410.18148257167195
99401.702833615679992
99397.134797527847695
99395.665193976325099
99397.609716689126799
99403.91330811631633
99414.398652685893467
99426.560615610360401
99435.854651701563853
99437.521960985293845
99429.543911588974879
99414.367105222176178
99397.577660116381594
99386.210820787004195
99386.361587433755631
99400.642907677567564
99427.378723839385202
99460.954109062498901
99493.527394825432566
99518.239503179123858
99531.685894794107298
99534.535703350877156
99530.67657544920803
99531.764116616977844
99536.379684878062108
99544.93221272478695
99557.064437075474416
99571.813443808990996
99587.856073917209869
99603.691844070373918
99617.824712082539918
99628.927676214487292
99636.081447106611449
99638.876151473741629
99637.300495010611485
99631.693640062847408
99622.639514579292154
99610.946122487730463
99597.715342218798469
99584.263669470223249
99572.024084375530947
99562.620060171349905
99557.515524212198216
99558.16379671296454
99357.942847143858671
99396.847680760620278
99441.280333172209794
99483.165452778019244
99514.16006601206027
99529.23770852398593
99528.903372439206578
99516.999587228303426
99498.97602493299928
99479.130026004029787
99460.437349513522349
99445.185613290101173
99434.870380017717252
99429.455546286902972
99427.510925180729828
99426.990349073792459
99426.715256060531829
99427.052867792575853
99429.427601671690354
99434.415575984676252
99440.09150082571432
99442.978077881343779
99440.310415335072321
99432.027498532333993
99421.157344160950743
99412.24214026692789
99409.591682394195232
99415.925740857550409
99431.207029206940206
99452.542579483357258
99475.438721244470798
99495.715876488495269
99511.008798004913842
99521.216681072561187
99553.47774927043065
99558.897274506831309
99566.771821243324666
99576.7727567992697
99588.147223087828024
99599.916145010472974
99611.012204166079755
99620.372678251311299
99626.986394016756094
99630.060571136942599
99629.102502837544307
99623.949807311000768
99614.887949617899721
99602.648168986954261
99588.43823880139098
99573.933179404761177
99561.017448496641009
99551.668407996519818
99547.461286641948391
99549.624695505088312
99363.682793273808784
99403.343211459810846
99452.396196375993895
99499.90825381736795
99533.720778053233516
99547.306096466534655
99542.772441896508099
99527.734402334157494
99509.663056142671849
99492.566426975448849
99477.665233075269498
99465.887094355814043
99458.620315393083729
99455.78069264885562
99455.488277648255462
99455.042121664853767
99452.501702901266981
99447.931596107053338
99443.865603955549886
99443.243649833762902
99446.7783239276323
99451.896754661516752
99454.962748954480048
99454.078683850035304
99450.010107716385392
99444.795548115100246
99440.588950412435224
99439.11200807520072
99441.369540529311053
99447.350892422880861
99456.691004302789224
99468.935059565788833
99483.882243194908369
99501.377101148755173
99576.008273261337308
99577.852998013142496
99580.463157987265731
99584.284602859494044
99589.378838454198558
99595.449013120844029
99601.927534192145686
99608.030172184749972
99612.794990522510489
99615.177917359556886
99614.29226928074786
99609.593870894474094
99601.059726653184043
99589.312291997164721
99575.657439366565086
99562.009001939251903
99550.533858472714201
99543.452425449431757
99542.371952906338265
99548.093184315177496
99412.490940523159225
99461.036719072828419
99508.235520219110185
99540.506219261675142
99551.690336706800736
99545.397141038702102
99530.603187336280826
99515.315008352525183
99502.579074662877247
99492.004785327109857
99483.611044217715971
99478.445168468038901
99477.113363831143943
99477.702656091511017
99476.653090112857171
99471.673268778060446
99463.68313636079256
99456.300805780396331
99453.637123254302423
99457.096478032079176
99464.510622382294969
99471.944723570748465
99476.864472398738144
99479.01444157595688
99478.816057322110282
99475.967680779111106
99469.698858290415956
99460.428202389492071
99450.715979810876888
99444.547366907150717
99445.967358362104278
99457.430432626744732
99600.830778224146343
99598.132798856575391
99595.234088843339123
99592.997888539903215
99591.930877979189972
99592.084246207494289
99593.043685281780199
99594.027049740150687
99593.997876494526281
99591.912086138763698
99587.056323357246583
99579.307204672528314
99569.246189996265457