/*--------------------------------*- C++ -*----------------------------------*\
  =========                 |
  \\      /  F ield         | OpenFOAM: The Open Source CFD Toolbox
   \\    /   O peration     | Website:  https://openfoam.org
    \\  /    A nd           | Version:  12
     \\/     M anipulation  |
\*---------------------------------------------------------------------------*/
FoamFile
{
    format      ascii;
    class       volScalarField;
    location    "0.0067";
    object      pMean;
}
// * * * * * * * * * * * * * * * * * * * * * * * * * * * * * * * * * * * * * //

dimensions      [1 -1 -2 0 0 0 0];

internalField   nonuniform List<scalar> 
106891
(
98766.253039720875677
98766.897365954937413
98767.576425695238868
98768.291235536642489
98769.042498895025346
98769.830547903198749
98770.655322684324346
98771.516918807566981
98772.413868149902555
98773.344939458809677
98774.300841135860537
98763.00272545478947
98762.861186769136111
98762.724525106677902
98762.586949572170852
98762.443104015226709
98762.290286732590175
98762.129771995721967
98761.966142360950471
98761.805109885637648
98761.651174237034866
98761.506523664531414
98761.371271244512172
98761.244026651285822
98761.122361268950044
98761.003363949537743
98760.883575093423133
98760.759169107230264
98760.627204841715866
98760.487053638833459
98760.340993203179096
98760.193259019768448
98760.047454064377234
98759.904866943339584
98759.764627970303991
98759.625386645202525
98759.487500834758976
98759.354059443241567
98759.229968052954064
98759.119364663725719
98759.022770485797082
98758.936115081858588
98758.851984861161327
98758.762351087745628
98758.66193611039489
98758.550242528246599
98758.430992855748627
98758.309883382113185
98758.191761490903446
98764.940533082670299
98765.400831040373305
98765.882622339908266
98766.386375485672033
98766.91277953016106
98767.462815678314655
98768.037791441005538
98768.63928979371849
98769.269014285106095
98769.92871172715968
98770.620041686939658
98771.344513099495089
98772.103265005804133
98772.8970824789576
98773.726347800766234
98774.590913187683327
98775.490711100675981
98776.4241193664202
98777.389711685827933
98778.378661523296614
98762.941179797999212
98762.795479308086215
98762.648470354106394
98762.495156069737277
98762.333485989656765
98762.165311998469406
98761.995422863255953
98761.829331745117088
98761.671392688891501
98761.52383913884114
98761.386893807939487
98761.259004505904159
98761.137211687033414
98761.017940733072464
98760.897405053299735
98760.77169036246778
98760.638277657781146
98760.497132578399032
98760.350823554268572
98760.203171509769163
98760.057047908747336
98759.913088264205726
98759.770311428874265
98759.627587851588032
98759.485571662618895
98759.347556077394984
98759.218444563084631
98759.102032157563372
98758.998485232354142
98758.903705712305964
98758.810713972590747
98758.712355072959326
98758.604088252701331
98758.485527029333753
98758.36024951460422
98758.233946441294393
98768.128287408108008
98768.643519250166719
98769.179785041706054
98769.737289253811468
98770.316520220134407
98770.9182708884764
98771.543628274128423
98772.193981953590992
98772.870929491851712
98773.576146977982717
98774.311225816360093
98775.077603034660569
98775.876410767392372
98776.708447233075276
98777.574139827265753
98778.473357004055288
98779.406034436324262
98780.37061543148593
98781.365676058281679
98782.382951295483508
98763.01675762454397
98762.857076019237866
98762.696333553583827
98762.531387550203362
98762.361352307358175
98762.188234450295568
98762.01584743897547
98761.84835194889456
98761.688909637538018
98761.539142388675828
98761.399302957361215
98761.268343697229284
98761.143999085048563
98761.023077454956365
98760.901681486313464
98760.775833415289526
98760.643098741900758
98760.50342587470368
98760.358720696851378
98760.211807218962349
98760.064961098294589
98759.918887666834053
98759.772962397240917
98759.626801531980163
98759.481618931284174
98759.340444948276854
98759.207024309565895
98759.083923950369353
98758.970684905114467
98758.863551010450465
98758.756891568642459
98758.64532967559353
98758.525913549427059
98758.39921768658678
98758.268773632342345
98758.139468719688011
98771.872841216027155
98772.459136606325046
98773.0660679324792
98773.69394820171874
98774.343438846510253
98775.015503129601711
98775.711340470472351
98776.432310797259561
98777.179879976072698
98777.955483278812608
98778.760417405705084
98779.5956887172797
98780.461955819075229
98781.359620662347879
98782.28863572292903
98783.249084307870362
98784.239643881315715
98785.259055407397682
98786.299769847435527
98762.896337855127058
98762.720320332795382
98762.544336741178995
98762.368686686866567
98762.19463469288894
98762.023931308474857
98761.858248778429697
98761.698857618379407
98761.546788386825938
98761.40283169450413
98761.267087212734623
98761.138277868871228
98761.013987671147333
98760.890714485081844
98760.764982677443186
98760.634363564226078
98760.497936266867328
98760.356546600829461
98760.211627690179739
98760.064416726672789
98759.915516076041968
98759.765398143048515
98759.615382646981743
98759.467452938566566
98759.323862803707016
98759.186581063928315
98759.056258322918438
98758.931428630152368
98758.809024969727034
98758.685653216001811
98758.558832666167291
98758.428047831737786
98758.294971891256864
98758.162511513990466
98774.464531633901061
98775.075897030881606
98775.707584662901354
98776.359525549705722
98777.03185353873414
98777.724992219373235
98778.439672903856263
98779.176883508596802
98779.937803123728372
98780.723702116505592
98781.535786156280665
98782.375104308463051
98783.242499929838232
98784.138568066919106
98785.063791496868362
98786.018274605536135
98787.002266925104777
98788.014776285344851
98789.054805362684419
98790.115540020095068
98762.924681427015457
98762.7343772934546
98762.549503489179187
98762.371447994635673
98762.200304439815227
98762.03494802651403
98761.873702885466628
98761.715452227377682
98761.560472580400528
98761.410133486468112
98761.265909295805614
98761.128384463736438
98760.996570778748719
98760.868157674893155
98760.740243016683962
98760.610305953916395
98760.47665330824384
98760.33822190578212
98760.194901173454127
98760.046852732455591
98759.894893287797458
98759.741327448267839
98759.589180545764975
98759.440733213632484
98759.296836718785926
98759.156884960917523
98759.019193814427126
98758.881680348073132
98758.742880151345162
98758.602728943558759
98758.462646136526018
98758.324501182461972
98758.189709905025666
98778.241874793122406
98778.914668078068644
98779.607376940330141
98780.32003980819718
98781.052859869931126
98781.806257733798702
98782.580924196605338
98783.377741173550021
98784.197666635416681
98785.041622611897765
98785.910471879222314
98786.805035507350112
98787.725997125729918
98788.674050336252549
98789.649549827707233
98790.652984645450488
98791.683786005247384
98792.74133846181212
98793.819708520517452
98762.734820737910923
98762.544035126236849
98762.365948690639925
98762.199265946750529
98762.040131733287126
98761.884153492952464
98761.728056903957622
98761.570853473822353
98761.413892237411346
98761.259618406678783
98761.110472885557101
98760.967822815349791
98760.831488431373145
98760.699703696474899
98760.569591783903888
98760.437677079098648
98760.300551269741845
98760.156200526616885
98760.005032296379795
98759.849750747802318
98759.694295521490858
98759.542271016674931
98759.395299693598645
98759.252400165307336
98759.110598279978149
98758.966625942528481
98758.818783831957262
98758.668039887605119
98758.517774858366465
98758.371839741055737
98758.232747872636537
98758.101013339473866
98781.354448230325943
98782.064198351159575
98782.793641705604387
98783.542620936772437
98784.311051136013702
98785.099008864825009
98785.906762299520778
98786.734794980715378
98787.583833046446671
98788.454795162499067
98789.348622312114458
98790.26619885727996
98791.208294678406673
98792.175730862276396
98793.16910689593351
98794.189274012460373
98795.23614669177914
98796.309428992724861
98797.403916801849846
98762.549455976230092
98762.371950229411596
98762.208189513155958
98762.053071936417837
98761.900409545443836
98761.745173356452142
98761.585058034906979
98761.421002441478777
98761.256189778374392
98761.094692558399402
98760.940213898647926
98760.794206744350959
98760.655564247295843
98760.521005686110584
98760.385760150587885
98760.245153678144561
98760.096864294828265
98759.941901757396408
98759.783887192796101
98759.627651675240486
98759.477054998162203
98759.332925008202437
98759.192583923286293
98759.051505652270862
98758.905838980834233
98758.754894545054412
98758.601719659884111
98758.451420995217632
98758.308497915932094
98758.174931598317926
98785.142121538112406
98785.904049828503048
98786.68523982806073
98787.485144361009588
98788.303300052793929
98789.139536731890985
98789.994084700199892
98790.867569697380532
98791.76093253835279
98792.675313230167376
98793.611979502282338
98794.572028329261229
98795.556534131537774
98796.566215749408002
98797.601920161134331
98798.663654409101582
98799.751332038707915
98800.860530112680863
98762.38459168067493
98762.218110829824582
98762.060165857998072
98761.904965094523504
98761.747203406499466
98761.583871888724389
98761.414985946903471
98761.243292694562115
98761.073173025419237
98760.909003719963948
98760.753516960539855
98760.606406876642723
98760.464317004443728
98760.322099081880879
98760.175082582019968
98760.021429852306028
98759.863189628900727
98759.705125032603974
98759.552186696368153
98759.4069363950548
98759.268214477458969
98759.13200351013802
98758.993737775585032
98758.851018175875652
98758.704993586638011
98758.55958679401374
98758.41936283193354
98758.287135242251679
98788.130310366192134
98788.919062344313716
98789.726646916737081
98790.552278737479355
98791.395203755542752
98792.254957185636158
98793.131568390715984
98794.025625562528148
98794.938187789928634
98795.870581789073185
98796.824277247666032
98797.800642500718823
98798.801028237096034
98799.82630945717392
98800.877318948783795
98801.953980170103023
98803.055970915753278
98804.179005423226045
98762.243844644675846
98762.076675064177834
98761.913959608617006
98761.751567308267113
98761.58637442321924
98761.417002855378087
98761.244533261982724
98761.072017129801679
98760.903154901636299
98760.740299238619627
98760.583133293883293
98760.428676083378377
98760.273121363992686
98760.114178966367035
98759.952484005916631
98759.79157341249811
98759.635901619069045
98759.488577821277431
98759.349781609344063
98759.216837402622332
98759.08561618992826
98758.953123991333996
98758.819048168617883
98758.685547622939339
98758.556146025483031
98758.433304213103838
98758.316586774744792
98791.83879655043711
98792.667362304535345
98793.513291985815158
98794.375528345786734
98795.253418932828936
98796.146958867422654
98797.056827918189811
98797.984312550877803
98798.931026449470664
98799.898727834777674
98800.888931643552496
98801.903026949992636
98802.941901902333484
98804.006305521994364
98805.096064785713679
98806.210682444827398
98807.34611900553864
98762.462375663220882
98762.273020432359772
98762.091776194210979
98761.918541695544263
98761.750677541160258
98761.584580042836023
98761.417362807769678
98761.248166258374113
98761.0782070178102
98760.909255483406014
98760.742169170101988
98760.576577741274377
98760.411467697907938
98760.246093989771907
98760.081321678604581
98759.919595744926482
98759.763883525534766
98759.616322025365662
98759.477072614128701
98759.344315182475839
98759.215019312337972
98759.086689710646169
98758.958770337863825
98758.832990456430707
98758.712252950484981
98758.598671218162053
98758.491909178323112
98795.494904530642089
98796.35729792980419
98797.235552577592898
98798.128999878608738
98799.037521886028117
98799.961674685837352
98800.902645540176309
98801.862061519685085
98802.841803247589269
98803.843585561218788
98804.868920797365718
98805.918659960821969
98806.993303375886171
98808.092409281423897
98809.215178462385666
98810.357718759580166
98762.527146897642524
98762.327719029170112
98762.135446110987687
98761.953515773639083
98761.781371425575344
98761.615767403345671
98761.452763235982275
98761.289344888849882
98761.124285806596163
98760.957494998292532
98760.78901591587055
98760.619030162648414
98760.448281212709844
98760.278525795729365
98760.112558905340848
98759.953483925040928
98759.803243526184815
98759.661652047172538
98759.526613417285262
98759.395372006067191
98759.265928722612443
98759.13804437177896
98759.013356350420509
98758.894379757504794
98758.783209063505637
98758.680231651669601
98758.583483138689189
98758.489024535374483
98798.702665410673944
98799.592691992744221
98800.497656504405313
98801.417373854827019
98802.352277480778866
98803.303452858381206
98804.272430043798522
98805.26097324177681
98806.270690992794698
98807.302953033824451
98808.35853731710813
98809.437852125687641
98810.540406940621324
98811.66532455565175
98812.809070303250337
98762.381856229651021
98762.184739626260125
98761.998958204640076
98761.824838525484665
98761.659597471487359
98761.499074358784128
98761.339343200801522
98761.177823938836809
98761.013205869894591
98760.845121141945128
98760.674301584804198
98760.502856173116015
98760.334046480827965
98760.171406170542468
98760.017364394414471
98759.87221403606236
98759.734263866426772
98759.600822797743604
98759.469591571963974
98759.340089972582064
98759.213663195332629
98759.092661263610353
98758.979301550265518
98758.874432662749314
98758.777037236839533
98758.684397854231065
98758.592981093024719
98801.460788131109439
98802.374727018468548
98803.302941763802664
98804.245871094652102
98805.204517010861309
98806.180251229103305
98807.174686703801854
98808.189304253857699
98809.225372628105106
98810.283595092754695
98811.364231677231146
98812.466765879144077
98813.590347708930494
98814.73170478004613
98762.258239336704719
98762.072208462879644
98761.899247724999441
98761.736609266779851
98761.57952985027805
98761.423234961432172
98761.264286957826698
98761.101035585365025
98760.933536185577395
98760.76342000036675
98760.593727442421368
98760.428265712689608
98760.270237335629645
98760.120675233498332
98759.978254370827926
98759.840634794411017
98759.705774134301464
98759.572900804894743
98759.44302098544722
98759.318356513453182
98759.201258141678409
98759.092937117762631
98758.992856969620334
98758.89889849825704
98758.808193793185637
98758.717897060429095
98804.068675292044645
98805.004927321366267
98805.955073920442373
98806.920065048310789
98807.90122406106093
98808.900071797150304
98809.917981393824448
98810.956090490130009
98812.015021023573354
98813.094996865504072
98814.19551403944206
98815.31579554140626
98816.452832668408519
98762.161697557152365
98761.991600448673125
98761.831702809591661
98761.677299140181276
98761.52363397089357
98761.366995749325724
98761.205482544741244
98761.039577028350323
98760.871901583202998
98760.706125178738148
98760.545731204430922
98760.392580694984645
98760.246158945708885
98760.104314236334176
98759.965133461839287
98759.827892267159768
98759.693355226176209
98759.563674406526843
98759.441298012257903
98759.32774363871431
98759.222970051443554
98759.12562374274421
98759.033477310906164
98758.943960021526436
98758.854738387133693
98806.543471208773553
98807.500431681401096
98808.471141756905126
98809.456811753087095
98810.458897355623776
98811.478756946642534
98812.517518964028568
98813.575832411370357
98814.653904758932185
98815.751260160497623
98816.867255663848482
98817.999131981778191
98762.107420074433321
98761.95022867678199
98761.798503407815588
98761.647722751687979
98761.494181927555474
98761.335848689835984
98761.173260115057928
98761.009316379931988
98760.847661082603736
98760.691087729734136
98760.540455220878357
98760.394610920542618
98760.251548169762827
98760.110179769733804
98759.971165837225271
98759.8363215430727
98759.707782260593376
98759.587329665591824
98759.475829003145918
98759.372850593499606
98759.276912855377304
98759.185943215648877
98759.097689607398934
98759.009961303789169
98762.078224913595477
98761.928681562552811
98761.780539879051503
98761.630273701142869
98761.475974200817291
98761.318058814271353
98761.158876382454764
98761.001218695033458
98760.847124911582796
98760.696986909300904
98760.549927692787605
98760.404928776421002
98760.262243468503584
98760.123452509287745
98759.990583696227986
98759.864887415649719
98759.746804416063242
98759.636296317592496
98759.533059647263144
98759.436454551163479
98759.345396665288717
98759.258142118400428
98759.172272427138523
98761.9277494460257
98761.78041678002046
98761.630032670509536
98761.476502272780635
98761.32149980601389
98761.167218657312333
98761.015021399856778
98760.864986203276203
98760.716720209937193
98760.570480031499756
98760.427772645853111
98760.290740066906437
98760.160854716377798
98760.038168811457581
98759.921783507612417
98759.811184053614852
98759.706649714411469
98759.608756811125204
98759.51760392273718
98759.431806039385265
98759.348196092847502
98761.484072101447964
98761.333346530067502
98761.183069643229828
98761.033371019773767
98760.884519567975076
98760.737942461870261
98760.596112720973906
98760.461329982514144
98760.334553182328818
98760.21478516474599
98760.10011737595778
98759.989562335598748
98759.88392515576561
98759.784975090820808
98759.693837157741655
98759.609335847344482
98759.527751804955187
98761.058625436242437
98760.913530293153599
98760.7735306545801
98760.641326424462022
98760.51757452703896
98760.400498782793875
98760.287521899226704
98760.177492938644718
98760.071618797752308
98759.972448686385178
98759.881491927997558
98759.797657286952017
98759.716976074851118
98761.084097884522635
98760.946168098729686
98760.815749965811847
98760.693831389653496
98760.578894132209825
98760.468489646897069
98760.36116389054223
98760.257787543319864
98760.160655228653923
98760.071165638859384
98759.988088645433891
98759.907322124025086
98772.2728455682809
98772.132911802022136
98771.998906627835822
98771.866496220405679
98771.731052320887102
98771.589106001265463
98771.438845776268863
98771.280650990258437
98771.11738678952679
98770.954072993947193
98770.796684274711879
98770.650013378399308
98770.515376904251752
98770.389755000651348
98770.268438155733747
98770.147194779579877
98770.023161444303696
98769.89535546656407
98769.764911273290636
98769.634257777070161
98772.403531254865811
98772.255043342971476
98772.116509906816646
98771.985949376175995
98771.858244646646199
98771.727714007894974
98771.589861901666154
98771.442522551762522
98771.286197363151587
98771.123941064928658
98770.961216067924397
98770.804513178882189
98770.658858478083857
98770.525280369227403
98770.400695858552353
98770.280015152631677
98770.158834201094578
98770.034592492535012
98769.90665448877553
98769.776263703010045
98769.645766008936334
98769.517462132323999
98772.715877756971167
98772.547671401101979
98772.388002769293962
98772.238668039339245
98772.101137905032374
98771.973552771101822
98771.85034102058853
98771.724508356259321
98771.590644188690931
98771.446169955845107
98771.291592964509618
98771.130320232114173
98770.968216249442776
98770.812171148005291
98770.66746963877813
98770.535071457736194
98770.411423206445761
98770.291156642735587
98770.169927059221664
98770.045629038169864
98769.917951653624186
98769.788046175512136
98769.657881441075006
98769.529274498985615
98769.403850321163191
98769.283690161100822
98772.883460105978884
98772.705238203081535
98772.534660076591535
98772.372740243386943
98772.222384162887465
98772.085696602793178
98771.960882987041259
98771.841589117510011
98771.719981551257661
98771.589675554103451
98771.447558061758173
98771.294373368495144
98771.133912789780879
98770.972259499088977
98770.816711064209812
98770.672857191166258
98770.541537213910487
98770.418647032987792
98770.298460609774338
98770.176773546103504
98770.051853535391274
98769.9239827709971
98769.794466684863437
98769.664794928699848
98769.536125787868514
98769.409784457733622
98769.288060416132794
98769.173623214723193
98773.061777108421666
98772.87379919255909
98772.694966793991625
98772.523429109700373
98772.360283667585463
98772.209214923073887
98772.072982944155228
98771.950083054209244
98771.833979694943991
98771.716217822438921
98771.589530475699576
98771.450118039196241
98771.298527265244047
98771.138732639767113
98770.977247382325004
98770.821869140665513
98770.678385074410471
98770.54744632182701
98770.424778038286604
98770.304592597385636
98770.182704631733941
98770.057804059950286
98769.930332317322609
98769.801555751881097
98769.672514336765744
98769.543835933785886
98769.416752333418117
98769.2937245197827
98769.177945828560041
98769.071936687876587
98773.254835497456952
98773.05568012171716
98772.867359090203536
98772.687221651882282
98772.513962171433377
98772.349104463137337
98772.196844257239718
98772.061009868470137
98771.940183741578949
98771.827256875039893
98771.712723924982129
98771.588434251083527
98771.450406925461721
98771.299336055191816
98771.139565976220183
98770.978004508753656
98770.822777201072313
98770.679978296233458
98770.550245614125743
98770.428609102935297
98770.308723502588691
98770.186550532162073
98770.061135529307649
98769.933383879892062
98769.804708866053261
98769.675943134658155
98769.547238201485015
98769.41943866937072
98769.295259421603987
98769.178383066260722
98769.071900922746863
98768.977157833462115
98773.253282345001935
98773.054135312704602
98772.865366924655973
98772.684420189092634
98772.510144842788577
98772.344254575378727
98772.19153612543596
98772.056264797618496
98771.937141909991624
98771.826589786360273
98771.714482511801179
98771.592259319440927
98771.455520802192041
98771.304982560890494
98771.145326557569206
98770.983728373466874
98770.828595856481115
98770.686126993896323
98770.556710222241236
98770.435227125373785
98770.315332081678207
98770.192930483884993
98770.067278009984875
98769.939592952825478
98769.811350217656582
98769.683086705219466
98769.554496334167197
98769.426265883783344
98769.301223007001681
98769.183364441021695
98769.076371673640097
98768.982003124168841
98768.897446657952969
98784.518317820460652
98784.26750834887207
98784.018386519383057
98783.772630830688286
98783.536388894019183
98783.309753674446256
98773.251609659782844
98773.05270204313274
98772.863792843432748
98772.682185887577361
98772.506939551749383
98772.340015625857632
98772.186534193053376
98772.051397705581621
98771.933353101441753
98771.824339408936794
98771.713841187185608
98771.592813026611111
98771.456635501279379
98771.306169322109781
98771.146303980771336
98770.984411250101402
98770.829144176619593
98770.686988575747819
98770.55822982553218
98770.437362836571992
98770.317788387852488
98770.195370267989347
98770.069537366478471
98769.94173359508568
98769.813630277902121
98769.685615139518632
98769.55701105017215
98769.42825821977749
98769.302404232003028
98769.183718040076201
98769.076290595330647
98768.982322832336649
98768.898840903435485
98768.817772814814816
98784.774716508400161
98784.516388394215028
98784.266227364525548
98784.0175854156696
98783.772060079834773
98783.536183178846841
98783.310098257104983
98773.256369663751684
98773.057605005713413
98772.868522017248324
98772.686497639588197
98772.510867015327676
98772.343471828789916
98772.189744099465315
98772.054974554805085
98771.937701840375667
98771.829629372819909
98771.720089288151939
98771.59973195612838
98771.463859002746176
98771.313440197496675
98771.153441833899706
98770.991384514141828
98770.836137726146262
98770.694220984427375
98770.565699280996341
98770.444974183585146
98770.325456282414962
98770.202937475289218
98770.076938588885241
98769.949069285212317
98769.821127115050331
98769.693358295888174
98769.564798854582477
98769.435863469960168
98769.309703042643378
98769.190635785722407
98769.083013453157037
98768.989392657764256
98768.906514627597062
98768.826090291127912
98768.738446275543538
98766.813918430168997
98767.450452484175912
98768.123026492830832
98768.833627847940079
98769.583916456074803
98770.37506549457612
98771.207687201182125
98772.082220997632248
98772.997326505777892
98773.951540292720892
98774.934520929935388
98763.711130433148355
98763.590606329584261
98763.464715777736274
98763.33201383339474
98763.192436963014188
98763.04656552313827
98762.895621999748982
98762.741509182320442
98762.587228121919907
98762.436199625662994
98762.291694646090036
98762.154733482690062
98762.024552328904974
98761.899320997035829
98761.776840842183447
98761.655492376390612
98761.534295235891477
98761.412067679571919
98761.287016151632997
98761.157287758760503
98761.021815301341121
98760.88154078568914
98760.740034247268341
98760.602217395455227
98760.472302311143721
98760.352311069087591
98760.241259759059176
98760.135174527938943
98760.028384878605721
98759.915424681792501
98759.792823453026358
98759.660332968895091
98759.520800678088563
98759.378826683328953
98759.23897336095979
98759.104337664422928
98765.071633134357398
98765.512302980801906
98765.973872186426888
98766.456121801602421
98766.959060843233601
98767.483074841962662
98768.029064588277834
98768.59847340270062
98769.193216549960198
98769.815502762416145
98770.467702490030206
98771.152173526294064
98771.871217390842503
98772.626792902490706
98773.420498339968617
98774.253542916718288
98775.126530661495053
98776.039905565368827
98776.992338104464579
98777.982247802137863
98778.999946586292936
98763.793075913665234
98763.670914898131741
98763.541409511119127
98763.402430355607066
98763.253798423567787
98763.097075258308905
98762.935091425155406
98762.771543916023802
98762.61025893772603
98762.454658213770017
98762.306656700369786
98762.166284110440756
98762.032243136956822
98761.902406406865339
98761.7743786140054
98761.646343802261981
98761.517566015056218
98761.387439172976883
98761.255125202835188
98761.119719352020184
98760.980564923898783
98760.837982078184723
98760.694247347651981
98760.553180116097792
98760.418331784720067
98760.29170414066175
98760.173259835486533
98760.060450223376392
98759.948839587770635
98759.833817803752027
98759.712134836416226
98759.582885093797813
98759.447793840023223
98759.310266534026596
98759.173880908027058
98759.041113368584774
98768.212598616577452
98768.701518301313627
98769.211501294470509
98769.742509718169458
98770.294593420432648
98770.868034675426316
98771.463472624614951
98772.081995068772812
98772.725141511196853
98773.39481131672801
98774.093134075461421
98774.822267073948751
98775.584293207255541
98776.381121811122284
98777.214400693468633
98778.08544962083397
98778.994898620134336
98779.943147755751852
98780.928794067207491
98781.950016628790763
98782.997637991153169
98763.744218541207374
98763.609729716088623
98763.464049422662356
98763.306294320485904
98763.138854270684533
98762.966398277756525
98762.794563012328581
98762.627841272813384
98762.468763473734725
98762.317881478593335
98762.174153932195622
98762.035746734531131
98761.900435074232519
98761.765976867623976
98761.630642863907269
98761.493764690661919
98761.355435306075378
98761.216048623115057
98761.075901761068963
98760.934566236668616
98760.791438647560426
98760.647104644609499
98760.503716895414982
98760.364042400702601
98760.230134109195205
98760.102672193941544
98759.980523134450777
98759.861212763687945
98759.741838612113497
98759.620130795519799
98759.49506561398448
98759.367017054595635
98759.237363104315591
98759.107562788936775
98771.880959981281194
98772.434474661844433
98773.009408456389792
98773.606068959488766
98774.224799094925402
98774.866078927938361
98775.530613313210779
98776.219426576484693
98776.933896813221509
98777.67572036664933
98778.446777448494686
98779.249001059812144
98780.084193089292967
98780.953919017600128
98781.859509925459861
98782.801605705506518
98783.780579581391066
98784.794980939492234
98785.842715238410165
98786.915051239513559
98763.792254406522261
98763.650818552836427
98763.497912672188249
98763.331470794684719
98763.154366113376454
98762.973129696998512
98762.794861765141832
98762.624193796218606
98762.462545884482097
98762.308907653292408
98762.161438543567783
98762.01844312758476
98761.878015816386323
98761.737983110331697
98761.596623505130992
98761.453299976710696
98761.308619108400308
98761.163917177196709
98761.020340050468803
98760.877794306943542
98760.734989877732005
98760.590999688269221
98760.446419076863094
98760.30287705110095
98760.161964507904486
98760.024839680409059
98759.891926165902987
98759.76277473627124
98759.636593251940212
98759.51280736476474
98759.391018232388888
98759.270644566029659
98759.150728577762493
98759.029870616475819
98775.035365446616197
98775.628025892990991
98776.242419157235418
98776.879151903602178
98777.538715123126167
98778.221531841962133
98778.928088087530341
98779.659041318431264
98780.415276303698192
98781.197951341295266
98782.008486210179399
98782.848520316329086
98783.719755553800496
98784.623658428856288
98785.561379368780763
98786.533263962090132
98787.539351103914669
98788.578023050547927
98789.647032899229089
98790.738283024373231
98763.6749443399749
98763.513588515095762
98763.339261593151605
98763.155059494834859
98762.96807994673145
98762.785789555055089
98762.612598375897505
98762.448799291567411
98762.292469443753362
98762.141396570426878
98761.993709708549432
98761.847619446853059
98761.701326703929226
98761.553598376500304
98761.404468987951986
98761.255389766083681
98761.108292415970936
98760.964250029093819
98760.822488964477088
98760.680818491513492
98760.5373620417231
98760.39180880234926
98760.245192512098583
98760.098711630780599
98759.953364372369833
98759.810107905403129
98759.670230350733618
98759.535557387382141
98759.407739404588938
98759.28715925393044
98759.172426343153347
98759.060496814767248
98778.781080444372492
98779.431293145666132
98780.104388490566635
98780.801025611144723
98781.52161867301038
98782.26642553669808
98783.035735400117119
98783.829991696300567
98784.649924787765485
98785.496584359818371
98786.371239014566527
98787.275272815459175
98788.20988946716534