/*--------------------------------*- C++ -*----------------------------------*\
  =========                 |
  \\      /  F ield         | OpenFOAM: The Open Source CFD Toolbox
   \\    /   O peration     | Website:  https://openfoam.org
    \\  /    A nd           | Version:  12
     \\/     M anipulation  |
\*---------------------------------------------------------------------------*/
FoamFile
{
    format      ascii;
    class       volScalarField;
    location    "0.0067";
    object      rho;
}
// * * * * * * * * * * * * * * * * * * * * * * * * * * * * * * * * * * * * * //

dimensions      [1 -3 0 0 0 0 0];

internalField   nonuniform List<scalar> 
106891
(
1.1554747077569496039
1.1554655180704302975
1.1554536482206341219
1.155451538561480973
1.1554683309689244286
1.1555154297133505281
1.1556004837633535587
1.1557195903273085325
1.1558742893718421119
1.1560420029790128282
1.1562104229600764782
1.1545682348117030092
1.1545487233102196267
1.1546241046287473164
1.154809768977833162
1.1550679680463984411
1.1553217794073078473
1.155489944302427574
1.1555239482184367361
1.1554278503107162646
1.1552468001819935495
1.1550387107082535909
1.1548461416148856351
1.1546926327353055353
1.1545926197991469575
1.1545580946245408427
1.1546000810860752583
1.1547149472985314134
1.1548687467786635796
1.1550045892979396989
1.1550660625643729418
1.1550386250685114042
1.154955839024207398
1.1548758724163854517
1.1548371416475105011
1.154829409975591803
1.1548001184943781361
1.1546945353162736403
1.1544975393257981278
1.1542542332862761878
1.1540534979466698928
1.1539865824722737031
1.1540989471268814359
1.1543645195679630433
1.1546960355693525191
1.1549904564026787224
1.1551766484828653869
1.1552406224297366855
1.1552193397387644502
1.1549756299021787243
1.1550226635517129026
1.1550867370087056774
1.1551649661771918876
1.1552511546115384888
1.1553370932185365039
1.1554142419929585017
1.1554751269663259272
1.1555149110109668165
1.1555332972803609159
1.1555346232358951752
1.1555263867956417911
1.155520957061736409
1.1555285965426214112
1.1555610086566856509
1.15562808636779768
1.155729347508712701
1.1558700128107703975
1.1560307473144744161
1.1561976270451246318
1.1547077929754521186
1.1548214403386636295
1.1550375317729217883
1.1553082726853260986
1.1555527069049562616
1.1556928097625611684
1.155687917806925924
1.1555490635758878248
1.1553219265101652979
1.155065220177617924
1.1548281951226253561
1.154642359565210219
1.1545310196017128934
1.1545072672651435219
1.1545794056078348966
1.1547296750951314692
1.1549120008255062686
1.1550641344996750437
1.1551363230583622244
1.1551207156225840045
1.1550547374415403024
1.1549935274291855958
1.1549680066504970366
1.1549650128047688202
1.1549341282647740403
1.1548276845739338103
1.1546407262769844415
1.1544231267507232275
1.1542600595928431684
1.1542305632931191273
1.1543665437549044395
1.1546363877972816159
1.1549585448249921615
1.1552388477231239072
1.1554099715000103465
1.1554567179210029071
1.1548640379864254513
1.1549139310240950085
1.1549856688764834622
1.1550767151137752986
1.1551802812168661116
1.1552861655862471935
1.1553836248853275315
1.1554639069167067511
1.1555212573459610059
1.1555548203037386834
1.1555690547450827577
1.1555712080426618904
1.155572775297992294
1.1555836329410329455
1.1556133754476072273
1.1556710642758249996
1.1557562690491123281
1.1558766507137709922
1.1560189252477170996
1.1561709182977524257
1.1549264091290223355
1.1550508481692804974
1.1552405075037794902
1.1554503522206347466
1.1556186579297802464
1.1556953568123298215
1.155660113843570036
1.1555233935956090718
1.1553198094133372287
1.1550892259191742895
1.154868756755162762
1.1546881704536027247
1.1545738385990900188
1.154542406220621098
1.154602100556336719
1.1547324006561394683
1.1548885159360258168
1.1550181687788994012
1.1550902216409200118
1.1551004191035043611
1.1550786281540739164
1.1550627365892767173
1.1550700085263618799
1.1550809791644784941
1.1550570299843150313
1.1549705234876754822
1.1548278874213786516
1.1546772845856119183
1.1545858080676758561
1.1546056361133052448
1.1547503930267812855
1.1549880362845539317
1.1552502805495987737
1.1554602845344486006
1.1555681964496424818
1.1555708471244696689
1.1548024757905830384
1.1548795181682947053
1.1549770732244071247
1.1550885273106206164
1.1552043259257984698
1.1553135814633688216
1.1554070100922460007
1.1554795625981599816
1.1555305236676733927
1.1555640004465490556
1.1555862125283391517
1.1556059903469666494
1.1556314445322422024
1.1556688226239697492
1.1557248720425425947
1.1557973320376151438
1.1558930998555436709
1.1560042811837301091
1.1561226965462529925
1.1552467024208528112
1.1553941777210448016
1.1555146877594535404
1.1555837238522435051
1.1555880799608728715
1.1555282859286506447
1.1554121579191425351
1.1552539480737229471
1.1550699709615219746
1.1548801088399058834
1.1547122617746006235
1.154591202367049263
1.1545450306488080905
1.1545820816549736687
1.154685811433688869
1.1548241410287867215
1.1549561786588571355
1.1550590820361503752
1.1551301326881804332
1.1551762152457865085
1.155210772343191028
1.1552306531327389827
1.1552241963433524941
1.1551822510352534046
1.1551080002614608766
1.1550238224472486603
1.1549649140183460005
1.1549641463550841536
1.1550368862323783237
1.1551740919412878394
1.1553414188520454431
1.1554896529043234832
1.1555809156295566709
1.1556011488579633895
1.1546389932704901327
1.1546905746849911445
1.1547659805015992873
1.1548615400009956122
1.1549707032455704958
1.155085337671041934
1.155197207190687525
1.1552990425569271693
1.1553864407927694202
1.1554579369919193432
1.1555160522558565184
1.1555651967989557516
1.1556106237036030127
1.1556570882529113575
1.155706325572661175
1.1557619046656499862
1.1558195140369404985
1.1558842180519506293
1.1559530404523132852
1.1560220795416806805
1.1553402367215841462
1.1553908747193459838
1.1553767654814153243
1.1553222454778029338
1.1552551108455948459
1.1551974336290045109
1.1551513800411179478
1.1551016266174489733
1.1550322676879536399
1.1549388176185360066
1.1548275727324261997
1.1547294719974943167
1.1546685138899512868
1.1546607717924659564
1.1547088650716310632
1.154795871475200908
1.1549098901542833584
1.1550302327260741908
1.1551434033842460369
1.1552392020108441795
1.155297828971922236
1.1553087079635375733
1.1552770725947285602
1.1552252401524309988
1.1551852199749119698
1.1551862028884076761
1.1552405153752729472
1.1553384959216068673
1.1554523067906843359
1.1555441091594071956
1.1555880633388007084
1.155584549673876138
1.1555466303434243081
1.1546039872855859976
1.1546634937211568417
1.154744990921083847
1.1548433694514592673
1.1549513830116688862
1.1550617109403953364
1.1551683954343516803
1.1552682056566132562
1.1553594868417005337
1.1554428116704766882
1.1555191150299828351
1.1555888878305797807
1.1556530631231127781
1.1557085058011964396
1.1557558394483948838
1.1557893387171234156
1.1558121558155807218
1.1558266111200767856
1.1558333746293234512
1.1553104350143523771
1.155182564126131739
1.1550172411188852628
1.1548850578602425365
1.1548284952303349282
1.1548498886219773496
1.1549158605043656767
1.1549782897406604132
1.1549989738194128552
1.1549668510158264123
1.1548934374949775261
1.1548075260769050665
1.1547399803084288372
1.1547188343381302733
1.1547644533869652061
1.1548765552253121847
1.1550393061266850392
1.1552169567752987867
1.1553626630867783742
1.1554384704132556472
1.1554336711031329976
1.1553725684396582984
1.1553046399142883338
1.1552845686276946857
1.1553414224071620886
1.1554604224596654038
1.1555893984863527812
1.1556659693705477743
1.1556530116898682259
1.1555605498307321977
1.1554333343264862055
1.1553213694578088333
1.1545810254563817487
1.1546120902818615139
1.1546675336632306053
1.1547466420273013732
1.1548452189856426298
1.1549564952608235568
1.1550727016325645913
1.1551880001891836613
1.1552976672034820371
1.1553992920151845425
1.1554909202731242779
1.1555696112671909326
1.1556340626302621377
1.1556781527929969045
1.1557014267664209584
1.1556986655182730495
1.1556716643943238942
1.1556269624394375217
1.1555676762599356167
1.1548001715425757485
1.1545861213555894675
1.154434033879049526
1.1544019742990792032
1.1544944002349299961
1.1546703872994827922
1.1548647796586288816
1.1550168827605786781
1.155089963626298788
1.1550708037848473886
1.1549832231270349414
1.1548716133240681803
1.1547960423826251208
1.1548031035330736938
1.1549105937418784329
1.15509237016966404
1.1552862323891557317
1.1554259429780404655
1.1554683818334154921
1.1554160052267847814
1.155317625794052061
1.1552444533019021744
1.1552520264616585877
1.1553490117276146165
1.1554891104873372676
1.155595970935058947
1.1556048842262374166
1.155501081723004031
1.1553249352617214196
1.1551487237870377012
1.1546556439149608941
1.1546838621483037635
1.1547433591153581922
1.1548331849982651498
1.1549471630985639337
1.1550750219646512829
1.1552060281662936969
1.1553295719373455341
1.1554383084614707755
1.1555272164180476757
1.1555912316920367022
1.1556294671846059074
1.1556365322031414422
1.1556143921269841357
1.155561832635572328
1.155481719973365129
1.1553850140639927435
1.1552749704315476986
1.154237661574763596
1.1541035972548836508
1.1540803282295926113
1.154183946228080293
1.1543872503696026577
1.1546352704191165106
1.1548639839144005936
1.1550200381679049944
1.1550751829593608466
1.1550381837201475488
1.1549598761676047598
1.1549065944304486298
1.1549352420418972365
1.1550621319321472402
1.1552441573652922902
1.1554060091216062922
1.1554753627873317612
1.1554252351786455932
1.1552880711574460282
1.1551367995333126082
1.1550469214583680699
1.1550578111822551453
1.1551519228155564534
1.1552589140464639694
1.1553017355167032321
1.1552466801024967591
1.1551107461724423597
1.1549531785334037348
1.1548003636320567367
1.1548090533714998607
1.1548560582583844436
1.1549421563020174641
1.1550605666731006416
1.1551978463937326858
1.1553379653580420072
1.1554642078045624931
1.1555640036088978828
1.1556298023495465976
1.1556569178108444529
1.1556480977653837972
1.1556019805318660243
1.1555248618703273245
1.1554202420611194846
1.1552925165412371022
1.1551572685311761735
1.1550187356653396353
1.1539255670484478422
1.1539141927622802442
1.1539946856503204842
1.1541650014442914607
1.1543927353618987919
1.154624856774863817
1.1548071458024078417
1.1549079887418245427
1.1549306687853062581
1.1549132032294227024
1.1549143319602790392
1.1549783046508803608
1.1551009564458585288
1.1552350005106615249
1.1553181474125919781
1.1553067300951216367
1.1552020518892582857
1.1550517828180295599
1.1549227638842984867
1.1548662692830196086
1.154887593672068169
1.154941628789222241
1.1549674854650149314
1.1549235439054166275
1.1548103284570523375
1.1546782614892745489
1.1545933498925418093
1.155028577510077481
1.1550661530530583754
1.1551462705197301783
1.1552615531533860782
1.155396203492488949
1.1555305655977570201
1.1556438610780910281
1.1557200739038224757
1.1557499939013970991
1.1557296664777787498
1.1556661236844241181
1.1555639384855760365
1.155435645691489821
1.1552908895968543312
1.1551355912760572497
1.1549867752328377701
1.1548469260877944897
1.1539111781030542137
1.1538830309300012189
1.1538167072629685883
1.1537797649581653658
1.1538225076367905064
1.1539543016066373671
1.1541445570726862613
1.1543448165007550443
1.154516257370590715
1.1546499563820260548
1.154762918766708335
1.1548721114997355652
1.1549771969542286243
1.1550594619363792059
1.1550942009317790582
1.1550600146524094836
1.1549611741200995763
1.1548332055413261799
1.1547243636964246161
1.154671160753216741
1.1546749062466641345
1.1546997746176455024
1.1546970607181574753
1.1546314504843031568
1.1545032641978096866
1.1543550545156882059
1.1542531119655132787
1.1553500492722417192
1.155417059352976672
1.1555153024148552277
1.1556292466164819199
1.1557389156816162412
1.1558228926963829419
1.155864462945064508
1.1558546126289994671
1.1557906589580873025
1.1556822969570117454
1.1555380995923845155
1.1553748359542024282
1.155207103667312607
1.1550423776019647093
1.1548979760680315731
1.1547741991040831877
1.153827005856989496
1.1538539737959714326
1.153780366603856411
1.1536814599100668755
1.1536303485530754465
1.1536640246927900577
1.1537770947588050774
1.1539388760108240106
1.1541186225738162552
1.154301359971595442
1.1544796384375137777
1.1546390577694845003
1.1547567806632110798
1.1548102575553516047
1.1547887273194279434
1.1547053801254545391
1.1545996879154225567
1.15452002040205981
1.1544959949479030037
1.1545230378713695618
1.1545667580961669341
1.1545830101857277317
1.1545396736813322569
1.1544321349070463256
1.1542894140408204162
1.1541641659675894171
1.1541096452122394656
1.1541555971502732714
1.1556506427436237239
1.1557345285224951414
1.1558292611703637753
1.1559161374239455
1.1559750468716603056
1.1559902936498391846
1.155954061712892722
1.1558650991195797975
1.1557346013136813312
1.1555733436349235888
1.1553994039654178483
1.155228952164505829
1.1550692802373287993
1.1549362760084973534
1.1548282681796275817
1.1538289935402377129
1.1537200531861246944
1.1535572287727395846
1.1534266379250488477
1.153382841524321023
1.1534390529388254265
1.1535775471413545201
1.1537702652653600843
1.1539907494975933933
1.1542109671799862802
1.1543972018247197209
1.1545176394139893272
1.1545532767478547953
1.1545125880600444201
1.1544344009275504526
1.1543696646176402343
1.1543533778886754249
1.1543894682093973625
1.1544504799006445328
1.1544915114501987929
1.1544770509369970402
1.1543979755361128969
1.1542761452104073339
1.1541515001816216035
1.1540661391684208237
1.1540510850627934136
1.1541153428198782649
1.1558598804852211472
1.1559459144734371971
1.1560228899825839566
1.1560714770052262779
1.1560767502798776629
1.1560317604455780938
1.1559362720209287456
1.1558022313697606798
1.1556416320579971924
1.1554725895411019909
1.155311317402253346
1.155164208366695755
1.1550447889001809187
1.1549497056927833238
1.1535752680310904505
1.1533869772199747405
1.1532273867145728108
1.1531576849294293829
1.1531995076774805842
1.1533397719981235419
1.1535461642851498887
1.153778893104938863
1.1539946524319901755
1.1541537560583510214
1.1542316082166903524
1.1542308135531200719
1.1541845403220034605
1.1541445688087099697
1.1541506158660388426
1.1542106811900587626
1.1543018833192066896
1.1543815335748843776
1.1544119324885733224
1.1543772929401232563
1.1542896833732050332
1.1541836301386330099
1.1540979433457059233
1.154060516660563751
1.15408169086723289
1.1541549348331774372
1.1559916933534006844
1.1560697848949130773
1.1561215462238942919
1.156132185498796483
1.156094870829813992
1.1560094977210255696
1.1558875290481311904
1.1557412132987501252
1.1555879508971054204
1.1554434827235711136
1.1553135285034688007
1.1552091919929612374
1.1551259201856729497
1.153208757117129446
1.1530246601436078269
1.1529332383489081515
1.1529627321006565843
1.1531041667101697978
1.1533225448941761826
1.1535675152544337951
1.1537836926647131452
1.1539299644351939111
1.1539929928119052605
1.1539933911221398333
1.1539771836363454938
1.1539904268170164681
1.1540539134389069531
1.1541523776475766105
1.1542488230510796754
1.1543043747073165051
1.1543003304804106968
1.1542447137086910836
1.1541636451060910407
1.1540899999971818701
1.154051261344733792
1.154060957095765394
1.1541169896230916159
1.1542068509867005055
1.1560573152296909072
1.1561228836542585263
1.1561512620250522509
1.1561350177364078107
1.1560732568305995827
1.1559757799543477486
1.1558539759827970439
1.1557238167758916436
1.155600272820282326
1.1554889498252720603
1.1553993828691004886
1.155327144044757004
1.1528937395772951291
1.1528029596464721696
1.1528257651369409054
1.1529591208801726054
1.1531702035806798978
1.1534043269708056378
1.153604647236177172
1.1537349891042716354
1.1537924515599531361
1.1538069448154046892
1.1538268456168443432
1.1538861712961336892
1.1539860916474726782
1.1540985158312881964
1.1541859275067993806
1.1542259204593019462
1.1542173313151296021
1.1541767262251967363
1.1541274781959467433
1.1540899429771738216
1.1540800537336635134
1.1541066654087848153
1.1541699175289072965
1.154264195141082805
1.1527010309645129293
1.1527138405288617218
1.1528310788349145355
1.153026984342565342
1.153250123053437326
1.1534471808028119444
1.153585325479056678
1.1536644194838772126
1.1537154761778811718
1.1537770203404689173
1.1538661751697614211
1.1539704838482254257
1.1540635158445149422
1.1541244924063103205
1.1541499192709154809
1.154152394390467018
1.154146506539929895
1.1541387793166419939
1.1541295846065009467
1.1541231102512659046
1.1541340628264924462
1.1541806604473674458
1.1542740431519522559
1.1527855950004091135
1.1529447380331248052
1.1531345000251347344
1.15331253916939791
1.1534514625495253526
1.1535531604845954412
1.1536415777955963957
1.153738409176733537
1.1538435059761515955
1.1539386537296298929
1.1540060852666313984
1.1540440290923683619
1.1540707448624658582
1.1541064927139867979
1.1541544694286660633
1.1541979072586583399
1.1542146562274926413
1.1542012283322684585
1.154183068002468282
1.1542022871730126532
1.1542893882212739154
1.1533952685248691772
1.1535353181685621404
1.1536667758487535451
1.1537916179041456388
1.1538963412256160179
1.1539612368965359579
1.153981289843588609
1.1539767316436777556
1.1539851799063187698
1.1540359735582377265
1.1541230306132510552
1.1542088525230487228
1.1542526129824237646
1.1542428735101961657
1.1542144446444817518
1.154226154421023276
1.1543211994274116261
1.1538871211197740951
1.1539467124102986695
1.1539531609615734098
1.1539361827478158418
1.1539440729843126743
1.1540094181046445243
1.1541220240782394946
1.154232339847608646
1.1542884165734246249
1.1542777855828776357
1.1542406175193531404
1.1542460952543494024
1.1543441336138648978
1.1539247959099552254
1.1539515246912586122
1.1539481324797018491
1.153963677256418352
1.154033581831276134
1.1541495900158269539
1.1542626916794433978
1.1543201509147926753
1.154310092547514266
1.1542740449735966468
1.1542815635729930523
1.1543827967184698835
1.1440174165107190873
1.1446411577150994443
1.1451493089622448718
1.1454397490514820479
1.1454476546356311406
1.1451671687539712874
1.1446536255881900601
1.1439883489524833582
1.1432336640815945472
1.1424273082715348249
1.1416052984208939769
1.1408349821003980207
1.1402163282640005448
1.1398551597433868032
1.1398355694169453045
1.140206116663776692
1.1409629257242164257
1.1420298661571262056
1.1432524437898174963
1.1444110734149051112
1.1428719670174767309
1.1433820531573941626
1.1439814034892668015
1.14458292010613083
1.1450740173806117639
1.1453276484775372079
1.1452767969164068251
1.1449251574611454263
1.1443381983441889282
1.1435940434659448428
1.1427595380714825613
1.1418947733403799205
1.141072836261708856
1.1403805769809403081
1.1398979578578289917
1.1396874623313086872
1.1397981278913744685
1.1402626823594905758
1.1410783047415651303
1.1421753171320039311
1.1434012821255825632
1.1445349509234483687
1.1422142298187116793
1.1422296652221073376
1.1424292350875879798
1.1427983779473389614
1.143312789187980405
1.1439217082651202961
1.1445213447495030668
1.1449787805769651161
1.1451686248573909044
1.1450362580712225569
1.1446032706887367958
1.143933311692455268
1.1431046127624813202
1.1422060532169757696
1.1413376145364098058
1.1405983729917983371
1.1400596627850991815
1.1397619316234646192
1.1397324984002361603
1.1400031473216170053
1.1406010356807232409
1.1415129909645160833
1.1426496313791871806
1.1438382062194794031
1.1448487866269472235
1.1454618301031194161
1.1424269122598982307
1.1423500685582934633
1.1424304259288220464
1.1426305546970689786
1.142909873342057514
1.1432446780169300826
1.1436116864772447599
1.1439703942524039881
1.144231023318286633
1.1443041470811030624
1.144144431326276079
1.1437565109198595259
1.1431770906110578778
1.1424565891121489791
1.141669705229511278
1.1409187202158987962
1.1403160349205252455
1.1399446897964879977
1.1398406726295593483
1.1400031918067294878
1.1404202260299867167
1.1410734487726279518
1.1419178584551701316
1.1428561994764279142
1.1437390903641626583
1.1443916262939586304
1.1446679577023581853
1.1445079534674515997
1.142819492897547029
1.1429568478857701219
1.1431788068985184736
1.1433932458934426002
1.1434727659819838852
1.1433445266639541416
1.1430300337714827119
1.1426296585299058339
1.1422501804484335164
1.1419480512397570671
1.141722505371185914
1.1415325781491050261
1.1413395308453273547
1.1411147589724901508
1.1408518071838085195
1.1405969223742480345
1.1404479861599314816
1.1405107617440202183
1.1408289561778006682
1.1413479492878637611
1.1419352701039695575
1.1424469420181049273
1.1427847332676572822
1.1429155737485159339
1.1428568312773665916
1.1426535345717689918
1.1423606928417295858
1.1420346967083050416
1.1417374268200086718
1.1415374781211664601
1.1430186506847550554
1.1428433639925599241
1.1427622045534993056
1.1427658820801971373
1.1427875088912811119
1.1427307291133217415
1.1425279467524573906
1.1422173832359878709
1.1419080667005958585
1.1417039510141748782
1.1416569400342000407
1.141743829955570888
1.1419095276061563826
1.1420915592415183948
1.1422288711593697741
1.1422733293641766927
1.1422229099422045451
1.1421347572305322604
1.1420927019777820099
1.1421498527522504496
1.1422949599041567481
1.1424683756739493212
1.1426154233273559946
1.1427251124275183969
1.1428225454237088687
1.1429344117413369197
1.1430643092389904947
1.1431898244748754934
1.1432779316716354945
1.1433117305832236621
1.1433131701689536186
1.1433422172035108133
1.1445689164798509285
1.1445028659016334149
1.1444737348596352167
1.1444673653606078911
1.1444331321251888234
1.1442970644461842866
1.1440342988129033053
1.1437142947027039153
1.1434611687708944316
1.1433819937988327631
1.1434961994814467623
1.1437430027166863855
1.1440314976874474961
1.1442771794511144012
1.1444155076740487598
1.1444113854858335433
1.1442833557334268768
1.1441130814486268896
1.1440052180060480413
1.144024744170406338
1.1441612976597497209
1.1443475291500944113
1.14451918353705695
1.1446616175176451691
1.1447998721812129297
1.1449603623896547067
1.1451411304366210242
1.1453107225538674552
1.1454272166861492188
1.1454662249210405545
1.1454479768463146083
1.1454395316169094787
1.1455268965532505732
1.1432574411500855405
1.1433052911783070371
1.1434248988814246228
1.1434844479243375659
1.1434968355645254157
1.14361223721262939
1.1462602489229143377
1.1461606107999342541
1.1460852842871160906
1.1460243653133097563
1.1459272978516978903
1.145724656970822819
1.1453940389774064368
1.1450019357193974567
1.1446851430691376006
1.1445516061221421289
1.1446185375043618215
1.1448222618188605981
1.1450677913107318862
1.1452671963055793825
1.1453542501408735532
1.1452951405296711851
1.1451113867470568142
1.144888917790454208
1.144735508553289538
1.1447165315670522201
1.1448171908462714264
1.1449637342161431697
1.1450881045149092774
1.1451774674123487152
1.145262529013883146
1.1453736789200970048
1.1455079672536143676
1.1456286697202449076
1.1456891874827492828
1.1456629821205563946
1.1455707158827010961
1.1454865635767557119
1.1455041028022112659
1.1456900249220536292
1.1457317784034686259
1.1456249242799234622
1.1456728510083404871
1.1458038054405796924
1.1458776261146057518
1.1458996900737572489
1.1460216032234042949
1.14725042156737711
1.1471090279725857375
1.1469965167298374897
1.1468963925408921511
1.1467621838624932895
1.1465238347964064047
1.1461481726266475878
1.1457083218777690536
1.1453487870070002685
1.1451793352482892985
1.1452192056439600698
1.1454014957132421237
1.1456279700071791972
1.1458066531864621318
1.1458689582423486897
1.1457825315938383604
1.1455708203992602812
1.1453223094386029146
1.1451465502948541264
1.1451090750991763656
1.1451928490157765594
1.1453209537560116171
1.1454236681202030201
1.145489504884405374
1.1455528734009134961
1.1456466657573951551
1.145767616741344419
1.145876336289413322
1.1459232433897081904
1.1458816604517634286
1.1457687328798584758
1.1456633425933830939
1.1456648073530366627
1.1458397998333365031
1.1461888386316250177
1.1556874126218519283
1.1556650474742145018
1.1556113353547416978
1.155535791937172263
1.1554469251544161601
1.1553556833575742147
1.1552741291314247984
1.1552075238803891644
1.1551709166842010212
1.1551645405705306402
1.1551980350409498666
1.1537413568672323372
1.1539603479068862857
1.1542096533099854838
1.1544489014994285814
1.1546554593973878955
1.1548228942944649411
1.1549452504655954854
1.1550065672607108258
1.1549919846842005011
1.1548986867873274331
1.1547489633034082601
1.1545826658798921116
1.154430326018408115
1.1543077158824219808
1.1542113053125804267
1.1541337630375532175
1.154080583562349771
1.154069763253985581
1.1541196639527930845
1.1542263743423590849
1.1543535003019462781
1.1544471937801410455
1.1544623323953608907
1.1543885963238180725
1.1542553460886264549
1.154119231694737735
1.1540476594800597177
1.1540907777007514134
1.1542636833607395896
1.15454160474912082
1.1548618629105007471
1.1551456222772003013
1.1553301296304534507
1.1553908787651177015
1.155345825772234436
1.155242101622292239
1.1546670759762043268
1.1547178100623121111
1.1548086645209625356
1.1549337032021094185
1.1550815420669440226
1.1552375477440923746
1.1553859629419367394
1.1555124969298324888
1.1556069016419994178
1.1556635501974161784
1.1556814165798203753
1.1556635203214182805
1.1556140860403119053
1.155540435900314522
1.1554491935610895492
1.1553491944754930021
1.1552522279210879486
1.1551638870895202249
1.1551016304202281759
1.1550708237255262745
1.155082145618236078
1.1536414018905349899
1.1539205332659709935
1.1542454877866969998
1.154569286756424118
1.154853662516004853
1.155066129499696892
1.1551926667091509948
1.1552225351294933553
1.1551677579911536764
1.1550419021531244113
1.1548828633950014577
1.1547212480220683251
1.1545809374274733639
1.1544737518219381212
1.1543961022247164472
1.1543377473995346527
1.1542940192058486204
1.1542720170759721565
1.1542856546857622746
1.1543400248378063999
1.1544200957175105859
1.1544917924302218193
1.1545161340023120111
1.1544735003896258174
1.1543785793802441297
1.1542708480203844879
1.1542022861240077702
1.1542188830836197511
1.1543402284929442647
1.1545527507670014788
1.1548120669307122554
1.1550564375462855082
1.1552326409574613653
1.1553158410797497169
1.1553143437378889935
1.1552623052786641367
1.1547591847465659143
1.1547974449285125509
1.1548683379703112983
1.1549689121082697962
1.1550911939651089533
1.1552242262163183728
1.155355535272113876
1.1554727060579506048
1.1555647632269636649
1.1556239743909180184
1.1556469323062541488
1.155633779964865715
1.1555867371199428639
1.1555115869727188294
1.1554144248761788472
1.1553038557738368741
1.1551934842813684767
1.1550901959378183648
1.1550130714812942845
1.1549712735388097951
1.1549742924192787363
1.1539105428326668079
1.1542761871322599898
1.1546676817621346345
1.1550215207265035477
1.1552738988421720201
1.1553896877095992668
1.1553795307958423244
1.1552801436783062261
1.1551389038877630799
1.1549905116430945196
1.1548559225981216425
1.1547486769471921875
1.1546755178209642256
1.1546317184631720298
1.1546032640308734329
1.1545738046160687329
1.1545368937806703702
1.1545010227882837039
1.1544845474272509289
1.1544985238187424059
1.1545316053118732658
1.1545567534195693149
1.1545495558401737135
1.1545052478664383777
1.1544431498196638941
1.1543950750708364961
1.1543920580482234239
1.1544537872041018556
1.154579078586977392
1.1547447921335183274
1.1549157681159429867
1.1550601610510460304
1.1551613728396141756
1.1552213555230810282
1.1549379469879013094
1.1549832642077788591
1.155048997845960157
1.1551324109649865335
1.1552272174154505358
1.1553252019530717565
1.1554174902821066073
1.1554951874005372492
1.1555499114564664609
1.1555750085192444399
1.1555666356627258828
1.1555230723538283399
1.1554472883585935605
1.1553452981162803948
1.1552261363319018539
1.1551067617933261644
1.1549977779592406346
1.1549205848909018801
1.1548869921682449746
1.1549017818602429486
1.1539898410414002328
1.1543510056832431143
1.1547695488997704594
1.1551595397072762506
1.1554265719787124578
1.1555236688913466114
1.1554749810117537212
1.1553486021058583244
1.1552088158626516723
1.1550879944554910406
1.1549923084196869194
1.1549232202091457289
1.1548851918254217086
1.1548714730683504737
1.154862870472420644
1.1548365755721619053
1.154779368668000572
1.1546973419534916072
1.1546186074064967997
1.154574778102979149
1.1545776712121416097
1.154609400901874805
1.1546401937365411428
1.1546517175951456213
1.1546454721239867158
1.1546324325729773186
1.1546246386390441874
1.1546315974035670227
1.1546585631227712643
1.154704428557427498
1.1547671881907242142
1.1548457502601503499
1.1549421663990466769
1.1550591407984613923
1.1551237127597848708
1.1551397547333011051
1.1551622066433209213
1.1551947393830408473
1.1552377801716304795
1.155288746791439447
1.1553429264357770734
1.1553936368466535267
1.1554330152739806792
1.1554522389417951622
1.1554442073868143037
1.1554042569477405156
1.1553323931469152708
1.1552342910837503087
1.155119329204159051
1.1550067085402586642
1.1549096325627852266
1.1548506227419839121
1.154843532599449496
1.1548871329115157902
1.1544146979822798027
1.1548321062741735421
1.1552196966761716368
1.1554718186085990439
1.1555457197716958451
1.1554794270108750265
1.1553536246952662569
1.1552377511563245438
1.1551562056176982729
1.1551010541174997481
1.1550650813050558074
1.1550489049206558168
1.1550508982212814857
1.1550515658549813658
1.1550214202520774354
1.1549448387907201852
1.1548352779283710401
1.1547298024544181416
1.1546695237262352141
1.154671849123323879
1.1547222574005151507
1.1547885833108524345
1.1548471935960427093
1.1548909247969654235
1.1549170653517695229
1.1549171169626213374
1.1548800333487647674
1.1548066858908705434
1.1547180033633790419
1.1546488166263706443
1.1546359694931365159
1.1547038064339869567
1.1553294424165596599
1.1553080263898292124
1.1552849685566499716
1.1552673369950072768
1.1552592298781156899
1.1552610966120011593
1.1552692345671247143
1.1552773715320112657
1.1552766324911594165
1.155258594964253982
1.1552173932620075636
1.1551517480250874659
1.1550675710631379545