/*--------------------------------*- C++ -*----------------------------------*\
  =========                 |
  \\      /  F ield         | OpenFOAM: The Open Source CFD Toolbox
   \\    /   O peration     | Website:  https://openfoam.org
    \\  /    A nd           | Version:  12
     \\/     M anipulation  |
\*---------------------------------------------------------------------------*/
FoamFile
{
    format      ascii;
    class       volScalarField;
    location    "0.0067";
    object      T;
}
// * * * * * * * * * * * * * * * * * * * * * * * * * * * * * * * * * * * * * //

dimensions      [0 0 0 1 0 0 0];

internalField   nonuniform List<scalar> 
106891
(
299.66868663290711083
299.66745591529212334
299.66625982036765663
299.66584544554063996
299.66786196487129246
299.67303238782614017
299.68180648075650652
299.69535714355816935
299.71086911100076122
299.72908664211814767
299.74747554523901272
299.40969310679287219
299.37953116188270997
299.36637198705773244
299.37120241290369904
299.38958604272357888
299.41266910713807192
299.43064431554148541
299.43673372165130786
299.42957697499724645
299.41242416079006716
299.39045888342468515
299.36799262917844544
299.3480165582066661
299.33305341784807752
299.32557471889782619
299.32785329104956418
299.34027670320483594
299.35951322790657514
299.37923872030324901
299.39267520134535516
299.39712548587181118
299.39489571126756573
299.39108297377526924
299.38913176353298695
299.38792358322956488
299.3824482791260948
299.3679131345908786
299.34390386986973454
299.31627338712303299
299.29515809202564469
299.29047839976965406
299.30685278628078549
299.34099716512071154
299.38299049087305548
299.42122509931886043
299.44754897961689721
299.45997443788195369
299.46204969808962915
299.61734312277496883
299.62247224988681182
299.62930076381951494
299.6375211504781646
299.64648796988439017
299.65535275443079399
299.6632594533369911
299.66940805899787392
299.67336131355830275
299.67511442633610841
299.67503756447791829
299.6742195426301123
299.67351042640797232
299.67450424992625813
299.67815100348224178
299.68498083182356595
299.69660238286996901
299.71071585105676149
299.72797710340483945
299.74641382624571406
299.39206991124058277
299.3785863590787244
299.38333414170000424
299.40097984281067056
299.42251946007093011
299.43880754792422749
299.44410993804291365
299.43773718138749018
299.42251472096523912
299.40280297171216262
299.38238364944618297
299.36378944576176764
299.34940720141685233
299.34127980798609769
299.34155541087994834
299.34999920957534414
299.36337320505026582
299.37636097241744437
299.38429696771936506
299.38617619868716702
299.38510645366920926
299.38566953181913277
299.38983834770709791
299.39519661936151351
299.3958760094316176
299.38684783521307509
299.36805273469281019
299.34548269281333432
299.3288893085282325
299.32721141562734601
299.34412743301510318
299.37631396778073167
299.41493196681619793
299.44964769299548379
299.47286252614247815
299.48244232866358061
299.60553453650936717
299.61099448651128796
299.61866523683619334
299.62826927741156169
299.63910223556973733
299.65010845703386622
299.66018580396746529
299.66842611097149529
299.67426195836577563
299.67765916179507713
299.67900030864331029
299.67928928492756313
299.67941050597272579
299.68071108426636329
299.68413536643606676
299.68997098363155374
299.6998363045337328
299.71195103476219401
299.72703788653507218
299.74401352777374541
299.40888007960489858
299.40111726328103714
299.40721329061682354
299.42192344311928309
299.43780576454912534
299.44815323242477234
299.44907821865933784
299.43993358430253693
299.42291134194363167
299.40125432127183558
299.3784531339074988
299.35771719714318806
299.34231362918245622
299.33482259955530935
299.33714716088172736
299.34818026443372219
299.36401959072696854
299.3795141091021037
299.3911403449322961
299.397663073030742
299.40113726507252068
299.4044899862371949
299.4088003266753617
299.41177151346323626
299.40958711884809418
299.39996556369879954
299.38437670919614675
299.36863473761439991
299.36033560638480822
299.36520635127362766
299.38461112732142055
299.41485551393805054
299.44826358534930932
299.47618557573889575
299.49281361856765216
299.49732093096650942
299.59917373252085326
299.60743789676382676
299.61777273832325363
299.62948836086070514
299.64159393873575254
299.65295780624614963
299.66264449166476425
299.6701237134655571
299.67540662268663709
299.67883836101691486
299.68125253014397913
299.68340097906923347
299.68622152953309978
299.69053534863462573
299.69623991166315591
299.70468207768084312
299.71439592452873057
299.72597027545310766
299.73941875659693324
299.42823138963137808
299.42334080189800716
299.42245779069889977
299.42323047051019103
299.42385287709731756
299.42309149059650508
299.4197375422053824
299.41290532131893087
299.40205296890707132
299.38757378623705563
299.37152125793795676
299.3565444630564798
299.34645984127644169
299.34363459617361514
299.34806829418982943
299.35794202530166785
299.36994425103949879
299.38186187395405113
299.39285638683497837
299.40258365279311192
299.41127992350470777
299.41768792154914536
299.42011230305189429
299.41761822842829588
299.41092841937785352
299.40295889755066128
299.39797197230183201
299.39985654344815202
299.41046970934553428
299.4288950660672981
299.45136758272263933
299.4724055363007551
299.48760736276256011
299.49502675823629261
299.58164356005130458
299.58728430710749535
299.59539004730294209
299.60554626777479825
299.61707218057074442
299.62912143530195408
299.64082273593754735
299.65147261052237582
299.66056820720353926
299.66807684878318696
299.67417702431487214
299.67944603945323934
299.6844145892122242
299.68943199766169982
299.695080762886505
299.70079997959669527
299.70756504821656563
299.71423178343241034
299.72111098434589849
299.72930130890796363
299.44681496435225654
299.43562846202843275
299.42207196144750014
299.40940912575376842
299.40086816098300915
299.39818514725465093
299.4000014583276652
299.40239785315827703
299.4012310854652128
299.39401252915797613
299.38034445918646043
299.36365850140936118
299.34788906024726884
299.3370286728973042
299.33397104246012077
299.33915450572033023
299.35250924001064732
299.3716996551883085
299.39388604189059606
299.41581402138939438
299.43308629913298091
299.44273462169917366
299.44429482028363054
299.44000768402736412
299.43389245464715032
299.43017448239061196
299.43151162928171516
299.43819901992242194
299.44836234286663057
299.45867519144906055
299.46658099778960604
299.47178844451804025
299.47493788793491376
299.57811437377790753
299.5845103605024633
299.59318211437545187
299.60360315513014484
299.61501267152391392
299.62661997955967763
299.63787663833727493
299.64835685492005268
299.658032133618633
299.66687058185675596
299.67501525763901782
299.68265549774599776
299.68950277298415585
299.69586283356846934
299.70077027710624407
299.70482776222661414
299.70730672492425128
299.70823889204649504
299.70978903731639775
299.40741553473395697
299.38290328095331461
299.36132510405701623
299.34976662935076774
299.35129196380523808
299.36383796021198123
299.38117468906898466
299.39572112569038609
299.40167281454085924
299.39714431746290302
299.38375922212145497
299.36596482498100613
299.3490655882574174
299.3382455667810973
299.33753385816999071
299.34799725356089084
299.36805188914911469
299.39306411616280457
299.41662898256868175
299.4331309899711755
299.44010284916845421
299.439285601610095
299.43565016018089864
299.4351840972723835
299.44148214335274361
299.45367396841294294
299.46700068112215831
299.4755918101331531
299.47607691864266144
299.46976680444487329
299.46125348446037151
299.45532240122906842
299.57573866931301154
299.57905514552913928
299.58494439995354242
299.59335059430929959
299.60382411632457433
299.61561150560646638
299.62797754091894831
299.64017500968151353
299.6518709112173724
299.66271067889050528
299.67246014526693898
299.6811005763103708
299.68788500715623968
299.69303108344547582
299.69541477141950736
299.69541651853398889
299.6928468917282089
299.68736083094017886
299.68187769390772246
299.35308895273436747
299.32713026581086524
299.31333271215834202
299.31608473393220038
299.33349426905471091
299.35876463110565737
299.382993675869443
299.39864210692337565
299.40178630787130487
299.39203544614366592
299.3736647394728152
299.35348766797631015
299.33980679877578268
299.33888215013996614
299.35299845899356797
299.37882966004474383
299.40846897935483639
299.43320674329123676
299.44684127361080073
299.44840382907278808
299.44243241658341503
299.43644286937609422
299.43678317742546824
299.44516133455539375
299.45763558933560944
299.46711374529735394
299.46761748701658234
299.45816847035439423
299.44319854632573197
299.43004721459089978
299.58373447995751349
299.58670604355364731
299.59305166758571204
299.60265600940863351
299.61480783971882147
299.62849969701710506
299.64241987289636882
299.65562135607126493
299.66722480723495892
299.67661300212159858
299.68368986551217859
299.68756625501532653
299.68873497395469485
299.68631879804109985
299.68080459127577342
299.67279561161632273
299.66167948846106128
299.65074827728312812
299.2913420604180601
299.28049756960285777
299.28536650558879728
299.3054112596113896
299.33514366327625567
299.36633369503636004
299.39054122549447357
299.40160035460860399
299.39729285697319483
299.38046060528768066
299.35911230534145488
299.34300781339862851
299.34037857179055209
299.35416127273612119
299.37978987562752309
299.40815716383991685
299.42967041936009309
299.43917603895386037
299.43791805499216707
299.43193135570328423
299.42828975074371556
299.43109382400257346
299.43919437357106972
299.44642848116433242
299.44618748731534197
299.43640739770165737
299.42005288734526403
299.40400953908778092
299.59924308390077385
299.60014095868393724
299.605183339447251
299.61442378797045194
299.62707227567102564
299.64177933061534986
299.65664781811057082
299.67009511979443914
299.68070322129904071
299.6875435638510794
299.69067927957797792
299.68945893568951533
299.68493114415184664
299.67671077800252988
299.66544846574879557
299.65252562224560506
299.63725045707047911
299.62315469939272816
299.26226810230775754
299.26121011228491398
299.27192228491924197
299.29263687692827034
299.31856105406046709
299.34322673584904351
299.36069615103957631
299.36804890109516464
299.36650631408753043
299.36114821854079082
299.35916250085307411
299.36592998147347089
299.38131594922253953
299.40021478504803554
299.41553446299775487
299.42178317752097882
299.41798092045081603
299.4079964996855665
299.39796529171070461
299.39288911439638241
299.39358074685338806
299.39612491095186897
299.39529261724942444
299.38794255627794882
299.37513533854638581
299.3627677169200183
299.35787602656370154
299.62371913611468699
299.62775998695371982
299.63632971539550454
299.64858027591060363
299.66292104296695697
299.67708125755905257
299.68906111281540916
299.69710200336334083
299.70006694910819078
299.69816879991907399
299.69111696698155356
299.68063014339043093
299.66705356642677316
299.65136588743303037
299.63559561767181094
299.61886075645901428
299.60442392659740563
299.25625696289642974
299.25568907960700926
299.25477753458045527
299.25817650172371032
299.26852632413675792
299.28470997281016253
299.30254668112644367
299.31734704443186956
299.32660892533459673
299.33162189985137047
299.33640576505308672
299.34441106400583976
299.35636025297065999
299.37008174302388852
299.38197218668040023
299.38829481407947242
299.3878509254299729
299.38284709149172613
299.37722852395614836
299.37431487569813271
299.37445225629727474
299.37473946494441179
299.37136154529008536
299.36201021493059216
299.34787571924852045
299.33408986070895708
299.3276863166338444
299.65803223927360932
299.66511355560913898
299.67541658076748945
299.68740142245661673
299.69880549184648544
299.70756767575318236
299.71188801822756886
299.7106264345242721
299.70414204356359278
299.69240798737456544
299.67750725540736312
299.66035642472019163
299.64218165619132606
299.62546599964247207
299.60928349108274915
299.59636726731275758
299.25680212868473973
299.25427052322561394
299.24414300650374798
299.23365435631728815
299.22950463407835286
299.23451774057912189
299.247280645002661
299.26416677484291995
299.28204902959856781
299.29986527184161105
299.3175552069686205
299.33431225881412274
299.34823920310617495
299.35713798336325908
299.35966762135177532
299.35665325350407784
299.35144488382428563
299.34827045209436847
299.34952887462156923
299.35433038210447876
299.3590361296119795
299.35934989375402893
299.35252253498430264
299.33886740268104631
299.32229249403474114
299.30912724015314552
299.30554701789441197
299.31489472250183326
299.68958325823911082
299.69827257613741267
299.70811993084799951
299.71703750068297722
299.72308978528695889
299.72461369140677334
299.72058322584655343
299.71148456605999399
299.69749631530368106
299.68082329278917086
299.66266356828896278
299.64424308236749539
299.62811030924211764
299.61332272449459424
299.60202929226863944
299.23842431976203216
299.22746249100242721
299.21437856113328735
299.20674396496616509
299.20860808998588709
299.2198308860142788
299.23749943441367805
299.25826717740318372
299.27961210036721695
299.29936367846266876
299.31505248520085161
299.32445210899322774
299.326467645133107
299.32246607477418365
299.31648244687630722
299.31337113260326532
299.31607691533832849
299.32431134565678121
299.3347178303616829
299.34238299637991076
299.34359602568895298
299.33753282247374727
299.32667812867634893
299.31548179880417138
299.30871168332015486
299.31002537802942243
299.32069330156548403
299.71120899472452948
299.72012160284378979
299.72800441598400312
299.73297296770226694
299.73346597854748552
299.72854440617186356
299.71875626648608204
299.70444918184091421
299.68783193923735553
299.67024899992105702
299.65286083926406491
299.6380666858012205
299.6249132462273792
299.61501046729642894
299.21818078527041962
299.19841869230771181
299.18309650276592038
299.17771400025060302
299.18386060940201787
299.19983166036666944
299.22225422893188806
299.24724436687307616
299.27067312378028419
299.28875623132233841
299.29912156444703442
299.30197766958912098
299.30043399965825301
299.29932931844155064
299.30222040369631031
299.30957271242289153
299.31904635269347636
299.32666793332350608
299.32923870984268433
299.32581943280013093
299.31810352853347013
299.30977140229367706
299.3046858435529316
299.30547717075694436
299.31298281741504752
299.32634250895699779
299.72462962531881203
299.73270094785863193
299.73805513653337584
299.73915911955589308
299.73508864547454777
299.72634862820507351
299.71335679254406159
299.69820716581824627
299.68231377714039354
299.66676794377229953
299.6537602335391739
299.64238769110534122
299.63377333630893418
299.18342018716487019
299.16714143756155408
299.16056742409290337
299.16582602893055309
299.18147085734756274
299.20374818052999899
299.22772202312017953
299.24827029534179701
299.2619375177226857
299.26811730234305742
299.26944907122668837
299.27076976884842452
299.27643407087356309
299.2878335405694088
299.30254405601755252
299.31612506338763069
299.32436601919823715
299.32556050996845443
299.32101841147368759
299.31393973238294848
299.30808028126148201
299.30646184757171113
299.31054537589699294
299.32012340954173624
299.33387306761517266
299.73116618570952596
299.73804971973640932
299.74108615615165263
299.73929067194274012
299.73301664193724037
299.72264518634665365
299.71002805573937167
299.69656771236998338
299.68329587426904936
299.67219088692411333
299.66253675990822103
299.65511666425777548
299.14609606765418448
299.1378204739667126
299.14173930990972394
299.15698456206581568
299.17983875943565408
299.20464172093807065
299.2258339933854927
299.24020813416757392
299.24800806900242378
299.25264588807681321
299.25905931017103967
299.27026184281584165
299.28555358152220833
299.30118001733956135
299.31268533981494784
299.31766169035586245
299.3163969555042172
299.31133774304464623
299.30569933978006247
299.30220538437816913
299.30283391851850183
299.30856011692884522
299.31927321366504202
299.33416825583520904
299.12849506272863209
299.13145498373660303
299.14465997552076715
299.1653387510924631
299.18835341328332333
299.20862207315752812
299.22330367858398859
299.23287400559371463
299.24079136933727341
299.25092442050629415
299.26454548721346782
299.27963098940136888
299.2927396692491584
299.30130579768052712
299.30499678802522112
299.30558085458255846
299.30527118144800625
299.30541091013390087
299.30645465396077043
299.30892078294817793
299.31414811508005869
299.32369435970701943
299.33836043143622874
299.12868513036352169
299.14861630357353306
299.1727989390887501
299.1963533147909402
299.215934510653085
299.23129585903478755
299.24458074278908271
299.25779001510733224
299.27073783948679875
299.28146546014676233
299.2882223818331795
299.29112266004119647
299.29256874046683379
299.29529624927829445
299.30023066409955845
299.30601279138073778
299.310406216366232
299.31281837188879535
299.31549156005542045
299.32238012888427647
299.33632436042779545
299.19954483275597568
299.21527599023772837
299.23039426390351991
299.2455205405786387
299.25952420758568451
299.27036727905942826
299.2772566586752987
299.28183298836358972
299.28748464122662654
299.29681584368972835
299.30889284960886698
299.31969010525921249
299.32501767802295944
299.32391646174659172
299.32040488054792604
299.32112433648921979
299.33111853083084952
299.25976614692052635
299.26918028401820493
299.27368617084624702
299.27614854170076342
299.28123694256879617
299.29196267735511583
299.30692974785614524
299.32074652372619994
299.32791999978331887
299.32725379082654626
299.32323448957038181
299.32354206500008331
299.33393132617032961
299.26998872853977218
299.27137749072522865
299.26945875665529684
299.27003039501715875
299.27732859698375023
299.29079943807238351
299.30535813246723365
299.31526635971050609
299.31887326549048112
299.32004998865005518
299.32565683069975648
299.34067065762963011
300.59706066896745824
300.36813202988315652
300.18505510538210501
300.0864600026461062
300.09107809072173723
300.19195451851766165
300.36167358002876426
300.56376916205715588
300.76465564523391549
300.94273630045245227
301.09021928735171514
301.20853091731822815
301.29885378316225797
301.35376830188891972
301.35585313212777692
301.2846799484919984
301.12771590284307877
300.89076948170162495
300.60427836521620293
300.32100476187696358
300.95599716039112081
300.7457333713136336
300.50598288946190451
300.28258252403486495
300.12431399114780106
300.06381785198067291
300.1094748323374688
300.24321354537306661
300.43021256982279965
300.63166776656686352
300.81793459069069741
300.97569423205089834
301.10664259887602157
301.21782823328391032
301.30929678774384683
301.36766346611830159
301.36906465177185055
301.28915997211908007
301.11604698604202213
300.86084257280560905
300.56187044175123901
300.27854556749258563
301.24301947453358252
301.19016816040340245
301.0713096645705491
300.88412172452865434
300.64973161111413447
300.41009257010165356
300.21395166311185676
300.10122361545694503
300.08958048991314627
300.17276556041957747
300.32494844082549434
300.51028430616275955
300.69564318956111038
300.86133761842302192
301.00383957268604718
301.12904074351507688
301.23968234680569367
301.32660011076842466
301.36833204105289497
301.33901711374483057
301.22027095435015553
301.01205896663907424
300.73860656844902906
300.44675161592471113
300.19524521515819515
300.03928368523480685
301.24456617865649832
301.21655549868688695
301.14537910998296866
301.01957102243125064
300.84323337587159131
300.64047347543862543
300.4495506029477383
300.31075589363746303
300.25009096398338215
300.27421862243630812
300.371642343126382
300.51774325072528882
300.68275723556774892
300.84042182875316485
300.97592480778160962
301.08702282616502544
301.17782701667130141
301.24846924937168069
301.28933701706466763
301.28320439657926499
301.21424597132659073
301.07768655861769957
300.88557026182758136
300.66661691761561315
300.46091660707008941
300.30984845760229973
300.24519889812438578
300.2808376646258921
301.20488934600302855
301.11267649484682352
301.00791434273975256
300.90052309673416175
300.80027806393820811
300.71991164370371052
300.67369880134697269
300.67320514244005381
300.7207889730776742
300.80746221381281202
300.91676587898678008
301.02980098084879046
301.13056917339059737
301.20557408022938262
301.2433971722851993
301.23769017185537678
301.18926491615593477
301.10566554633345504
300.99803120603024809
300.87919823996213609
300.76379902842381853
300.66912754718828182
300.61273047698688288
300.6067246597113467
300.65209553828270828
300.73707617943102832
300.84020975832311251
300.93663246329020922
301.00574719675938695
301.03694537405203846
301.21726659919625035
301.20159285509413394
301.17101894696878617
301.1258957749369074
301.06760172907900142
300.99938318984362695
300.92822571444605728
300.86823406428970884
300.8336044080880356
300.82999747336629071
300.85182486504584176
300.88371991530516425
300.90919548716271947
300.916020030739503
300.89789596905706048
300.85456947171292086
300.79319034537780908
300.72740342219640297
300.67212816808557818
300.6365476408759605
300.6204746879620302
300.61656867688145667
300.61680636145115386
300.61736429826436279
300.61835513340969328
300.62046434314623866
300.62242777287286799
300.62065897720003704
300.61079786833647631
300.5904653444351311
300.56167231791044969
300.53070595281968735
300.80871757612271722
300.76747950298062051
300.72641417968964106
300.68600144604806701
300.6428926688423644
300.59073739360849231
300.52751746854363546
300.46034836415600466
300.40159228053323659
300.36174089364902784
300.34232075697087794
300.3367757708725776
300.33563420347803685
300.33017456452898841
300.31379834801907691
300.28309086891698598
300.24039776534931434
300.19468201287298825
300.15705250682077576
300.13401646033406678
300.12383703565757287
300.11877920664539943
300.11172769489320444
300.10112695888670942
300.0897456898644009
300.08042238644088684
300.07287586927753864
300.06369001448524614
300.04846773148068451
300.02484658359014702
299.99526874059694137
299.9670831093982315
299.94943481095589277
300.86828423188796933
300.87375590734291109
300.88732137976660397
300.89510162353292344
300.89745460051807413
300.90863698401767579
300.36398480665445732
300.33398635804599053
300.30739516045230175
300.28337616727924342
300.25652329895666526
300.21922258017923468
300.16883068884442309
300.11228314215674118
300.06418427218738998
300.03619745147676667
300.03030312703805293
300.03972216984669785
300.05421355028801145
300.06425390046251778
300.06268868694496632
300.04590109829314315
300.0162057863005316
299.98275507196848366
299.95700739991076489
299.94588071622320058
299.94774677452903688
299.95472008651358919
299.95955844109346344
299.96094133095328971
299.9622257876987419
299.96674425813256448
299.97427663718997337
299.98097292677823589
299.98183221332067205
299.97386667919539605
299.95903827153296106
299.94510483888871022
299.9421346005363489
299.95749388799367807
300.25533077530354831
300.24253819579956826
300.24568272371089961
300.2569036441216781
300.26121794740663518
300.25945427450500347
300.26809157518454185
300.10399697462270296
300.08619106256384157
300.07147627075642049
300.05790338223567915
300.04061015605174134
300.01245319854604077
299.97019015452639223
299.92158397466266706
299.88172031818174901
299.86192036526631455
299.86406970924622328
299.88120871327765826
299.9032159109686404
299.92055290734828077
299.92595690063160419
299.91581088499589214
299.89236034314092194
299.86485007382447066
299.84492733412452026
299.83969149317721303
299.84749144391025766
299.86022800792466114
299.87045553552405863
299.87688235568799655
299.88313740587625489
299.89273565205451177
299.90537918889100411
299.91686179252985767
299.92178702512330801
299.91718290162793892
299.90480861680606495
299.89314682562400094
299.89293917852842242
299.91140389071341588
299.94858107349568854
299.69163338301058275
299.68913248162226637
299.68355109781418832
299.67536876559557868
299.66602535822863729
299.65654914931417352
299.64760006801412828
299.64127714404611424
299.63695720130692735
299.63678998962762989
299.64049702683513488
299.29778514236130604
299.29781018399017967
299.30835721722917242
299.32471706718138194
299.34340319480503467
299.36188103230051638
299.37713106404146401
299.38508135264243037
299.38237928753028427
299.3680851648352359
299.34517295440895168
299.31958157134948806
299.29680408811805137
299.28067931575725424
299.27229508277940795
299.27125874145571061
299.27736872886782749
299.29076809303268192
299.31102474143057179
299.33521302525468855
299.35735655254808307
299.37047185681825567
299.36962968272553098
299.35473904540214107
299.33079664041406431
299.3060724492561917
299.28981812345847402
299.28887996428619545
299.30560569656557846
299.33736979805092915
299.37695824745043183
299.41508691054536939
299.44400694483158532
299.4599993601660799
299.46394084933984914
299.46001163773212284
299.58431627734495351
299.58962606376974236
299.59914956150095122
299.6122555211462668
299.62774993958743153
299.64408555509493226
299.65961594951630786
299.67286145049001789
299.68270682528680027
299.68863368221855126
299.69051149282205415
299.68856872080715448
299.6835337060174993
299.67573025985126378
299.66624467807315568
299.6560273125988374
299.64550168459857105
299.63696774614737706
299.63008009355115746
299.62703543293946495
299.62876093483953355
299.28485793172410467
299.29043585755414369
299.30828362455559954
299.33294411106379584
299.35929394758079525
299.38213347016005628
299.39772438159781132
299.4026840827622209
299.39659536590073685
299.38022278800769982
299.35809531446489018
299.3349620745667039
299.31534885905028887
299.30240141726778802
299.29700468906992228
299.29837996198637029
299.30529295641917997
299.31685371498628001
299.33229919105968975
299.34977319430004172
299.36562893873519897
299.37501949511926114
299.37372725679301766
299.36076267086633607
299.33968036289013526
299.31706033338429052
299.3006092318742617
299.29675949845074001
299.30830003904304704
299.33369559893651513
299.36753796650191362
299.4022235825305529
299.43091075480947438
299.44980187216833656
299.4587638831969798
299.46064185471362862
299.59438831035907924
299.59835487156459521
299.60570465100255433
299.61612695475662349
299.62879088878293032
299.64255599813594699
299.65614253552229229
299.66827008450957237
299.67779428981231149
299.68395658783805402
299.68640881372203921
299.68508036737972589
299.68041550383992444
299.67267008035690878
299.6626928170351789
299.65156585357198082
299.639720858163912
299.62968363008195638
299.62139075464722282
299.61687190585092821
299.61803972643645011
299.29113117658158671
299.31347765541039507
299.34574880990385282
299.38009189146481503
299.40794349558757403
299.4232974522992663
299.42492385135892619
299.41486826636122487
299.39724419727622262
299.37598526680955047
299.35461414511991052
299.33650755896593409
299.32442173761148752
299.31947554128606725
299.3209978975991703
299.32706798776229107
299.33580934970507315
299.34612633206410237
299.35754796552379275
299.36894131652337592
299.3774514339399957
299.37962074025909942
299.37345587979655193
299.36000795272792629
299.34338213565422393
299.32900471571281287
299.3218065009697284
299.32487243130822208
299.33839504683942323
299.35965961588038908
299.38425074004197768
299.40784411221727623
299.42762713878300929
299.44279374859445397
299.61336558782608108
299.61791969268796265
299.62456522619856969
299.6330225442281403
299.64265615662947084
299.65265064435112663
299.66209658533136917
299.67010432108082796
299.67580658099126367
299.67854500501613302
299.67783457049853268
299.67363289197521681
299.66602772902689367
299.65565778760941384
299.64381218244648153
299.63113123839474383
299.6205351669727861
299.61242429635541384
299.60847706552146974
299.61115141299853804
299.28785389480054846
299.31363654381527795
299.35280111703241346
299.39470082388942274
299.42722548454997877
299.4429303361393977
299.44190984848148673
299.42942260931386045
299.41128085233702905
299.39115221204690442
299.37111134684710123
299.35357229982338367
299.34155860428376172
299.33656795153382291
299.33791761420854982
299.3433904932957148
299.35057311717616813
299.35808127644395427
299.36625450945632565
299.37574647446342624
299.38563748276311571
299.39281876955084272
299.39406404136843776
299.38841465875714221
299.37778627439985257
299.36546947672849228
299.35482675582028378
299.34857645241413593
299.34838136216728799
299.35449604547221725
299.3663405340519148
299.3828274914375811
299.40281906879562257
299.42514465217811903
299.6329784146679458
299.63436813156931748
299.63639833148931757
299.63945829066250326
299.64362208879560967
299.64866611721629397
299.65410487668731321
299.65931209536574897
299.66343329647133942
299.66561608784604687
299.6650348258429517
299.66126188881889902
299.65422601752891296
299.64432686026117381
299.63305979602245088
299.62120245694205778
299.61185101174442025
299.60584669255558765
299.60443409180487606
299.61034237822923387
299.32466579879894653
299.36259180392903545
299.40416552511965165
299.43591217998761067
299.45040391704924332
299.44865318954384747
299.43675162925808309
299.42078702716696625
299.40360146610095171
299.38607721015011975
299.37014236331094708
299.35878944074147512
299.35426505961021348
299.35586537231318971
299.36051992600431504
299.36538272064802868
299.3697349223468791
299.37485832938762087
299.38246857981823723
299.39227922936072446
299.40152712018903003
299.40670718775515979
299.40631933544966614
299.40145274016106214
299.39407898319302603
299.38549305480717067
299.37623901169121154
299.36734999214598929
299.3611062513028287
299.36047448161343709
299.36808001996968187
299.38499858335120507
299.65430253603068422
299.65174008672988748
299.64899945002667891
299.64684457263405193
299.64573701436228248
299.64571427406275461
299.64649018076545417
299.64733831738948311
299.64744223124108657
299.64584515574057377
299.64192201852813469
299.63563292592795051
299.62719328844559641