/*--------------------------------*- C++ -*----------------------------------*\
  =========                 |
  \\      /  F ield         | OpenFOAM: The Open Source CFD Toolbox
   \\    /   O peration     | Website:  https://openfoam.org
    \\  /    A nd           | Version:  12
     \\/     M anipulation  |
\*---------------------------------------------------------------------------*/
FoamFile
{
    format      ascii;
    class       volScalarField;
    location    "0.013";
    object      k;
}
// * * * * * * * * * * * * * * * * * * * * * * * * * * * * * * * * * * * * * //

dimensions      [0 2 -2 0 0 0 0];

internalField   nonuniform List<scalar> 
106891
(
0.028747176083838137106
0.028753228861605861777
0.028769637475470552501
0.028804550495839922886
0.028839576633408331441
0.02887052547828261248
0.02889587017318327386
0.028916494766685785223
0.028930436039887062749
0.028946360605825623147
0.028945883346985615964
0.019404120773916365417
0.019399009401659329105
0.019371857905816972784
0.01933908688933470843
0.019328169757443298266
0.019329112857816639626
0.019348349885401995574
0.019437920811401918769
0.019658554972329780886
0.019862709265862598523
0.020037982393834127826
0.020197710517244345241
0.020361171432886925048
0.020538494810969889354
0.02073887397609163602
0.02095562806173033657
0.021178028839686186685
0.021391894939315061336
0.021582149746542132057
0.021737235579075985664
0.021848683320195069063
0.021914883431779212664
0.02194194089587104754
0.021947897942188345638
0.02194203410506466792
0.021900320491028874709
0.02177724754099804802
0.021670098125156647684
0.021610833290627382702
0.021589585643940780585
0.021587669406680724121
0.021601183229944771053
0.021669314743991852784
0.021871362716514915203
0.022110881574737752814
0.022335816579387615666
0.022552683877200229573
0.022763881093642631542
0.030529092640000497771
0.030440250585403214045
0.030374925561488061443
0.030331943715073712148
0.030307523550938273577
0.03029592512113708086
0.030293707644669144036
0.030294285220834767797
0.030297369637325814729
0.030306196808509218432
0.03033169554822039149
0.030374290044812370798
0.030414386287336614423
0.030448514607582796015
0.030476245153373510838
0.0304970944048438726
0.030512938546970212045
0.030524107520328320337
0.030531745839183326019
0.030533463266857040208
0.020279878416669130936
0.020259011592301513771
0.020248109748509105638
0.020249431117681061104
0.020276133742318663139
0.020404279039055728262
0.020748186705107165423
0.021084924664741374473
0.021357550760146042784
0.021581560720417621024
0.021775518888807007811
0.021956970140558022819
0.022135623734631900555
0.02231468213689097313
0.022487456085710968989
0.022644740673923368507
0.022777991200749164724
0.022881304105442708263
0.02295628531978404982
0.023003055253770533783
0.023026908285728623499
0.023035559921217006046
0.023036979939101805831
0.023030046590575854043
0.02298945579938177497
0.02288399097051376993
0.022797839072814130024
0.022751431132415154274
0.022736889000093175178
0.022738369177328337373
0.022766519726197240181
0.022889419950844536178
0.023184942091073725001
0.023480035749538524792
0.023755223030670326312
0.024014970723221475829
0.032173619141816760247
0.032104409012721879524
0.032054626458800715427
0.032021589564760657987
0.032002606948786413432
0.031992423808671899277
0.031989558068615385478
0.031989389355221067857
0.031990813482502725162
0.031995446663399221277
0.032007672304610462755
0.032027616671568052975
0.032046588529809759416
0.0320629761985368536
0.032075607951069624868
0.032086112935910814092
0.032093788703714216937
0.032099572450331348428
0.032102589498736053275
0.032102302987181384475
0.021431453691002640138
0.02144214932182136879
0.021480827655198469345
0.021607545489534637356
0.021831702521065945305
0.022059790353784518302
0.022275717995661140775
0.022462738605651975943
0.022618668417799778908
0.022752774422032825269
0.022882209049584909671
0.023021156820823025085
0.02317960163620707767
0.023356410126923538711
0.023543926810004094791
0.023728621216658047494
0.023896724588594531885
0.024036930010757098092
0.024143533011364189111
0.024211909673727088216
0.024246338776668745901
0.024257497750087515798
0.024257405906839349385
0.024243320487753846487
0.024173061573508826394
0.02404297363364227974
0.023951881955175211014
0.02390547179805148012
0.023892638175484599838
0.02389592809080709479
0.023931178919598679322
0.024073884082114496014
0.024344305324872080737
0.024605989787432714505
0.024872375298190210757
0.025144816165157238969
0.033909993619568652712
0.033865048279528964237
0.033830888839130469903
0.033803350415249532046
0.033780455887164821671
0.033760323301044781186
0.033742956419291349202
0.033727336877310019891
0.033715031507305315284
0.0337053972760815862
0.033698478605636419947
0.033693918001300074416
0.033690159973927734371
0.033684640037857253858
0.033677537455810722944
0.033668990911968128821
0.033661736706715149336
0.033655237101197908733
0.033650794563456369601
0.022319435042082516607
0.022377924554278443015
0.022535668401618913492
0.022714704555462015417
0.022877313577738214723
0.023017570238094114954
0.023136260098339026664
0.0232419630599955164
0.023354131704260337743
0.023491377320336629536
0.023667471071257786819
0.023884689248112909304
0.024141320518766568731
0.024422388580751467485
0.024710470185054803083
0.024985052644300349833
0.025225933921187809056
0.025417386870124979159
0.025552874586928120415
0.025630199597753793722
0.025661660937577410874
0.025668420318743820352
0.025663929812119047613
0.0256305187092913285
0.025501408531017382558
0.02532497600654271333
0.025200105613743372518
0.025128179019025802254
0.025096314075964774176
0.025090070436202240034
0.025095304438562913985
0.025129480384639305696
0.025255946898248633065
0.025577415916462883927
0.035811323202384330588
0.035756335381680687258
0.035709850821540385646
0.035671055217096937773
0.035638945893164047929
0.035610927442359448236
0.035585706395776635358
0.035561611604693794952
0.035538065662977645631
0.035514538796969669088
0.035490920990661679879
0.03546833402092915144
0.035445742403639964035
0.035424912188129584201
0.035406411825380131042
0.035391747793566019631
0.035381357567446113099
0.035374926463797827514
0.035370933924584797847
0.035370133186399851932
0.02322972367897578605
0.023228335983929076364
0.023248346205938980741
0.023342968973646942982
0.023550312378437042449
0.023757249970747625761
0.0239676474184189435
0.02418525347767315134
0.024413506711203143001
0.024656163877433762838
0.024914407599215811911
0.02518507502060240294
0.02546241719999980252
0.025741410464970911759
0.026012336492580404035
0.026264740505462937092
0.026487788214608478515
0.026671962965535200851
0.026809600317940218694
0.02689759791299576111
0.026941770192796515165
0.026955869627734690974
0.026955916973122762831
0.026942839634316186059
0.026876972132666022974
0.02671705952454167185
0.026584852015470592651
0.026505145726570988191
0.0264692315872615061
0.026463004334671313272
0.02647130381924261977
0.026522798684556661564
0.026716203138237099718
0.037512522032135273142
0.037478778109777365068
0.037448847441922408774
0.037421716016023905127
0.037396558797020286458
0.037373187532586747694
0.037351466487580739506
0.037330708266120185557
0.037311610795759952985
0.037292985591274571688
0.037275927061167203613
0.037260623732869528613
0.037248274048702796624
0.037239190857279245994
0.037233962618492474905
0.037230842610602513099
0.037229810273972617496
0.037229881324548581845
0.037232176838527031304
0.02470611400935835214
0.024703858571302760722
0.024710965406804535904
0.024743534419468780211
0.024837523784992154852
0.024995677474010529612
0.025188452065033513361
0.025418147795414403056
0.025683758559420444972
0.025980936855097797739
0.026301946993981813183
0.026636159689523340732
0.026972621955259450111
0.027296869105049883369
0.027595094412872077372
0.027854264637663630338
0.028065578029864250709
0.0282229322115821607
0.028326536568552228984
0.02838125516391540315
0.028400694660560200921
0.028402803562996209452
0.028393774971739112883
0.028341177517741771713
0.028190602250193944056
0.028057879853743503823
0.027981480756368710267
0.027956559253873299736
0.027957622457870492938
0.027990036738478215467
0.028138642851580120824
0.028572301100047464706
0.039537884076810317358
0.039494588707426198093
0.039450889221561633025
0.039407403761388730412
0.039365010430757838011
0.03932569774809869384
0.03928978584668776225
0.03925905035997508119
0.039233431367019261371
0.039211805563272715547
0.039194177515694580971
0.039179986859918337905
0.039168245077101537799
0.039158421380412429536
0.039150671442307660719
0.039144961094739978702
0.039141667794620332854
0.039138813538294792149
0.039138986402130808429
0.02588788929283335899
0.025886149689963496717
0.025896728049591449805
0.025947317403781543915
0.026110438798933786886
0.026366928146147470408
0.026644218608170823492
0.026954033005761893205
0.027299894982602337934
0.027675704973057730501
0.028069313036477756829
0.028466448287592989452
0.028849002837973064528
0.029198404033083349279
0.029494495695557149118
0.029724662624547856793
0.029884906761435903189
0.029977823155185098075
0.03001731499682153137
0.030027062673851384611
0.030024101810492708625
0.029999700459356626325
0.029894971362503072049
0.029706634846370302827
0.029564414531728363394
0.029479441769611612612
0.029442499126809247578
0.029437810004683966775
0.029450447745505869968
0.029520659766567824284
0.041588934362588272919
0.041523572566748975787
0.041453271007816649973
0.041380932866549376137
0.041308181066038215934
0.041236011606477725178
0.041165204063434907011
0.041099510343166167914
0.041039573412557636689
0.04098851502075215314
0.040947201422606910315
0.040916542034216810131
0.040897065074619036451
0.040886282631649714658
0.040882195352574611513
0.040882323318154355218
0.040883919619608376228
0.040900149650170344873
0.027206324994867525646
0.027254204342493301705
0.027365581513747402193
0.027559026672796225338
0.027819953989733338384
0.028133474264771769074
0.028471667226451020244
0.028817503869510346926
0.029167285081006535941
0.029519003138451883894
0.029860706055090297656
0.030182315173588551011
0.030480603507918858225
0.030748870145173360507
0.030977346311681700636
0.031153470434363863401
0.031268325539272674718
0.031324545127466463246
0.031342410774367605863
0.031343875657856117012
0.03133554365955134452
0.031290369314859525773
0.031150630438583098991
0.031003867938492926659
0.030906824354465355781
0.030859531803030224723
0.030850934460936632608
0.030861051193268394799
0.04363793101360087523
0.043546372445305667198
0.043453476757236805805
0.043362251173760635314
0.043278263851167161902
0.043206804259890818631
0.043150229883270663223
0.043109793407181400127
0.043084655350920417205
0.043071361862347515292
0.043066129352185143764
0.04306520472828506696
0.043065699950612976177
0.043068034845309639824
0.043075071322072111535
0.043104604313759245504
0.043141191599980907578
0.043239351531859787636
0.028913477643772545617
0.028933191848553935915
0.02902579262960441886
0.029334896725780004734
0.029765183937495921784
0.030138749593708078628
0.030433905621145066617
0.03063780150697502716
0.030770266828262712866
0.030876516670537191428
0.031000182110295891602
0.031158434477122229356
0.03135401821792827004
0.031571413598167681613
0.031793304905502028923
0.031995958443676225658
0.032166035659414816961
0.032294201866150264169
0.032373287556651433872
0.032405010591973829048
0.03241047416838351708
0.032403031569128784573
0.03236082265906545935
0.032310272288450334055
0.032291389055367686334
0.032294062526950495506
0.03233527338516813121
0.045421976062846584898
0.045377431789626970771
0.04533084190240536937
0.045282512339926105083
0.045233116765201968057
0.045182314831962257229
0.045131567428231142425
0.045080207545022767113
0.045028312172915516132
0.044977923899443716937
0.0449300695462718086
0.044885398076662398614
0.044845327502839239797
0.044806376320390445267
0.044775226135188618548
0.044743977753766095429
0.044720934574937858119
0.030371568310494048704
0.030654052800609319501
0.030947499470061506921
0.031228014078091732852
0.031446701871053202304
0.031573331660881602534
0.031617996347002262636
0.03161872069872383173
0.031587728000368096859
0.031439774627661280781
0.031127323303909746471
0.030900057755732682901
0.030778711590210196952
0.030743596284742255587
0.030746137471348706366
0.030792105703101927544
0.030991677962544372793
0.031544418859181397319
0.032125115323061594064
0.032606935197020334161
0.033010585434768174862
0.033362600189036153986
0.033669978251663117141
0.033933841084223190232
0.034180118536937469098
0.034437804838717493705
0.034702596465316828955
0.045484138440351574995
0.045482756083714305506
0.045478709462695172949
0.045467023436046423435
0.045430452957467178099
0.045349356258948606002
0.045233295217292288082
0.045142383671977898141
0.044992642320076832452
0.044902942658343103499
0.044732362838213413081
0.044639461201770654075
0.044464010902978398643
0.044377863281124453609
0.044175614513297684072
0.044170758280810212826
0.026058962118999808022
0.02637686415696199535
0.0265690321948259707
0.026657652454084405924
0.026677792748121202659
0.026671947098556712807
0.026624768495709227184
0.026440048717092105163
0.025996397931705515771
0.025591969261059704238
0.025294233418406721764
0.025104085885352980106
0.025004947108284523299
0.024970697332942194679
0.024967615161981246419
0.024980252364439282237
0.025041775364671892135
0.025252394249951744254
0.025856979862914599572
0.026668260389240156655
0.027476201998375433116
0.028244157660875374161
0.028925361127163977393
0.029467237126069863173
0.02984489296923225829
0.030062118390115594863
0.03015291117856909453
0.0301690249849015657
0.036160100978548929962
0.03616174150620716371
0.036161790718306191517
0.036160598652162236066
0.036155997884370127959
0.036141662925138311191
0.036111619010854904832
0.036029659233375171956
0.035970663053726564806
0.035864364933429884741
0.03580607485222273012
0.035698703939582888955
0.035645551680994598531
0.035519487337072823407
0.035538862023851418293
0.023654353515151101822
0.023936033204431026583
0.024173409618516685654
0.024350448044805839826
0.024458565666521912135
0.024505137073135362102
0.024511849465222744493
0.024502275898370975277
0.024446224690617853609
0.02430313556949547163
0.024198707981836320435
0.024150749287688656752
0.024140348748688148645
0.024145606057011183981
0.024183792935854871858
0.024320495938474916836
0.0245425559076442798
0.024781561411189801519
0.02505457374927026401
0.025361660771825913357
0.02569596238193865706
0.026037031784662250516
0.026361433963887334619
0.026646470790090109881
0.026879228894312507531
0.027052791041143709611
0.027174280058436538904
0.034339569983265941233
0.034329762094320273591
0.034305355210490717788
0.034287951891021010986
0.034258352574845003791
0.034242149608589629584
0.034214589605571395226
0.034199727695641134184
0.034171979210843576868
0.034155917312217419501
0.034123140707399010618
0.034102701495283029021
0.034049055889568399791
0.034045853044415964883
0.022580351655633275343
0.02277979284454758821
0.022923063515959692105
0.023004866299069594293
0.023034396791151458966
0.023036552931173050196
0.023022918926957625096
0.022959761477257648737
0.022894263712701722058
0.022870078175181419999
0.022869964223276816745
0.022896400448945995743
0.023023333704080477941
0.023242456506801685567
0.023409016267751173168
0.023534020394777019347
0.023644353088453397282
0.023769744249429524546
0.023931719811198834402
0.024138936541537207164
0.024392923633343787521
0.024677257440544671241
0.024972948904153326882
0.025260372385964808412
0.025519786142873177731
0.025732602592066597391
0.032995182117039160985
0.032963460287917162317
0.032938575584983628697
0.032907400941967722419
0.03288529951790284539
0.032859115163131315251
0.03284399980913197542
0.032824688774121695001
0.032814105232836281167
0.032797019154303989896
0.032786742396415345657
0.0327585314182391521
0.032762930254195979374
0.021717997220557318239
0.021769431195997716866
0.021799323567718860428
0.021809618134344541801
0.021810321002517694955
0.021804282720351664954
0.021794337644239426127
0.02179546935696110091
0.021817032775261528676
0.021924297540532742407
0.02215306162980008528
0.022336607944052174618
0.022476886225085829923
0.022591121757170408435
0.022700646415680949403
0.022823860439552409729
0.022977988256775230824
0.023165607640055221883
0.023383749267412982931
0.023621574017444916388
0.023861277490434092824
0.024085479719620529748
0.024281259323812982853
0.024440347416082971316
0.024559888218885085609
0.031740495791541929738
0.031707157804763949627
0.031674208440034858081
0.031645667633584791123
0.031616544211552050081
0.031594524914555784101
0.031574604817458565287
0.031563908679062210871
0.031553235109012471582
0.031547001180411399224
0.031529220716495082177
0.031535563744596456504
0.021062384286262357536
0.021103178802413812692
0.021124671993737371284
0.021131525452196976006
0.021130490044820444268
0.021119589249032785089
0.02111121980917055399
0.021114137300603103009
0.021142229530693640305
0.02126218042897133273
0.021444188984159683747
0.021581813075850903721
0.021688987349566087731
0.021782757149661179097
0.021882917126845913974
0.022005978779912057502
0.022165925520606973714
0.022362070207453902532
0.022590268954621229441
0.022838069311194617722
0.023090764839912635703
0.023336769225815900963
0.02356504571069004822
0.023765989694883079414
0.020432788675032436537
0.020446839219819983036
0.020449413579388703299
0.020443786909417428765
0.020421437328530186311
0.020408622834579993183
0.020410700428977402582
0.020437268582159329178
0.02056081412926383245
0.020792052237945213983
0.020965805608358333012
0.02108640653365138895
0.021175195079146152261
0.021260005361937572149
0.021363773407863131254
0.021502415666111024395
0.021678383445476959862
0.021890397461878052104
0.022124288750050413038
0.022365529754234385329
0.022601862542570998887
0.022818019291594857784
0.023002798869983107771
0.019683593037077493082
0.019673701442218190921
0.019651453753163104082
0.019645997305397667337
0.019652707292188393434
0.019700163116601120822
0.019879903283918701901
0.020095109570032552299
0.020228051329394494684
0.020295348743940198888
0.02032816897551291066
0.020364296160889871351
0.020440419276522684561
0.020624199690274500063
0.020895346033364920607
0.021193803961578827622
0.021483349837374043911
0.021728415381157124148
0.021910575976669951354
0.022024408558562920402
0.022084408799361365111
0.019071823428523329569
0.019174990857010798528
0.019284762879400216273
0.019390118607354497882
0.01948455557998469978
0.019569347724657192716
0.019656043373635381094
0.019759292264244388004
0.019891517868020659743
0.020053517064529617631
0.020241723952111281837
0.020442310360842968348
0.020636541990129309704
0.020804669696096865505
0.020936896542832386658
0.021030369841276583265
0.021092366185886435997
0.018878557136656901744
0.019005191270542547838
0.019109713134213980601
0.019205481109442871374
0.019308421367616113856
0.01942939705239048187
0.019570868757708283214
0.019723909764123567778
0.019881795083981263633
0.020030436193327939148
0.020167124963923123426
0.020293463382098766989
0.020413278143105062501
0.017954257842658440797
0.018078490521314001527
0.018182674241581344571
0.01829353309811208167
0.018432855507328000516
0.018608267312505474139
0.018816678406001704354
0.019037885032896453841
0.019245773566896252904
0.019424645214205945448
0.019561763679745897831
0.019659873889256399004
0.0098076836636629641936
0.0097052225410332280953
0.0096896568108683720638
0.0097021375462800658884
0.0097706602923143121009
0.010018999245528563413
0.010803060258446350872
0.011927106147709910094
0.012913516866831278515
0.013728835196895999501
0.014350514334502262673
0.01477520781378093527
0.015017597173085969753
0.015121511890341813103
0.015138100903183753301
0.015123163944483687671
0.015037466548554645485
0.014711470364299048322
0.013955883717520153192
0.013298812655314160708
0.02371715169514761537
0.023561360100656875138
0.023557890199643816836
0.02361614186544131605
0.023819060552745394133
0.024411260437162352055
0.025993213906776391209
0.027818340541659374032
0.029405903269212978896
0.03072047541008976132
0.031766239452584020542
0.032544384520401724303
0.033070984342566694947
0.033366714638821640126
0.033493120596831224556
0.033502413418623755437
0.033472593758844593204
0.03334588843511831352
0.032925041136447986967
0.031734026830087358473
0.030378403990407594482
0.029333245008888755162
0.084040177401330504181
0.083992605026015090819
0.084126523639640321539
0.084565042510407903431
0.085373497552220956042
0.087120013520395306328
0.090743289743619906518
0.094660129829052849781
0.098275938124891826231
0.10140723855465080816
0.10398468539923057252
0.10606427002847960972
0.10766704627337359002
0.10879858136095604815
0.10944231644703701634
0.10973335015751140009
0.1097498195021863604
0.10964850171330781103
0.10933662821150520739
0.10843402946328661862
0.10699997422379693701
0.10613356516618138725
0.1058822130918652682
0.10587423895136884033
0.10601252791271491283
0.10646924320967920963
0.43557030336665214509
0.44207677405277295835
0.4520721074079613877
0.46394924280160726449
0.47737843737422253065
0.49168613282999429348
0.50581840079348083794
0.51873247672261679764
0.52975440364844172958
0.53866355562323064987
0.54561488907731303666
0.55117750604621318367
0.55592197543552046568
0.56007633176763260696
0.56362793232136265686
0.56639625837239815365
0.56825785300064990402
0.56926479570457555468
0.56969026032479574972
0.56993291240026477951
0.57035535774351953098
0.57143055345996596195
0.57417845744978213141
0.57944652656038264649
0.58650031781428146882
0.59504126800772982886
0.60473109908713595928
0.61507219701164905779
1.9724001220889932906
1.9878558605624712108
2.0055949215389059503
2.0251453050504264475
2.0456230682856122449
2.0659208753316029572
2.0848324139163447732
2.1013259965099915227
2.1148022896459659492
2.1252205665482244434
2.1330061033522373926
2.1388459179384020636
2.1433765975673648718
2.1469548543554348718
2.1496826334755421151
2.1514556042582833051
2.1523239806490135351
2.1526395435127518851
2.1529842305208588549
2.1539811839940501415
2.1567323825530508863
2.1618919079295415564
2.1694379601847768591
2.1791792562964635849
2.1905388790095221552
2.2026081191599922171
2.2146093552792627257
2.2257537696337532651
2.2354799051745821714
2.2434240295793101971
4.422978205348205627
4.4192656453733309974
4.4145655617464303333
4.4083319640387506055
4.400198623157741018
4.3901479878494074072
4.3785049984612962604
4.3658395900827935421
4.3526940126232238626
4.3394706395410507227
4.3264036120948015096
4.3136573929640213976
4.3013577726813405633
4.2895887253547400064
4.2783134741410151491
4.267389360360342998
4.256669126895536337
4.2462151691391092356
4.2362790519080926188
4.2272028614050070061
4.2191924459759482247
4.2121425635645168839
4.2056130756479213062
4.1990014014851828605
4.1917165970926397733
4.183407904549360623
4.1739542025332196928
4.1634037594616488676
4.1517598321640667436
4.1390827392823288378
4.1254240821485641533
4.1111346159001529443
6.1441016774695160763
6.1154388950574816164
6.0868598469992569733
6.0579517286037871671
6.0286333553909585703
5.9992233756011268397
5.9702721566703678135
5.9421925778144055741
5.9150065533294320375
5.8882792685945295474
5.8615165994221847257
5.8345575385991779171
5.8076752565898930314
5.7812820717211081956
5.7556236457332978773
5.7305933744019172948
5.705880253061951457
5.6812866326446291865
5.6568866455166872953
5.6329359593330989853
5.6096211794936641226
5.5868525056260054384
5.56427686998862292
5.5415205858719538412
5.5183593236030024087
5.4948129356929209521
5.4711134589134022832
5.4474787972587082052
5.4240043213096296171
5.4007036157931862519
5.3776190268054300248
5.35495617787604683
5.3329530032024958786
10.372917600757622481
10.271926230670560543
10.173841988654865887
10.078042210218718822
9.9841351713592825234
9.8927458291753485042
7.0572661503362184021
7.0200731285355777445
6.9829066433233952793
6.9452585899979393247
6.9070666125304880367
6.8688206482713098922
6.8312517814823383588
6.7948768796200349485
6.7596607931778889267
6.7250693623805331001
6.6905774880062285348
6.6561120662276840321
6.6220779898281261211
6.5889843737144095925
6.5570446603200576163
6.5259694296839620975
6.4952288241153848247
6.4644974391442291406
6.4339528307640563298
6.4040684592564218747
6.3751907094501074624
6.3472610733244030357
6.3198222802820307464
6.2923856879932529296
6.2646823053267484127
6.2368268956729524533
6.2091342336303716465
6.1818267875045034287
6.1549240784514962499
6.1283457554918472354
6.1021540353863006345
6.0765837365479358212
6.051934381470222668
6.0281678340436375407
10.199110952151835718
10.081606603090683905
9.9638611936590528728
9.8470489496007349572
9.7321110058351738559
9.6205355997688997149
9.5137693697642191637
6.3750518949899657173
6.334502061936485795
6.2932550340159520985
6.2520130279357051251
6.2123709510954103763
6.1758597562652930435
6.1430290689362490042
6.1131939027213029192
6.0849549898200638864
6.0571125515089807578
6.0295200043963417258
6.0030209496047026718
5.978601120145667025
5.9564693984180738795
5.9358195377924216629
5.9155170526990028534
5.8949599708044804203
5.874456409084207742
5.854727064286426419
5.8360445192003949089
5.8178282628679136579
5.7989361204136704586
5.7784523615140992447
5.7561966270535238621
5.7328162847102408506
5.7093178870988765539
5.68646568238091632
5.6646098395345525489
5.6437564310464320982
5.6238580711957961711
5.6050187519046774653
5.587268467104189007
5.5702308838160234927
5.5530732487056200242
5.5349288155684259749
0.00010909233573354920241
0.0001047841907834171592
0.00010093690609140367322
9.7476922457247767019e-05
9.4327484101361529808e-05
9.1443527765513690124e-05
8.8785196739592388672e-05
8.64674041214870718e-05
8.4214534051220025905e-05
8.2489423759932284613e-05
8.0565401985818383118e-05
9.7166020705847434727e-05
9.7249300931516729097e-05
9.7160955679268196181e-05
9.6883750004225554836e-05
9.6463278699296741998e-05
9.5624411112456297619e-05
9.364924966019732525e-05
9.0725108202332533812e-05
8.7518032064177293198e-05
8.4388661206541646102e-05
8.1624924105515284621e-05
7.9431470117396609583e-05
7.7876280436808524989e-05
7.6924507358726670371e-05
7.6413118619354371643e-05
7.615620334087088209e-05
7.605584418942007202e-05
7.6047752983527687931e-05
7.6165960983926318784e-05
7.6959815392102883577e-05
8.0370616007705678627e-05
8.6176116996142574332e-05
8.985906428926627445e-05
9.138753328671346543e-05
9.1632869487381758363e-05
9.1435146534289538957e-05
9.0641307598569013535e-05
9.0171280694332063771e-05
9.0159094469785186618e-05
9.0520267974732987319e-05
9.2138911525672221345e-05
9.4079645512686900901e-05
9.5192596347641006784e-05
9.5692249270008271551e-05
9.5835719876561389864e-05
9.5838715425349021407e-05
0.00021983230892483332443
0.00020493348577419904849
0.00019117331909582497966
0.00017855963445211921452
0.0001670736606824187718
0.00015666495434141325762
0.00014725398281420371276
0.00013874421904436275176
0.0001310626748384652871
0.00012412419478896865254
0.00011789278934080714238
0.00011226429107696470403
0.0001072006718232293486
0.00010261748690181712027
9.8525106439319580271e-05
9.4934708225047857982e-05
9.168515222253464025e-05
8.8959385790835407665e-05
8.6398755663047484689e-05
8.4409265997182651915e-05
8.245371582008482515e-05
0.0001057056629678918122
0.00010572489556835300327
0.0001050304727988482246
0.00010212115804786545147
9.8765117968638039278e-05
9.6658048913522668527e-05
9.5317624708737426595e-05
9.417003735589172381e-05
9.2823784046955996603e-05
9.1218948624674560345e-05
8.9511965503764033287e-05
8.7853710797075780384e-05
8.6382344978702858568e-05
8.5170087653041156098e-05
8.4196171640613307724e-05
8.3430740298693893708e-05
8.2946648067137119858e-05
8.2804383479069816978e-05
8.2899595706876060149e-05
8.3737121401096479569e-05
8.7523481950250374244e-05
9.5199183090810939327e-05
0.00010045933995686714935
0.00010290015779600877031
0.00010344241424306930687
0.00010324164581785570552
0.00010177570056563040317
9.7837633588145116398e-05
9.4792963183685746242e-05
9.3070968537540575759e-05
9.2239318821699640776e-05
9.1890442193278944411e-05
9.1744406099970526674e-05
9.1630014009533918441e-05
9.1428841882436329147e-05
9.0972531272465577694e-05
0.00023178455951427580101
0.00021795888158161278044
0.000205162177009075256
0.00019326239529800058473
0.00018213972097260911387
0.00017172879403612348022
0.00016194691704471506511
0.00015279352707686842346
0.00014419911465612844279
0.00013625156832273118183
0.00012881018994663807095
0.00012209122135039258516
0.00011580487551487205823
0.00011027695471747323615
0.0001050968566076616867
0.00010071501883016526499
9.6588394574069887056e-05
9.3174548424125082108e-05
9.0010247539760133983e-05
8.7416298255336164023e-05
8.4981842302188587233e-05
9.33012652544332931e-05
9.3208561153934361022e-05
9.3210844393456615108e-05
9.3581718592910148971e-05
9.5480879673393725818e-05
9.9358280738324615848e-05
0.00010194844676891611336
0.00010316570118489524078
0.00010347753522428394552
0.00010345689074854975606
0.00010314796476169764796
0.00010180609190825645782
9.7664949172153125664e-05
9.2786414804330101221e-05
8.8937798806152835334e-05
8.6295706600823045523e-05
8.4956937352561690078e-05
8.4658613177083803097e-05
8.4867210799968015767e-05
8.6371297043692747209e-05
9.1583449634044725835e-05
9.6723650893162761515e-05
9.932674198581155486e-05
0.00010008516158896665535
0.00010004372408952244935
9.9277155387904574956e-05
9.6541323546136642271e-05
9.3926164354178604118e-05
9.2470198007510128455e-05
9.1819744936246839619e-05
9.1599434833921841714e-05
9.1555576171548826311e-05
9.1561631516981801539e-05
9.1581491138208176569e-05
0.00023454882464229965481
0.00021946458653887684627
0.00020541767859341906175
0.00019236256729736493968
0.0001802637772368344141
0.00016907164998087456458
0.00015874120324517351603
0.00014920861503700069716
0.00014046076203560027779
0.00013242711268776397081