/*--------------------------------*- C++ -*----------------------------------*\
  =========                 |
  \\      /  F ield         | OpenFOAM: The Open Source CFD Toolbox
   \\    /   O peration     | Website:  https://openfoam.org
    \\  /    A nd           | Version:  12
     \\/     M anipulation  |
\*---------------------------------------------------------------------------*/
FoamFile
{
    format      ascii;
    class       volScalarField;
    location    "0.013";
    object      k_0;
}
// * * * * * * * * * * * * * * * * * * * * * * * * * * * * * * * * * * * * * //

dimensions      [0 2 -2 0 0 0 0];

internalField   nonuniform List<scalar> 
106891
(
0.028747292135849932676
0.028753361175216075873
0.028769866590194974332
0.028804823342575697209
0.028839816652953851467
0.028870723415837754033
0.028896026375430441946
0.028916607699775453283
0.02893052913525431119
0.028946403224198110488
0.028945917125973278511
0.019403718513510800209
0.019398576174361695929
0.019371314874941335249
0.019338612660685219891
0.019327755319326851702
0.019328722277220194287
0.019348116800394322273
0.019438232117326408738
0.0196591945333083086
0.019863167095057067402
0.02003832136138276182
0.020197981236135288674
0.020361439116849549408
0.020538824088097023396
0.020739303617224449233
0.020956144321555927185
0.02117858070743163651
0.021392403781661229606
0.021582537848750981552
0.021737448169520938446
0.021848700719849869362
0.021914723148006257092
0.021941656593463771535
0.021947550267158479065
0.021941597252192693995
0.021899554783912377615
0.021776198556242742921
0.021669265762034466832
0.021610202645311056557
0.021589107212670981262
0.02158726227392444505
0.021600920564986823835
0.021669493131054418794
0.021872136173905751266
0.022111568409297600868
0.022336456202400260806
0.02255328670433879093
0.022764455890881146044
0.030528458083792057998
0.030439790953802847023
0.030374634283010199659
0.030331802122071052641
0.030307496364447780723
0.030295977984733459681
0.030293802260446249519
0.030294394955650959939
0.03029750584648789255
0.030306387401775540524
0.030332034163805851601
0.030374642404494403558
0.030414699661512063777
0.030448773676522447595
0.030476445831512100071
0.030497240977823546204
0.030513039260703023886
0.030524168338268931056
0.030531764424849842238
0.030533445789384081742
0.020279374414484466899
0.020258481567506907844
0.02024765190268512996
0.020249013643508680105
0.020275937341955038024
0.020404863718495810238
0.02074945351685384895
0.021085870433041175448
0.021358248838914621615
0.02158205332864556944
0.021775864749594430608
0.021957235425786127136
0.022135869958018850739
0.022314943189279377173
0.022487721983000873854
0.022644970764685613818
0.02277813140810621903
0.022881320205721002864
0.022956169341424432356
0.023002824351505680306
0.023026602943590299827
0.023035218854528083376
0.02303662226996065765
0.023029606640595091938
0.022988713227723379245
0.022883063689495681398
0.022797073682585083237
0.02275082554829862061
0.022736405989157802005
0.022737958973351537345
0.022766367767934655997
0.022890020717032028008
0.023186017918102475727
0.023480972468849670154
0.023756082421002657629
0.024015759690246472197
0.032173125434030044878
0.032104053771941011564
0.032054397285763883141
0.032021468925731898236
0.032002568339318235302
0.031992445404793463937
0.031989620940070392918
0.031989471128181130866
0.03199092465927951684
0.031995599411838743231
0.032007895303872546666
0.032027853358919458615
0.032046807694149408163
0.03206316150572240814
0.032075755185478151132
0.032086221270409089057
0.032093859032842973755
0.032099606145215314745
0.032102587282811956282
0.032102275565386799439
0.021430933517378614878
0.021441706138257392994
0.021480622565837301924
0.021607940825580027044
0.021832240809018896299
0.022060342299933182603
0.022276204369542928346
0.02246310152241378158
0.022618897598840649599
0.022752902119110976487
0.022882292087862531743
0.023021263541728453905
0.023179789957795425559
0.023356699611472069023
0.023544289910516769115
0.023728992600906256144
0.023897024359705126145
0.024037092942640444354
0.024143522309920461416
0.024211729151981779135
0.024246035498635114952
0.024257131922866638496
0.02425702433574929151
0.024242810835156444055
0.024172119182818040811
0.024042050195832928572
0.023951121158036031006
0.023904877052374685908
0.023892154371950306141
0.023895521244821662371
0.023931069969226233252
0.024074585438938291004
0.024345138171634212593
0.024606835276554016312
0.02487324608969687309
0.025145704197258169493
0.033909673133758776176
0.033864809658010315563
0.033830706062234872089
0.033803205987788458031
0.033780341399299487759
0.033760238156543324883
0.033742902497882962254
0.03372731894772374589
0.033715052967974411258
0.033705453354589638704
0.033698561534500341696
0.033694012012127086408
0.03369024086660880879
0.033684690326495778101
0.033677551799125501897
0.033668976305007071448
0.033661701629995301188
0.033655188051131129656
0.033650751367521367086
0.0223189531332187302
0.022377818851397834887
0.022535985438687025639
0.022714999206339091253
0.022877563693253364502
0.023017741235409738126
0.023136347469655385578
0.023242002878945757643
0.023354192157969213411
0.023491535595350047927
0.023667781065495545334
0.023885184893913821713
0.024141992053770107429
0.024423174718666149779
0.024711281717418119575
0.024985781833905883892
0.025226479674357704663
0.025417686786367840734
0.025552911158164475641
0.025630007966226022592
0.025661328272829363878
0.025668036380504379718
0.025663499498984051334
0.025629844792187432556
0.025500177768585482324
0.025323870712735969263
0.025199217524799946005
0.02512749571840233731
0.025095792602133407817
0.025089647617156016907
0.02509497432358457833
0.025129410701188067273
0.025256589528605231931
0.025578754546738857734
0.035810951994508996576
0.035756010526673501215
0.035709567880602706424
0.035670810516584564032
0.035638732878907848634
0.035610740917439563658
0.035585545256676030801
0.035561475973513861915
0.035537956358576545945
0.035514454357820697539
0.035490861505647140761
0.0354682929256995641
0.035445712379992520835
0.035424889326449014726
0.035406392388007044969
0.035391730606837992767
0.03538133951084938833
0.035374901000646975791
0.035370901406339798345
0.03537009380316242374
0.02322903685676048699
0.023227750072513118906
0.023248021207344430478
0.02334326517364447226
0.023550842819445680365
0.023757756018851591828
0.023968146610090244886
0.024185743013413692898
0.024414001011934475388
0.024656691162025429209
0.024914996842971461749
0.025185731613467828016
0.025463132861905306975
0.025742153288262487054
0.026013050192259409149
0.026265361421954735999
0.026488256384337119376
0.02667223064321165224
0.026809644081557879036
0.026897434446056148194
0.026941456699753431325
0.02695547999869039868
0.026955514857741998819
0.026942328172923947494
0.026876041536022091116
0.026715931050818063353
0.026583943805544602013
0.026504441820434807009
0.026468696735508660811
0.026462568662076017822
0.026470985779044501479
0.026522855111312308024
0.026717358945919065377
0.03751226732207437603
0.037478536082382496453
0.037448613792708952686
0.037421490889773444122
0.037396347403464536008
0.037372998535649334939
0.037351306364663716675
0.037330583333829471526
0.037311521271845532466
0.037292928737281724749
0.037275900975981123009
0.037260624001012640494
0.037248294922613778279
0.037239225246630897059
0.037233998100443095602
0.037230868301881853144
0.037229820059916658714
0.037229870766845113428
0.037232158945009377615
0.02470546644360029076
0.024703332424688091706
0.024710583582215579074
0.024743375533246562969
0.024837712553319370862
0.02499597734094320331
0.025188846785729499672
0.025418645460557418719
0.025684379933850257777
0.025981694997601896546
0.026302831218621959553
0.026637128845359795554
0.026973609513198444632
0.027297794473734208337
0.027595882090795602337
0.027854853246693490887
0.028065925571165575153
0.02822302415562043254
0.028326395777084602268
0.02838093862079422991
0.028400283863838707288
0.028402375623480451833
0.028393278666853417197
0.028340333913151299905
0.028189445462333512227
0.028056969069776518944
0.027980798904666676075
0.027956047861954481243
0.027957188715105128762
0.027989894059806362525
0.028139414787187923966
0.028574257802289566854
0.039537563091700499152
0.039494239714728082702
0.039450526500742183478
0.039407040187819576682
0.039364663931095292271
0.039325383918108837433
0.039289519031190864307
0.03925884236426063767
0.039233280597565714509
0.039211706011699862251
0.039194121946168287984
0.0391799633463028249
0.039168241232911377159
0.039158428902674388694
0.039150684444038609533
0.039144975651187026433
0.039141675009961400533
0.039138813826251360461
0.039138978924409741078
0.025887291353874762601
0.025885668181146306854
0.025896379404788828077
0.025947255161789365557
0.026110973549226191431
0.026367505635482332838
0.02664485700887923858
0.026954801186253901646
0.027300831347705906832
0.02767680115399803395
0.028070515689270301302
0.028467675736584520385
0.028850153911069854884
0.029199373617116410745
0.029495194729422288815
0.029725044985820493759
0.029884966554637657637
0.029977604431328307849
0.030016916661644115621
0.03002659919896885285
0.030023618880194360287
0.029999061587614721247
0.02989376321580939147
0.029705449866886380478
0.029563434708071947843
0.029478679741140212389
0.029441913145193739088
0.029437313621996710755
0.029450084138351814017
0.029520754204393959835
0.041588428229798572733
0.041523026737189230873
0.041452704216083630095
0.041380369732736864419
0.041307637172502083278
0.041235496509532738874
0.041164733722691429496
0.041099097757334820957
0.041039226982207382965
0.040988242234454255741
0.040947002285411697453
0.040916416630755327033
0.040897004202403157425
0.040886270137182385842
0.040882215353941299407
0.04088235453026292654
0.040883963266513903556
0.04090026049214837145
0.027205923989274172908
0.027254017361179393858
0.027365749158950056219
0.027559443563458282944
0.027820577645631585501
0.028134216429880662402
0.028472457435667689052
0.028818333013983656044
0.029168170817811048257
0.029519936452408537808
0.02986162816768200487
0.030183178618560270456
0.030481369606082383411
0.03074948601149407254
0.030977749665545055435
0.031153610384917689718
0.031268192710136137602
0.031324199315333214888
0.03134195540412391956
0.031343394264514996828
0.031334986891526965536
0.031289509730237093088
0.031149366321455363577
0.031002786541705514706
0.030905956860365905309
0.030858868985104238869
0.030850384194925084547
0.03086060655133825506
0.043637218720169367037
0.043545639268224127505
0.043452754842861616991
0.043361579985274706361
0.043277687150791069315
0.043206350134012021236
0.043149906560321575621
0.043109593512052180042
0.043084554673033390038
0.043071327947752015286
0.043066129211980899716
0.043065213015256773033
0.043065709604681513822
0.043068060683138766065
0.043075147833946551834
0.043104879519777948571
0.043141568948952102591
0.043239782731370954294
0.028912877261016909497
0.028932743640630899373
0.029025878325077848069
0.029336099717112686103
0.029766216644934222202
0.0301394576256021271
0.030434240703680580376
0.030637814414931002077
0.030770120035392159452
0.030876409212138987426
0.031000231801012571864
0.031158669334441613241
0.031354403792217204472
0.031571871816863751603
0.0317937394464959458
0.031996281736618281677
0.032166191806248002616
0.032294149065665800347
0.032373008060293063937
0.03240454302414431248
0.032409905116711344719
0.032402354203794787868
0.032359932332625851448
0.032309499395879993922
0.032290744954241834552
0.032293497408527542525
0.03233503332903852473
0.045421612350239316813
0.045377067434996025408
0.045330496631401893948
0.045282197183653699613
0.045232833350072887413
0.045182060543266566732
0.04513133327307158188
0.045079976464855370244
0.045028074390306059571
0.04497768096412334965
0.044929820595087599511
0.044885154570354267312
0.044845092036436474958
0.044806174129300983811
0.044775064869407486812
0.044743869560250192075
0.044720877867061685496
0.030372040618072006224
0.030654601027500557459
0.030948054136007811799
0.031228404220670216013
0.031446731811187490779
0.031572944980883699273
0.031617295501549569359
0.031617905186245638671
0.031586650398374285786
0.031437854210823193424
0.031125410205199408736
0.030898644236989684236
0.030777764192607248717
0.030742954632884469945
0.030745627647288480827
0.030791982050312249886
0.030992713528495089564
0.031546708159383242409
0.032126891222282225047
0.032608294580957201958
0.0330116212833900316
0.033363381518336940323
0.033670530637220558168
0.033934241843800512506
0.03418051109696541856
0.034438257560649103428
0.034703023542115095379
0.045484194635026842235
0.045482817542965105206
0.045478776650980157203
0.045467039874384815312
0.045430217887311066804
0.045348867061813159796
0.045232792903764015846
0.045141754402703508642
0.044991988705316225683
0.044902193742351992345
0.044731579969342731562
0.044638655172466221166
0.044463234414158732399
0.044377125082558012414
0.044174980242742356573
0.044170201065580311228
0.026059995588054760129
0.026377358738536936522
0.026569017790087946784
0.026657238358974152254
0.026677153623180689668
0.026671193306557691716
0.026623685425494446333
0.026437976103387154925
0.025993770561809362296
0.025589841883946175261
0.025292583522814281877
0.025102885903096908149
0.025004118501827918286
0.02497012051443393485
0.024967152639106270778
0.024979932268458664851
0.025041834478655940199
0.025253544899207665958
0.025860046728690393864
0.026671335102636826997
0.027479136741861615034
0.028246755060192266229
0.028927400378752847476
0.029468551976759387728
0.02984545535690231316
0.030062031773338080548
0.030152383484398248559
0.030168316237271064484
0.036160231939090896336
0.036161862653882541341
0.036161910597193605565
0.03616070466634027647
0.03615606389430495865
0.03614161420184260759
0.036111412766813698327
0.036029197804049950538
0.035970174058551802887
0.035863860905418293301
0.035805563588896943683
0.035698214305623081344
0.03564508737731531679
0.035519091576101544105
0.035538496471882174976
0.023655115728977587491
0.023936649352698156218
0.024173777763342764457
0.024350503458209327157
0.024458307726076818772
0.024504649327646753354
0.024511270680018217016
0.024501612066998256639
0.024445200793459371386
0.024301955220266509977
0.02419780659810539733
0.024150073322052149905
0.024139809511324588492
0.024145165948977351245
0.024183636968068578099
0.024320955613533468825
0.024543111284739318328
0.024782226037097714738
0.025055381441158503658
0.025362583560698055002
0.025696926005175122626
0.02603792979639118349
0.026362166189221068746
0.026646973062379526037
0.02687947948714444063
0.02705281072640627546
0.027174101326155618991
0.034339597385119387252
0.034329746248679925136
0.034305265502572152014
0.034287842846275631836
0.034258229045599247753
0.034242015696577900175
0.03421444507624228637
0.034199573350483743195
0.034171817104387984532
0.034155745994462596848
0.034122962364623012077
0.034102520033791584864
0.034048871658181975586
0.034045671417462175512
0.022580846273681860065
0.022780051299059262543
0.022923027154495227709
0.023004557923316223955
0.023033917135532683274
0.023036025010570958943
0.023022280815370825546
0.022958883356489118849
0.022893536402104827654
0.022869483334845060879
0.022869420925991763849
0.022896096593299299776
0.02302372844206887828
0.02324278849802838276
0.023409153263240532056
0.023534044962458700034
0.023644389955461479064
0.023769904078929756513
0.023932061329865562949
0.02413946836336313545
0.024393600076514448949
0.024677993455082640473
0.024973663735636180555
0.025260995628861505902
0.02552025456422485003
0.025732862937732244729
0.032995066584021078004
0.032963312629478387639
0.032938400107631507496
0.032907210731463139297
0.032885110157169265832
0.03285894136552102579
0.032843849477948071358
0.032824560549761135075
0.032813997281646162252
0.032796928527760726979
0.03278665973393297961
0.032758452279762192982
0.032762849978267907791
0.021717809953664225092
0.02176911562260996566
0.021798903644106793626
0.021809144059303089275
0.02180984238555690527
0.021803765068298307239
0.021793840798235517703
0.02179498599999179706
0.021816704003810544893
0.021924616815333503039
0.022153451588445224191
0.02233677279895880316
0.022476901839039570979
0.02259107837797656726
0.022700640359563414861
0.022823977003066382718
0.022978272988312269803
0.023166052093329100869
0.023384307833247786751
0.023622164236348199007
0.023861809327725164165
0.02408588415448643244
0.02428150313547891917
0.024440428623761396854
0.024559816132376944414
0.031740274469055668183
0.031706922894975606009
0.031673963314765712918
0.031645421711350964211
0.031616318105844247455
0.031594337114216441975
0.031574468434365468572
0.031563820305046674797
0.031553179547204907029
0.031546957323828894726
0.031529178782001801573
0.031535513656910804658
0.021062128943546493814
0.021102842950627222901
0.021124275136793300295
0.021131098070863083699
0.021130046704540477592
0.021119087633356681266
0.021110744681656107291
0.021113685440190117087
0.021141965878348174118
0.021262465925790792476
0.021444355754987071139
0.021581804688032817791
0.021688882333800375835
0.021782652393633139543
0.021882906548974869615
0.022006136673204772236
0.022166277111225322211
0.022362589579934394335
0.02259089952085895775
0.022838733080748928328
0.023091397726263309526
0.023337330996370461711
0.023565511335404562554
0.023766325638905214795
0.020432442389307272496
0.020446437968265413626
0.020448999261762329516
0.020443328334253236395
0.020420925569917671577
0.020408172583998643312
0.020410278258629434289
0.020437029566355336546
0.020561260025328625956
0.020792430630932508262
0.020965921959687761761
0.021086326984331431322
0.02117504439226566143
0.021259915258719275927
0.0213638426433023082
0.021502685830998222172
0.021678843876162420118
0.021890993392105463633
0.022124936827664535427
0.022366163052842197301
0.022602426315654931127
0.022818470256641906063
0.023003091291344254093
0.019683184221894089311
0.019673222216047548533
0.019650997655920598994
0.01964558875521555531
0.019652354547276398161
0.019700118845147572555
0.01988050514765765317
0.020095404085551524936
0.020228000729335726682
0.02029506181255604641
0.020327809302832778454
0.020364038944051129909
0.02044046941508147891
0.020624851582532351818
0.020896216450316452973
0.021194732853952031465
0.021484158570313608566
0.021728971274514140288
0.021910826892330877158
0.022024386352998776006
0.022084191435990847135
0.01907182000825810228
0.019175054641793649879
0.019284823128270754677
0.019390134022137506947
0.019484506841018607581
0.019569259236499228494
0.019655980214476446999
0.019759333371908525262
0.019891714387165491951
0.020053874394884547983
0.020242202109754227346
0.020442822437582153922
0.020636986870681134354
0.020804971540690136989
0.020937026076086918958
0.021030344257381625855
0.021092222012849076718
0.018878788195938824707
0.01900528915591424145
0.019109721007382920316
0.019205477664262532445
0.019308485905713320546
0.019429573582837676021
0.019571143131174143642
0.019724236602843787936
0.019882116049765658633
0.020030708521470558942
0.02016734918485226305
0.020293660472723466098
0.020413459781866549053
0.017954526468697246111
0.018078603434507078268
0.018182744990901684307
0.01829368205262675573
0.018433160830132064301
0.018608742497877760885
0.018817266860090515329
0.019038477327598210542
0.01924627421024273366
0.019424995363353934202
0.0195619483971100315
0.019659907130420001958
0.0098067100339228486378
0.0097047319413347578332
0.0096893674781340661389
0.0097019580064883117337
0.0097708535783210676007
0.010020385698143259925
0.010807122708461991065
0.011930968478757644768
0.012916718277399413112
0.013731251947657775042
0.014352085384302852231
0.014775950271633609204
0.015017626704891994666
0.015121029460566688327
0.015137383609382290203
0.015122309186965630923
0.015036148536970975545
0.014708520431272287948
0.013952215229665984597
0.013296005918210127353
0.023715497060408572555
0.02356075007810621777
0.02355762629259933183
0.023616307545193011841
0.023820055957920017314
0.024414728954559608565
0.026000342508247793749
0.027824605125509695169
0.029411029786398742991
0.030724377627651483502
0.031768926822674528609
0.032545890143872345524
0.033071366896777650013
0.033366118854128587468
0.033491790196006891722
0.033500754750134704996
0.033470734779640305689
0.033343547568421873228
0.032920886057613847619
0.03172696678422254335
0.030372443788639982148
0.029328715784515839438
0.084036065365567652607
0.083990342122190433938
0.084126134239398020487
0.08456672073993300176
0.085377122262535437569
0.087129332922997515531
0.090757079500530885019
0.094673515323168297431
0.098287420375322676058
0.10141601664883781453
0.10399049550860930968
0.10606721165511545646
0.10766728065168522377
0.10879617999335011724
0.1094374717706072947
0.10972640085832699453
0.10974153085808767416
0.10963903514698754293
0.10932621906122060029
0.10842124500320697578
0.10698884974271223591
0.10612570150855245299
0.1058765642433213694
0.10586930111993403392
0.10600899625993001618
0.10646815716556934373
0.43555977725504008147
0.44208944304565189753
0.45209585552714809387
0.46398237193785063504
0.4774178523533991747
0.49172745843970894208
0.50585676672203627735
0.5187642873493475415
0.52977755198422871175
0.53867705099871565633
0.54561928806729664831
0.55117461911285370313
0.55591355143435761121
0.56006323359978904541
0.56360998580646404221
0.56637256014827153106
0.56822790732416073034
0.56922972176576203118
0.56965305237046515163
0.5698973363386343749
0.57032411888282064094
0.57140682070544090987
0.57416717664823690992
0.57944371676043981978
0.58650483894885319103
0.59505257732611549493
0.60474823608181282886
0.61509293660870412168
1.97240271673028289
1.9878744176644425057
2.0056269605256780153
2.0251875643314130038
2.0456714816515519928
2.0659716274535906422
2.0848805523850368893
2.1013663005476153067
2.1148307447519592017
2.1252355231845920791
2.1330083636717671602
2.1388387673545361523
2.1433635889497040239
2.1469375508667942754
2.1496600278727808764
2.1514256998310368196
2.1522863090284904963
2.152596621967627577
2.1529410824852379669
2.1539455796420727829
2.1567131865454194362
2.1618868890321758514
2.1694455709547226796
2.1791949606535734318
2.1905585605248001357
2.2026297938732688486
2.2146323321665071227
2.2257765741664425896
2.2354995843428864255
2.2434378957373102281
4.4230015411232939115
4.4192941629627560118
4.4145901633849566892
4.4083445382850268146
4.4001985545690907031
4.3901416861440356598
4.3785011333773748987
4.3658429704476500177
4.3527026672486819336
4.3394778903441926232
4.3264040620855732655
4.3136519739696632669
4.3013527344412851861
4.2895906427764201041
4.2783226630267003898
4.2673999726822886558
4.2566743695231323841
4.2462134916497964454
4.236275854415427311
4.2272072091920929182
4.2192105604863190393
4.2121733646317158772
4.2056486698069530661
4.1990322377221831474
4.1917366778514484338
4.1834174948140239181
4.1739576196288821208
4.1634045685594509578
4.1517586511175270658
4.1390778225773727783
4.1254149743304981968
4.1111248033151293058
6.1441334410191297266
6.1154744567114036613
6.0868838160791360892
6.0579548523079882472
6.0286186013941076567
5.9992051199836913256
5.9702659985634189965
5.9422058999018716463
5.9150326675987603409
5.8883030829168525599
5.8615269833913297148
5.8345583505957616666
5.8076789595964850577
5.7812999627523238289
5.7556556793959279261
5.7306288355619061647
5.7059074610707396502
5.6813029271990220792
5.6569007002435522935
5.6329599556212484046
5.6096614584308639451
5.5869038982499210633
5.5643267529351216893
5.5415576019124825891
5.5183796774926392459
5.4948214020890944198
5.4711176397693153106
5.4474828404526531855
5.4240077820021257438
5.4007046381740231311
5.3776192818928878481
5.3549626048287697344
5.3329717606659761131
10.372916052737195969
10.271906235917471761
10.17379713853534895
10.077965369835473197
9.9840411046172956588
9.8926657582262809143
7.0573460901502063081
7.0201496360277246822
6.9829591650997437924
6.9452766038122817349
6.9070586538137765942
6.8688084271082638921
6.8312557615711915204
6.7949061391106733154
6.7597053939609272888
6.7251089110991495446
6.6906004300499484216
6.6561243544358337232
6.6220981714426399023
6.5890267034621317066
6.5571079021684663957
6.526037236407976394
6.4952854659260843562
6.4645409227252672579
6.4339964319845508456
6.4041276101905992846
6.3752705700705991632
6.3473513324924679679
6.3199048364484866624
6.292447296104549892
6.2647215650588963243
6.2368522711868648045
6.2091549678591890782
6.1818463993494612296
6.1549399476294466282
6.1283561429436774759
6.1021646539877538729
6.0766056163867476769
6.0519746756305643487
6.0282219791806674891
10.199113273457676598
10.081494662921391736
9.9636705080286045444
9.8468024986838926793
9.7318482991694601481
9.6203164773819764832
9.5136282058226750991
6.3752925527449191279
6.3346608928730185895
6.2933373899026916476
6.2520595732198023242
6.2124360782153171812
6.1759828211581480062
6.1432114238931321282
6.1134016623502933641
6.0851424152100319631
6.0572554598770027567
6.0296326620941673724
6.0031364955656005833
5.9787399104526741667
5.9566173441347576301
5.9359405972709931021
5.9155807946877576597
5.8949658603590124883
5.8744303047376380533
5.8546950655618328341
5.8360069927744984142
5.8177573796185741983
5.7987952877840607258
5.7782219104509318086
5.7558874566243725113
5.7324608691213096989
5.7089498725505611887
5.6861047517669431883
5.6642615205025936831
5.6434212555104767972
5.6235409534906013462
5.6047268205539220176
5.5869968651453794095
5.5699567763706978596
5.5527647269288493703
5.534564375182237761
0.00010906166650626554818
0.00010475684252081087367
0.00010091231424755942373
9.7454614567929836685e-05
9.4307086454191899299e-05
9.1424793344402403806e-05
8.8768401974930271855e-05
8.6452023996686587341e-05
8.4201189765927868182e-05
8.247722856899888206e-05
8.0554701566222991277e-05
9.7167496406475739471e-05
9.7249325837170982455e-05
9.7160071940574494463e-05
9.6881907308444029613e-05
9.6460447724183148504e-05
9.5618944909334850353e-05
9.3638118289793637115e-05
9.0712050754729664634e-05
8.7504585650690996056e-05
8.4376215081844797069e-05
8.1614502926353796309e-05
7.9423634972005451396e-05
7.7871009909642198953e-05
7.6921317387522897572e-05
7.6411188271255503089e-05
7.6154904607780857045e-05
7.6054961989652854377e-05
7.6047154102900022324e-05
7.6166546251202083559e-05
7.6965707205191942388e-05
8.0393775648574639743e-05
8.6195206126429060054e-05
8.9868412240385302106e-05
9.1389425418730139039e-05
9.1631923084496498988e-05
9.1432655497132337297e-05
9.0637568350838661679e-05
9.0170399009510516868e-05
9.0159121002372593062e-05
9.0523237087081291066e-05
9.2148328378871118558e-05
9.4085937526582264683e-05
9.5195912266615709588e-05
9.5693683001246481953e-05
9.5836241067998227347e-05
9.5838994229828280698e-05
0.00021973282921222055141
0.0002048408006230925595
0.00019108764890455226569
0.00017848098760211552412
0.00016700188018226112385
0.00015659970096516541123
0.00014719474502646417405
0.00013869049595289232235
0.00013101399493412735483
0.00012408019366533554976
0.00011785303969335259315
0.00011222835028394338166
0.00010716817550828452901
0.0001025882170362881938
9.8499173805624928402e-05
9.4911633709080924317e-05
9.1665028951196106323e-05
8.894163293522373739e-05
8.6383515667999284486e-05
8.439608716371704985e-05
8.2442641207935198891e-05
0.00010570737937657873192
0.000105724518569120363
0.00010502403119805022239
0.00010210406549290188362
9.8753110314968336309e-05
9.6650604361863984727e-05
9.5312452431155756695e-05
9.4164921404598508838e-05
9.2817661989087762737e-05
9.1212014007415704122e-05
8.9504841566801057718e-05
8.7846952133439852443e-05
8.6376340021482338931e-05
8.5164894962815553187e-05
8.4191709449802637076e-05
8.3427210194717086331e-05
8.2944554369268817221e-05
8.2803658431923065383e-05
8.2900276762800457955e-05
8.3743767014248326574e-05
8.7552224141673677779e-05
9.5225765127916614993e-05
0.00010047368430945798783
0.00010290421029741258401
0.00010344175443763508682
0.00010323889587786911205
0.00010176332616348448038
9.7820092359343421427e-05
9.4782460395571562287e-05
9.3065071735100787505e-05
9.2236214748567116675e-05
9.1888884439074005662e-05
9.1743632890136313815e-05
9.1629409409578341716e-05
9.1427751182723599084e-05
9.0969612584162448709e-05
0.00023169190580705280617
0.00021787292427233152597
0.00020508203377760797492
0.00019318729982533845821
0.00018206914251669569123
0.00017166232996079438893
0.00016188437808523426019
0.00015273474502954263515
0.00014414418686062269951
0.00013620035435736699389
0.00012876296283193902647
0.00012204776590892897679
0.00011576533016416491555
0.000110241068124445501
0.00010506478231784561843
0.00010068647231026051385
9.6563101750500037693e-05
9.3152478859110071207e-05
8.9990929414918667669e-05
8.7399392733442007441e-05
8.4967442653813765184e-05
9.3300924747997311692e-05
9.32078360366833409e-05
9.3210762429456032758e-05
9.3585069745268635003e-05
9.5495927898177056258e-05
9.9372191072932537738e-05
0.00010195600362253442604
0.0001031680892675137357
0.00010347734278993741175
0.00010345597583943054714
0.0001031446678131701201
0.00010179501159954178571
9.7641434571673916469e-05
9.2766656653545353757e-05
8.8922963563152783353e-05
8.6286577168412422075e-05
8.4953340957136613365e-05
8.4658326375365076477e-05
8.4869366403221379149e-05
8.6383293134395015508e-05
9.1609724476483602481e-05
9.6738620419760130292e-05
9.9332034786404202541e-05
0.00010008527862347635655
0.00010004254225052375466
9.9270298644151797095e-05
9.6526872456510225454e-05
9.3917166999241287863e-05
9.246530149061451371e-05
9.1817370012154330642e-05
9.1598438673651277247e-05
9.1555323498979611623e-05
9.1561798877822116443e-05
9.1581779396437433863e-05
0.00023444811743705598595
0.00021937040684908380977
0.00020532971871536727566
0.00019228063306425877935
0.00018018766466464382716
0.00016900111571996971594
0.00015867594550853279063
0.0001491484238659883583
0.00014040539420125282537