/*--------------------------------*- C++ -*----------------------------------*\
  =========                 |
  \\      /  F ield         | OpenFOAM: The Open Source CFD Toolbox
   \\    /   O peration     | Website:  https://openfoam.org
    \\  /    A nd           | Version:  12
     \\/     M anipulation  |
\*---------------------------------------------------------------------------*/
FoamFile
{
    format      ascii;
    class       volScalarField;
    location    "0.013";
    object      nut;
}
// * * * * * * * * * * * * * * * * * * * * * * * * * * * * * * * * * * * * * //

dimensions      [0 2 -1 0 0 0 0];

internalField   nonuniform List<scalar> 
106891
(
9.746138009342211346e-06
9.74039658178384613e-06
9.7364108237614873298e-06
9.7355527370759199708e-06
9.7347066665631909211e-06
9.7331662227863505703e-06
9.7306768788977821282e-06
9.7273905506702377458e-06
9.722979854116262785e-06
9.7189029856331414086e-06
9.7120751328619861964e-06
1.0125647813762623357e-05
1.0117284830976155415e-05
1.0103182644421560921e-05
1.0087624688235867729e-05
1.007777518609618978e-05
1.0071023930190808567e-05
1.0069038464960586448e-05
1.0085311224751385012e-05
1.0135345618647500216e-05
1.0180764156265017972e-05
1.0218484630200798497e-05
1.0252008064463782601e-05
1.0286262768528801534e-05
1.0323783947880160882e-05
1.0366819904726572784e-05
1.0413618783479205261e-05
1.0461464094388648471e-05
1.0506853973049627606e-05
1.0546146145619522141e-05
1.0576621369149649121e-05
1.0596338004029704481e-05
1.0605010852378585697e-05
1.0604188081181951475e-05
1.0598264020588290805e-05
1.0589490812808571006e-05
1.0572075037339455169e-05
1.053500782162467349e-05
1.0501762059732788204e-05
1.0480110422052758872e-05
1.0467684451381729149e-05
1.0459952558735434528e-05
1.0455961430940754163e-05
1.0465166872479183779e-05
1.0506543360207585612e-05
1.0556582149715406789e-05
1.0602776001403930556e-05
1.0646727831500614166e-05
1.0689036420383101186e-05
1.0369453517062747605e-05
1.0347165584835044358e-05
1.0328880797415102916e-05
1.0314404085712571737e-05
1.0303092843470764881e-05
1.0293969183939757382e-05
1.0286445658256166186e-05
1.0279401820763260154e-05
1.0272787804921871215e-05
1.0267150804456894213e-05
1.0264337704297660616e-05
1.0264410747616383815e-05
1.0264052160149506195e-05
1.0262678970543294305e-05
1.0260222628647388087e-05
1.0256605555116777163e-05
1.0252146553318108575e-05
1.0246903414488625343e-05
1.024107015606048814e-05
1.0234247659957533026e-05
1.0613439109050944149e-05
1.0600612328691957759e-05
1.0590401754409537545e-05
1.0583394203546690743e-05
1.0583017144927572733e-05
1.0609035921290691282e-05
1.069064069065825279e-05
1.0769562305520567958e-05
1.0831437963746566296e-05
1.0880533339788029662e-05
1.0921728663509121303e-05
1.095952417331924775e-05
1.0996380069135542942e-05
1.1033100627648221743e-05
1.1068040958114641124e-05
1.1098968938733021184e-05
1.1123847782232352169e-05
1.1141305431354951976e-05
1.1151797312359806988e-05
1.115540105454261753e-05
1.1153434200729419232e-05
1.1147784050229195862e-05
1.1140387554674531777e-05
1.1130977436712006281e-05
1.1113442486281124662e-05
1.1080223265320664046e-05
1.1051668159475203069e-05
1.1032748576080632746e-05
1.1021564552202529617e-05
1.1014270832142553753e-05
1.1013434778694200286e-05
1.1035454427719975054e-05
1.1098753412206079227e-05
1.1161406832098625752e-05
1.121882786093475412e-05
1.1272164700678261319e-05
1.0921898547960810129e-05
1.0902570067977232463e-05
1.0886550048489131187e-05
1.0873383943440861839e-05
1.0862613458287030972e-05
1.085334443465509608e-05
1.0845323239875724781e-05
1.0837764805513817746e-05
1.0830481269948289414e-05
1.0823745427844707795e-05
1.0818296828312330026e-05
1.0814153378651966147e-05
1.0809845399558699834e-05
1.080510182080292745e-05
1.0799726630587167848e-05
1.0793995553391476369e-05
1.0787791452735096047e-05
1.0781272878084863055e-05
1.0774293796810549819e-05
1.0766765210888722839e-05
1.1194341029788252445e-05
1.1189359902726982534e-05
1.1191671574714984262e-05
1.1216840295262952979e-05
1.126704393212083898e-05
1.1317884102044178506e-05
1.1365244268833623684e-05
1.1404930342404836024e-05
1.1436500917873343002e-05
1.1462390488427889654e-05
1.1486966648033895315e-05
1.1513790528094619653e-05
1.1545323412658502931e-05
1.1581225880025707489e-05
1.1619549812722692055e-05
1.1656937586142586047e-05
1.1690034025135529467e-05
1.1716137293869618245e-05
1.1733936420454971024e-05
1.1742382112816577796e-05
1.1742569451191293349e-05
1.1737116616791125342e-05
1.1728945390006100501e-05
1.1717398618399957628e-05
1.1692283824578393519e-05
1.1652684200271056167e-05
1.1622513913311826781e-05
1.1603186688633711218e-05
1.1592017819241689507e-05
1.1584767042232919777e-05
1.1585259532085840029e-05
1.1611682962576095018e-05
1.1668610600435719559e-05
1.1723012830622875406e-05
1.1778115759615251734e-05
1.1834224029419139799e-05
1.1496341596574541661e-05
1.1480743707014551478e-05
1.1466984969525819069e-05
1.145435871218324215e-05
1.1442529106357710958e-05
1.143117669592391705e-05
1.1420301553760322792e-05
1.1409730807048603437e-05
1.1399728930127763917e-05
1.139018640504325918e-05
1.1381109980293384646e-05
1.1372438505090004001e-05
1.1363908890751551591e-05
1.1355088637457329284e-05
1.1346008483110826473e-05
1.133669224191522454e-05
1.1327600731610271124e-05
1.1318643140453623982e-05
1.1310038117541590556e-05
1.1712832772500624199e-05
1.1720027035112758236e-05
1.1753096429834761804e-05
1.1791498240288168298e-05
1.1825413170472035812e-05
1.1853372055514562185e-05
1.1875642725205094776e-05
1.1894476005420831689e-05
1.191486539881324152e-05
1.194152755287800294e-05
1.1977879479881735795e-05
1.2024365693245979618e-05
1.2080398368406893876e-05
1.2142082521717086855e-05
1.2205005599139174836e-05
1.2264108374025929496e-05
1.2314529934886120086e-05
1.2352590041128413463e-05
1.2376869935324946324e-05
1.2386976288759673896e-05
1.2385971035048631275e-05
1.2379001532355168145e-05
1.2369324747570731199e-05
1.2352688128540473554e-05
1.2312981590378256139e-05
1.2261794513416864687e-05
1.222303512359588529e-05
1.21971047815282656e-05
1.2180905759176261578e-05
1.2170934347347141195e-05
1.2163752659770333072e-05
1.2163581439526681703e-05
1.2185683882246850645e-05
1.2254476949646721801e-05
1.2129890549195906888e-05
1.2112159071462638514e-05
1.2095879438424085516e-05
1.208091355269580184e-05
1.2067091064031176565e-05
1.2053971879850705973e-05
1.204133652779953924e-05
1.2028901881854304389e-05
1.2016570110702263645e-05
1.2004251570891497802e-05
1.1991927664074948748e-05
1.1979787845814278088e-05
1.1967657105815832842e-05
1.1955833459487189935e-05
1.1944412426001932415e-05
1.1933647472229337366e-05
1.1923611360676158647e-05
1.1914249909176460564e-05
1.1905306009294960859e-05
1.1896905548238573372e-05
1.2260032603233223043e-05
1.2251154576887180706e-05
1.2247920785049318905e-05
1.2264299560655106858e-05
1.2310095048181355604e-05
1.2355477112067291364e-05
1.2401451160155082889e-05
1.2448972055750082938e-05
1.2498894999825371831e-05
1.2552136626960754898e-05
1.2608939275672316257e-05
1.2668443584082014216e-05
1.2729162154469942102e-05
1.2789823188836961485e-05
1.2848026366824870956e-05
1.2901246149291158093e-05
1.294691565302765436e-05
1.2982828716880570377e-05
1.3007246607619496958e-05
1.3019530393139910421e-05
1.3021169781035391065e-05
1.3015533619472944473e-05
1.3006508420340315342e-05
1.2994324897502703296e-05
1.2969420620812564338e-05
1.2921802552659766286e-05
1.2880842262985990162e-05
1.2852588508291542613e-05
1.2834960566891323699e-05
1.2824540474981338341e-05
1.2817645959592272818e-05
1.2821199162642332492e-05
1.2858926302832387477e-05
1.2728653247499031276e-05
1.271409354254011864e-05
1.270019196377420901e-05
1.2686776043903975417e-05
1.2673705499209332367e-05
1.2660948074004911825e-05
1.2648480430767017614e-05
1.2636185883797643265e-05
1.2624182291869814329e-05
1.2612268309576900226e-05
1.2600628799015776911e-05
1.2589295231662883816e-05
1.2578469519268383243e-05
1.2568203657021809652e-05
1.2558595932513431971e-05
1.2549350743217542003e-05
1.2540463925675975431e-05
1.2531769100788771646e-05
1.2523454421380033377e-05
1.2963415753031657982e-05
1.2953823994539134746e-05
1.2946692075976076099e-05
1.29462263794612627e-05
1.2961785911635434338e-05
1.2993959799636103095e-05
1.303491396487684995e-05
1.3085121105920591078e-05
1.3144178621418583068e-05
1.3210824809449585077e-05
1.3282959409218531279e-05
1.3357804041840500606e-05
1.3432573097280873657e-05
1.3503688625397579175e-05
1.3567827254054045687e-05
1.3621927948473212876e-05
1.3664007522948825059e-05
1.369274530021595253e-05
1.3708330580117223508e-05
1.3712037622460124879e-05
1.3707209329122687733e-05
1.3698201034369073144e-05
1.3686514609027553249e-05
1.3664338409343834891e-05
1.3618529244070217256e-05
1.3577000158586569181e-05
1.3549089477467039837e-05
1.3533651557775425677e-05
1.3524512374711582274e-05
1.352295487013640273e-05
1.3549391911829764714e-05
1.3643921340903777216e-05
1.3407576847509070764e-05
1.3390930236375964862e-05
1.3374227757715881324e-05
1.335757419050472109e-05
1.3341118304820799023e-05
1.3325196901799724042e-05
1.3309863888488884242e-05
1.3295419512979165274e-05
1.3281852824940053914e-05
1.326897280105482108e-05
1.3256779356035599035e-05
1.3245176811176921991e-05
1.323399726681068325e-05
1.3223150421279084143e-05
1.321266198339980335e-05
1.320252555971245072e-05
1.3192804114516941264e-05
1.3183163722850752854e-05
1.3174039809328659244e-05
1.3605458320232996752e-05
1.359555529987342359e-05
1.3588891667744065062e-05
1.359271425495814645e-05
1.3625906578727398218e-05
1.3683161610179792056e-05
1.3745373629560155262e-05
1.3815458414837474428e-05
1.3894159399300324523e-05
1.3979753111932069362e-05
1.4069038374068434301e-05
1.415837891952741874e-05
1.4243301220025436659e-05
1.4319345876311862531e-05
1.438177455687277737e-05
1.4427757128816377633e-05
1.4456550421258447794e-05
1.4468954004174932945e-05
1.4468429001065362036e-05
1.4460731023510024667e-05
1.4449978525001959672e-05
1.4434076927052597627e-05
1.4398856183010323094e-05
1.4343463044099455392e-05
1.4299152505375821966e-05
1.4268675161433981002e-05
1.4249831385088238973e-05
1.423880379878478657e-05
1.423197179780954278e-05
1.423903376885921503e-05
1.409873361996235848e-05
1.4077869385625652141e-05
1.4056181137835766417e-05
1.4034160775318900219e-05
1.4012083341974660997e-05
1.3990117727443712845e-05
1.3968396222309386424e-05
1.3947555552760508322e-05
1.3927705068950207315e-05
1.3909374543508685483e-05
1.3892710588097081689e-05
1.3877866472190884876e-05
1.3864929989148715544e-05
1.3853477051691453622e-05
1.3843166668387352908e-05
1.3833577075568941815e-05
1.3824242375048910019e-05
1.3817386056246017619e-05
1.4300374847428691253e-05
1.4303015238188549225e-05
1.4322260044587838726e-05
1.4362813409001474457e-05
1.4420627255615401543e-05
1.4491588657293844329e-05
1.4568308536880901106e-05
1.4646343922593214168e-05
1.4724732635715937377e-05
1.4802962022466805008e-05
1.4878055836940986054e-05
1.4947576670983711995e-05
1.5010828474291154107e-05
1.5066272894112830926e-05
1.5111644229445256961e-05
1.5144020832460830338e-05
1.5161377486911864083e-05
1.5164465306188222121e-05
1.5158257525488245216e-05
1.5148087204982643375e-05
1.5135557852952559254e-05
1.5114142993971911282e-05
1.5069886075967079444e-05
1.5023905901610697596e-05
1.4989960016111075942e-05
1.4968087576457431387e-05
1.4955611584145411095e-05
1.4947678217494575039e-05
1.4817418378775507967e-05
1.4791588830825261132e-05
1.4765544495065195769e-05
1.4739796190673435072e-05
1.4715290837007784301e-05
1.4692928808809305958e-05
1.4673111753709213836e-05
1.4656052293116993683e-05
1.4641605914555509395e-05
1.4629182927301607315e-05
1.4618137936267145967e-05
1.4607831817854982179e-05
1.4597773603340184824e-05
1.4588033884298582093e-05
1.4579096307638996722e-05
1.4573967623033626896e-05
1.4570028591498842586e-05
1.4576467496323015959e-05
1.5115073796942018957e-05
1.5109728008754280616e-05
1.5123380677007180312e-05
1.5193138209234916401e-05
1.5293534207511279548e-05
1.5378520479411259567e-05
1.5442910401355999393e-05
1.548379713959635332e-05
1.5506460299800357811e-05
1.5522424529079246883e-05
1.554267967166491146e-05
1.5571482251696787939e-05
1.5609432375004976551e-05
1.5652578408620497681e-05
1.5696581466178635955e-05
1.573559501349463608e-05
1.5766407379853196935e-05
1.5786818607837797363e-05
1.5795162936555585216e-05
1.5791928115349299419e-05
1.5782294158238287154e-05
1.5769525654165368416e-05
1.5748309868335640474e-05
1.5725079526749710624e-05
1.5709569061717793307e-05
1.5699311833669278658e-05
1.5698418776213713023e-05
1.5499621962396382252e-05
1.5481264005297833819e-05
1.5462571460916516123e-05
1.5443596674425330226e-05
1.5424454633977576341e-05
1.5405087384325160787e-05
1.5385744021865004706e-05
1.5366310847224488097e-05
1.5346801003855385225e-05
1.5327562548215259544e-05
1.5308770293482421254e-05
1.5290534552057773946e-05
1.5273096459380268989e-05
1.5255862732689857338e-05
1.5239970349400359972e-05
1.5224074131788427512e-05
1.5209586144462830407e-05
1.5905400459943923644e-05
1.5968102665054697452e-05
1.6033211238420070293e-05
1.6094529392792534552e-05
1.6139572145416455277e-05
1.6160806801573663997e-05
1.6161005266674700052e-05
1.6149969750097386894e-05
1.6130845353742847344e-05
1.608185017116703819e-05
1.5990629266493361875e-05
1.5921085645906801536e-05
1.5878761214285015186e-05
1.5858682366891597971e-05
1.5848326711500296162e-05
1.5849157982830292251e-05
1.5889396849575475638e-05
1.6019335564881884891e-05
1.6154887866719749238e-05
1.6264284297129527824e-05
1.6353282791315223868e-05
1.6428830385408830345e-05
1.6492879466186265023e-05
1.6545882836166010248e-05
1.6594286460357368385e-05
1.6645157067243231976e-05
1.6697425681724718729e-05
1.5902511047900115386e-05
1.5891228523020440406e-05
1.5879488870898256242e-05
1.5866424939920091423e-05
1.584903118743261779e-05
1.5823884946803713612e-05
1.5792650835066711536e-05
1.5765818790591713155e-05
1.5728720788821504525e-05
1.5702124687434981337e-05
1.5661390070289675389e-05
1.5634256244187862226e-05
1.55926682316787676e-05
1.5566740335220340227e-05
1.5520444448874927401e-05
1.5508816166423796892e-05
1.2825635414722574585e-05
1.2894671455226025528e-05
1.2932572867952056141e-05
1.2945129044984125924e-05
1.2941027115980844307e-05
1.2930625309040005928e-05
1.2910214369774862777e-05
1.2856419231251717272e-05
1.2739249842228549925e-05
1.2630992767211055602e-05
1.2548585134866450418e-05
1.2492650013902071972e-05
1.245930174991350192e-05
1.244212144278219376e-05
1.2432715573112439436e-05
1.2427227387781841617e-05
1.2433882489520920161e-05
1.2477392825235281062e-05
1.2617108360988974194e-05
1.2804618527190274256e-05
1.2988111794011724214e-05
1.3159226074472592368e-05
1.3307724340058420994e-05
1.3422471083691003604e-05
1.34988306112615676e-05
1.353846080371633096e-05
1.3549475764484573363e-05
1.3543685872999759785e-05
1.2334973983528038456e-05
1.2326689483174571094e-05
1.2318139504637532056e-05
1.2309384187307357514e-05
1.2300055289937242907e-05
1.2289078539042523567e-05
1.2275440931965293741e-05
1.2252989603041497752e-05
1.2234453540774692894e-05
1.2207881181426327632e-05
1.218948747701605734e-05
1.2162747174273811715e-05
1.2145250919104694058e-05
1.2115337936875765406e-05
1.2110227827468210955e-05
1.1978220322067980921e-05
1.2040962714144746551e-05
1.20921198944909083e-05
1.212789236688744998e-05
1.2146347864971259703e-05
1.2149465084220898009e-05
1.2142692477863926531e-05
1.213189200148255969e-05
1.2109594174040234387e-05
1.2065719115058259284e-05
1.2031409599674004765e-05
1.2011136274393546068e-05
1.2000212215853776866e-05
1.1993186257629903061e-05
1.1994332880042921205e-05
1.2019834001641398422e-05
1.2066199950956153463e-05
1.2116392215714508687e-05
1.2174492488258367847e-05
1.224037063065131849e-05
1.2312224737672075635e-05
1.2385062245476165883e-05
1.2453325481701761981e-05
1.2511778255639413105e-05
1.2557580186196607114e-05
1.2589311019656417663e-05
1.2608787171232946377e-05
1.1783037752612126391e-05
1.1773175190322407202e-05
1.1760818200980386499e-05
1.1749671247325539237e-05
1.1736444441567381357e-05
1.1725522026799327916e-05
1.1712664702092903175e-05
1.1701990310833871477e-05
1.1689120712864157611e-05
1.1678259471967731442e-05
1.1664550530642682014e-05
1.1652960353682682013e-05
1.1635707114289479874e-05
1.1627081606802335451e-05
1.1471983891067708141e-05
1.1514535679303471551e-05
1.1542668956395117237e-05
1.1555217777717097596e-05
1.1554604022138327958e-05
1.1547122114544594237e-05
1.1535689833982780363e-05
1.151185819040819281e-05
1.148744519228627675e-05
1.1473404447797337373e-05
1.1465409955349174255e-05
1.1464069706524012774e-05
1.1487821608861900041e-05
1.1534345575676449496e-05
1.1567563546291246044e-05
1.159035509586361645e-05
1.1609426432689617305e-05
1.163208767477653858e-05
1.1663549422937641897e-05
1.170580303949120576e-05
1.1759055516486001023e-05
1.1819179415869947552e-05
1.1881524296753695548e-05
1.1941406628697628657e-05
1.199423338017588622e-05
1.2035778949122080111e-05
1.1321957759341310187e-05
1.1308656940323980687e-05
1.1296539000090872432e-05
1.128335252281633793e-05
1.1271731451741080838e-05
1.1259420304977698049e-05
1.1249014750495501286e-05
1.1237899426073161459e-05
1.1228286422371876909e-05
1.1217569081458685218e-05
1.1208024380138112975e-05
1.1195423106076267861e-05
1.1188401295556784016e-05
1.1028577183373080412e-05
1.1033962608967478952e-05
1.1033869487025238507e-05
1.1028811940078125958e-05
1.1021332280157519366e-05
1.1012155524797334367e-05
1.1001999938249201603e-05
1.0994646751324733394e-05
1.0992446896715093018e-05
1.1011785538873522229e-05
1.1061401224884208249e-05
1.1099418973955118677e-05
1.1126487255394008536e-05
1.1146981132876352058e-05
1.1166211427045163768e-05
1.1188700607427858681e-05
1.1218620826055757206e-05
1.1256507966611091097e-05
1.1301530838728253916e-05
1.1350970239521584649e-05
1.1400496897815002838e-05
1.1445979195814763742e-05
1.148442543070186741e-05
1.1513986683295722365e-05
1.1534096881036265972e-05
1.0885278398131843623e-05
1.0872006704814294293e-05
1.0858811806037803037e-05
1.0846382584269307733e-05
1.0833863362731148273e-05
1.0822570812637764926e-05
1.0811646813276428616e-05
1.0802310192156687141e-05
1.0792984873991970783e-05
1.0784425867415232866e-05
1.0773900825863234372e-05
1.0767503495387085064e-05
1.064632669517627517e-05
1.0649232988039264485e-05
1.0647257155142074756e-05
1.0641590617426717466e-05
1.0633941681263605816e-05
1.0623817219698838317e-05
1.0614337362678002405e-05
1.0607700776338754259e-05
1.0607385398349503629e-05
1.063004793661363398e-05
1.0668036749662444538e-05
1.069478406318859948e-05
1.0713862325297142177e-05
1.0729542767257169535e-05
1.074671582248336016e-05
1.0769408946662633681e-05
1.0800971630404699014e-05
1.0841122720232689792e-05
1.0888732400850282417e-05
1.0940689280685305765e-05
1.099341231306754468e-05
1.1044144748353280469e-05
1.1090324003697476864e-05
1.112977564701464097e-05
1.0278891145035677372e-05
1.027528562450420743e-05
1.0268797929387442453e-05
1.0260256503493423076e-05
1.0247526853909139557e-05
1.0237198602029397776e-05
1.0230611662537885499e-05
1.0230160291390666801e-05
1.0253910739837757387e-05
1.0304250894153371964e-05
1.0340032169614129604e-05
1.0362529189193945344e-05
1.0377113240823548844e-05
1.0390654339493130679e-05
1.0408749600737575439e-05
1.0435219116840517513e-05
1.047055638508065854e-05
1.0514327571663787138e-05
1.0563010351946127633e-05
1.0613069491631216206e-05
1.0661587967989939044e-05
1.0705011006139440581e-05
1.0740805554761004222e-05
9.8825591629396457598e-06
9.8732160216211472219e-06
9.8607809099910164656e-06
9.8525664949235396308e-06
9.8474071404440451712e-06
9.8524440905164558453e-06
9.8904162172927617512e-06
9.9369016345225357828e-06
9.9627949447168363714e-06
9.9724253529434719596e-06
9.973556050978017406e-06
9.9754838680822714258e-06
9.9871721309893643189e-06
1.0025003996169226422e-05
1.0083682259382642719e-05
1.0148391007761332051e-05
1.0210384628789735654e-05
1.0261326262834315689e-05
1.0297095313265318138e-05
1.0316641274115991893e-05
1.0323511785243142717e-05
9.5157903587290823186e-06
9.5348684690875542413e-06
9.5554829529654619435e-06
9.5748965399527950174e-06
9.5915208707137854412e-06
9.6056944013912907998e-06
9.6202644015003507957e-06
9.638801057218723245e-06
9.6642833118250779322e-06
9.696819990296798593e-06
9.7354531966692206682e-06
9.7767785857069886127e-06
9.8162954334546121023e-06
9.8493583135625230123e-06
9.8737481346881773403e-06
9.8888938059095454237e-06
9.8965831068865637161e-06
9.2611448930119493573e-06
9.2857025700047930342e-06
9.3047368854718099583e-06
9.3215466053210822384e-06
9.3400054672453854143e-06
9.362714380733257172e-06
9.3902149182198427565e-06
9.4203133751387043581e-06
9.4513753314286717572e-06
9.4800533988162820727e-06
9.5057402251891289174e-06
9.5288480098593912848e-06
9.5503009424867289442e-06
8.8532031709427650974e-06
8.8776118280060779418e-06
8.8969738578749766055e-06
8.9178589176081321077e-06
8.9455382758385119875e-06
8.9817611909165092981e-06
9.0256478256442784416e-06
9.072241846684636938e-06
9.1153074556680297266e-06
9.1512106047238181075e-06
9.177076951614553441e-06
9.1936739992407640103e-06
4.8079345324458091785e-06
4.7794336445101823435e-06
4.7722836816252708482e-06
4.7720406494403374621e-06
4.7855377286257013585e-06
4.842608123531566482e-06
5.0250330245711980474e-06
5.2763236815095221075e-06
5.4863627808183886028e-06
5.6529802360852477342e-06
5.7755416671214091157e-06
5.8563112935414026415e-06
5.9000534607828200207e-06
5.9163205433594630864e-06
5.9154549703434365724e-06
5.9084307775963808507e-06
5.8875759896179158338e-06
5.8193649738457704697e-06
5.6640175840707439228e-06
5.5252345979119259252e-06
7.3391586379877231684e-06
7.3099356644689266277e-06
7.3043224955935850856e-06
7.3082700084369771212e-06
7.3345046916853953522e-06
7.4199665129689571679e-06
7.6512994674427481335e-06
7.9098670946316897775e-06
8.1267931445251142283e-06
8.3006915563099457298e-06
8.4349318787385349445e-06
8.5316901573266419118e-06
8.5944674521462958571e-06
8.6268153158292121198e-06
8.6371398267633021646e-06
8.632340395060591253e-06
8.6225071008259942943e-06
8.6001968213317976869e-06
8.5398211224374130299e-06
8.3781198718493462646e-06
8.1915261300062951167e-06
8.0437907776373591181e-06
1.3570623820829747272e-05
1.3557362984870872241e-05
1.3558746362991534786e-05
1.3584600394306249713e-05
1.3639904687580286399e-05
1.3769150043135822123e-05
1.4042802634339039827e-05
1.4332714392318900829e-05
1.4593748739465140109e-05
1.4814128607346669703e-05
1.4990795863389534817e-05
1.5129442304015824775e-05
1.523274359865386268e-05
1.5301947782283104548e-05
1.5336494542615853448e-05
1.5346210534827549511e-05
1.5336706512064001768e-05
1.5318982396172878876e-05
1.5286560215033741228e-05
1.5212762952577508471e-05
1.5101340604721437505e-05
1.502963416940524494e-05
1.5001403927306418841e-05
1.4990424018793518427e-05
1.498979621583674358e-05
1.5011620741223954815e-05
3.0326699773782276031e-05
3.0531155179567813778e-05
3.0852943951189100652e-05
3.1233910104721122653e-05
3.1660727283373761684e-05
3.2109373675714645831e-05
3.2544944343865839958e-05
3.2934896832946746424e-05
3.325984663673894117e-05
3.3515069014774818285e-05
3.3707209056239239794e-05
3.3855076343648369749e-05
3.3976867962398732653e-05
3.4079906797012407766e-05
3.4164054726536901023e-05
3.4224074262260454021e-05
3.4256470237645722944e-05
3.426300256581951909e-05
3.4252006617861474646e-05
3.4235514372126204835e-05
3.4224421677809006501e-05
3.4232881047259021022e-05
3.4291267331463383763e-05
3.4424301561465415914e-05
3.4609151203652883564e-05
3.4836036133482548276e-05
3.5094148343330308659e-05
3.5368363927721079313e-05
6.3348045498623264927e-05
6.355160477023004482e-05
6.3790213207462370432e-05
6.4055865641514438276e-05
6.4334211551016854953e-05
6.4607715568629970932e-05
6.4857691306084729911e-05
6.506852970380792411e-05
6.5231524666286246268e-05
6.5346602893873206083e-05
6.5420736046350747841e-05
6.5464746926295440399e-05
6.5488546687994671994e-05
6.54976824530825437e-05
6.5493774160541652933e-05
6.5475286138693759006e-05
6.5443030117786442075e-05
6.5402387298020404449e-05
6.5362211106664757569e-05
6.5331951385718512555e-05
6.5328272470786718693e-05
6.5360956497020664103e-05
6.5429468940918512876e-05
6.5530672167209984996e-05
6.5655633203621135822e-05
6.5790546800121964331e-05
6.5923735750533264677e-05
6.6043513613157881653e-05
6.6141701568234431198e-05
6.6213116356594225098e-05
9.3117819602193848934e-05
9.301410666617507966e-05
9.2900086318924008613e-05
9.2770018733912907108e-05
9.2620048888033762262e-05
9.2449978034096210811e-05
9.2263202240645570415e-05
9.2065698630215873585e-05
9.1863164405251359896e-05
9.1659836101348946989e-05
9.145818577479309546e-05
9.1259956424604975352e-05
9.1066486904967827005e-05
9.0878676518272669279e-05
9.0696146274095375576e-05
9.0517392445666717085e-05
9.0340858462739404315e-05
9.016721001939200647e-05
8.9999123509637240603e-05
8.9840241671644034812e-05
8.9692762589014038812e-05
8.9555575884480191021e-05
8.9424006514493063172e-05
8.9291648979883609305e-05
8.9152218818610816918e-05
8.9001981014676798056e-05
8.8839636625956156196e-05
8.8665683336765596005e-05
8.8480135411932379062e-05
8.8283610882128812371e-05
8.8076632261698483382e-05
8.7862916743584615971e-05
0.00010765709365410313866
0.00010733111388490104113
0.00010700568184592073109
0.00010667716329858046361
0.00010634482409308229135
0.00010601145721915079009
0.00010568192592199320522
0.00010535990798208947738
0.0001050456331771939118
0.00010473526951113914716
0.00010442443188816908273
0.00010411167936149150746
0.00010379944160260525931
0.00010349140941055714853
0.0001031898028260977738
0.00010289369228976080154
0.00010260030423120943888
0.00010230786911440546585
0.00010201705766903234641
0.00010173018379322670802
0.00010144894990763664798
0.00010117256454363007811
0.00010089784447104526279
0.00010062140209328737466
0.00010034118920829857209
0.0001000573689284400109
9.9772039502490924927e-05
9.9487182201191950645e-05
9.9203669384330658084e-05
9.8921629517001552858e-05
9.8641455582731526401e-05
9.8365042438850567729e-05
9.8094592649391936586e-05
0.00014245909138537707524
0.00014166547387457436614
0.00014088959919968097436
0.00014012734476636355165
0.00013937612922653014043
0.00013864045188956305543
0.00011318001783283476117
0.00011280301165302345986
0.00011242589699675959304
0.00011204457155285188106
0.00011165850250139026413
0.00011127162536505704675
0.00011088986547003052341
0.00011051745438873371047
0.00011015415805355197921
0.00010979566527533379295
0.00010943770569942428772
0.00010907968037419078777
0.0001087249098815885011
0.00010837759672032841896
0.00010803953717301674801
0.00010770838858027744476
0.00010737980366103004788
0.00010705109854022003973
0.00010672374278777916159
0.00010640167403596954919
0.0001060877979981593623
0.00010578166349810169829
0.00010547948749083132353
0.00010517720174331058746
0.00010487255228623349162
0.00010456648837531054412
0.00010426164421314598686
0.000103959893967701242
0.000103661414025208129
0.00010336553937681734999
0.00010307280503624046103
0.00010278520874886443919
0.00010250530702010844197
0.00010223280571103175339
0.00013866298759494582668
0.00013776618592899344228
0.00013686423139800050195
0.00013596513041863557067
0.00013507543937627564134
0.00013420566679406666435
0.00013336623930430409834
0.00010551918490107760719
0.00010511003319191056606
0.00010469452358728143892
0.00010427845859051341657
0.0001038751640470481801
0.00010349756016310223891
0.00010315043200932902617
0.00010282819639938138947
0.00010251919433114743197
0.00010221336546362765497
0.0001019094841196531144
0.00010161469762674895094
0.00010133739965931109356
0.0001010794314916326522
0.00010083401131722022261
0.00010059153188222076148
0.00010034687761781020243
0.00010010266572664687566
9.98650431095577057e-05
9.9636355074829394975e-05
9.941166528043894775e-05
9.9181216184095511725e-05
9.893715149638076644e-05
9.8677880081069941384e-05
9.8408900490358342905e-05
9.8138823277838318788e-05
9.7874219552143492751e-05
9.7618126572750964112e-05
9.7370626758163595759e-05
9.7131339265969405487e-05
9.6901188257168710235e-05
9.6680459145946865004e-05
9.6465917572710363926e-05
9.6250361426266270426e-05
9.6026268872929324439e-05
6.0038810935626265406e-07
5.8800525983187004167e-07
5.7670894838422248554e-07
5.6634486493724046361e-07
5.5673375660030818702e-07
5.4777635534508859289e-07
5.3938075074167806016e-07
5.3192418884022080333e-07
5.2458446012924492781e-07
5.1882321174468927572e-07
5.1238088427381818699e-07
7.1603031330790215133e-07
7.1583975018563878742e-07
7.1501774897435178283e-07
7.1350130281897602776e-07
7.1145703248440297501e-07
7.0786496929408064046e-07
7.0002983764719266916e-07
6.8853578189580684323e-07
6.7578711305481002092e-07
6.6313438740688833179e-07
6.5173232613309089254e-07
6.4246952847262658714e-07
6.3570730368204239385e-07
6.313720167271015811e-07
6.2883295967793514133e-07
6.2733908118932584586e-07
6.2649031773493520949e-07
6.2602204621043744818e-07
6.260734173191754094e-07
6.2889070616187433109e-07
6.4222940073324878295e-07
6.6455872192603479271e-07
6.7813976940173551641e-07
6.834080853167562207e-07
6.8384967542769383964e-07
6.8263719976924766902e-07
6.7919552571283885415e-07
6.7696189073534156341e-07
6.7644616550644868605e-07
6.7732912556728003387e-07
6.8288369120909260393e-07
6.8955895859449909421e-07
6.9314408544240003432e-07
6.9447830598678189695e-07
6.9451618959550063143e-07
6.9404483706309935845e-07
8.8053437448194061948e-07
8.4958216013030221673e-07
8.1999447778403864403e-07
7.9193091729121904864e-07
7.6550497084440634611e-07
7.4076135247500755816e-07
7.1766915265849499488e-07
6.9613996897604721054e-07
6.7612501098681017623e-07
6.5752773552913468098e-07
6.4036537755543414735e-07
6.2445824944849586797e-07
6.097891720924135945e-07
5.9619730549439351346e-07
5.8378259769059803311e-07
5.7264907701922486478e-07
5.6237230766934589943e-07
5.5356506761341967116e-07
5.4516115020460386095e-07
5.3847380846140518362e-07
5.3183021190256944605e-07
7.6625370307785562388e-07
7.6579135326162742211e-07
7.6274233654277327596e-07