/*--------------------------------*- C++ -*----------------------------------*\
  =========                 |
  \\      /  F ield         | OpenFOAM: The Open Source CFD Toolbox
   \\    /   O peration     | Website:  https://openfoam.org
    \\  /    A nd           | Version:  12
     \\/     M anipulation  |
\*---------------------------------------------------------------------------*/
FoamFile
{
    format      ascii;
    class       volScalarField;
    location    "0.013";
    object      p;
}
// * * * * * * * * * * * * * * * * * * * * * * * * * * * * * * * * * * * * * //

dimensions      [1 -1 -2 0 0 0 0];

internalField   nonuniform List<scalar> 
106891
(
100181.95171865224256
100192.76497968762123
100201.87189576361561
100209.11144089297159
100214.54797907195461
100218.38946952325932
100220.90745490262634
100222.42438866087468
100223.32317721746222
100224.05023259697191
100224.71718358145154
100301.7263817039202
100311.03618566622026
100320.19645631039748
100325.14077199074381
100323.7749561866076
100317.36489546873781
100309.86210104709608
100306.56777536685695
100309.73503382730996
100317.29397107266414
100322.59399410484184
100318.75525239283161
100303.58360029783216
100281.29603830428096
100260.42087303829612
100249.48117630474735
100252.01819016385707
100264.87185199478699
100281.23458054027287
100295.27965069777565
100305.65025348053314
100315.10671575523156
100326.27612341759959
100338.24955387010414
100346.54800803730905
100345.93503946543206
100333.82954208255978
100312.44572986591083
100287.61814976370079
100264.67564011429204
100246.31494671084511
100233.11053802556125
100223.8356242342561
100217.87069555198832
100213.78621881690924
100209.29592482589942
100202.99185222425149
100193.62431842104706
100122.35086127936665
100120.5166931632557
100121.36128487583483
100124.81013014499331
100130.58068433358858
100138.22085303337371
100147.3579672894557
100157.62120923976181
100168.71472745618667
100180.37086361256661
100192.19003374292515
100203.60527889840887
100213.959179843936
100222.65251330248429
100229.34514709559153
100233.95046761320555
100236.65861795652017
100237.87033867945138
100238.17405896657147
100238.02168030507164
100313.16226923673821
100309.69657886207278
100303.65772259428923
100295.57140080837416
100287.6525116062985
100282.74743552273139
100284.14898288284894
100291.92435179937456
100302.16011555466685
100307.99328986665932
100302.33939727459801
100284.0809298971144
100258.62049355436466
100235.76030518361949
100224.28175196594384
100227.48669394600438
100241.5910091126425
100258.55306517450663
100271.7587551867764
100279.97341467560909
100286.78359945792181
100295.852317418452
100307.28921790349705
100317.12359882614692
100319.54463887462043
100311.15555576242332
100292.87479251307377
100269.48684058601793
100246.06028399112984
100226.62983307921968
100212.52304259204539
100204.66453213237401
100201.72478871534986
100202.81994712007872
100203.84891410950513
100202.32403809326934
100145.1980765129847
100143.92013216251507
100143.7304551218258
100144.66549052199116
100146.77302660704299
100150.14331146072072
100154.98777748440625
100161.52013096328301
100169.92924010314164
100180.2455281989096
100192.19943898409838
100205.09509318436903
100217.87188728516048
100229.38234380417271
100238.67242950441141
100245.18921216130548
100248.89706429715443
100250.17339283040201
100249.78983725738362
100248.53906804519647
100311.04800985580368
100292.40881666439236
100274.78809187882871
100261.59893388429191
100255.26107277537812
100256.14424449122453
100263.76659024898254
100275.20771216512367
100285.62995669340307
100288.27989538220572
100279.67785373203515
100259.55477706385136
100234.16098309087101
100212.96823408734053
100203.29051906970562
100207.41665428082342
100221.45206558499194
100237.62107575018308
100249.39811610429024
100255.50108875364822
100259.2021791717998
100264.71043793878925
100273.36964582061046
100282.47051541239489
100286.87922613773844
100282.92783531759051
100270.22002066222194
100251.58988593793765
100231.15860608933144
100212.82452461302455
100199.7444802850514
100192.95069072637125
100193.23324956007127
100198.07682173440116
100204.10932062836946
100206.83527307643089
100167.77722873634775
100166.77035683963913
100165.59113566607994
100164.51661422781763
100164.04810331654153
100164.88495708655682
100167.77293151231424
100173.28076562579372
100181.65571421760251
100192.7338673799386
100205.79702302980877
100219.62490606629581
100232.77350921713514
100243.8916952090658
100252.05342282009951
100256.92291551761446
100258.71348140679765
100258.18116185844701
100256.27711834751244
100269.52310216191108
100241.86643442076456
100226.41747024576762
100224.43537131945777
100233.25783501374826
100247.99109048220271
100261.99178340513026
100269.40325593813031
100266.32639715730329
100252.33105760239414
100231.08215808219393
100208.58910686943273
100192.38441097020404
100186.99834438436665
100192.77366015358712
100205.95099568455771
100220.08694517602271
100229.80155508712051
100233.71156958199572
100234.26770124943869
100235.64142312610056
100240.33151705797354
100247.43120429875853
100253.23874831298599
100254.0837677562813
100248.70341310919321
100237.13813248416409
100221.77716548001627
100206.21724772038579
100193.90554919789429
100188.12341379208374
100189.01269454375142
100195.8749418627267
100204.53245303384028
100189.77697733746027
100189.20952849340392
100187.52192431442381
100184.75951999987592
100181.31358264513256
100177.93526373599889
100175.58395733432553
100175.25679869756277
100177.76399915573711
100183.53775348134513
100192.53066705160018
100204.14163823009585
100217.25912110635545
100230.44536646456982
100242.26349402668711
100251.62540281048859
100257.96459771641821
100261.23069627523364
100261.85293409107544
100260.59165860897338
100246.99306303642516
100212.74108488870843
100197.3461061011767
100200.79246541044267
100217.57031590663246
100237.86003349261591
100252.62209270639869
100255.49280504974013
100244.81940978219791
100224.45218370646762
100201.474603406401
100182.66210595503799
100172.34421361179557
100172.33309056219878
100180.85165514062101
100193.69092608745268
100205.88100985439087
100213.4727206651296
100215.29214451178268
100213.2361872135516
100211.0760788879561
100212.01437088145758
100217.01432354684221
100224.1262972188415
100229.89036015796592
100231.22739701809769
100226.46560025159852
100216.31845990850707
100203.66262467078923
100192.38133182808815
100186.22288219275651
100186.67450998596905
100192.71067078530905
100205.53126193345815
100202.95072263621842
100198.91445467088488
100193.93272518689628
100188.81363405668526
100184.48851776999072
100181.91310393423191
100181.89291104092263
100184.91272531443974
100191.05860611176468
100199.95141325001896
100210.74084179992497
100222.26754376482859
100233.34602586101391
100242.979653887116
100250.52134882706741
100255.75273772647779
100258.76493225588638
100259.86456134100445
100195.88060077335103
100182.17300161710591
100190.00281638283923
100211.2123219834757
100233.60156781894329
100246.65448637535155
100243.89674341199861
100226.53424752730643
100200.61204148501565
100174.90914805732609
100157.46725752507336
100151.3631797725975
100155.70240748934157
100166.91213754110504
100180.54570302505454
100192.52803644844971
100199.69833968771854
100200.87988459179178
100197.62631928040355
100193.37038899328036
100191.95976982841967
100195.69850454434345
100203.97400904790265
100213.51066653075395
100219.25153913136455
100218.51215187682828
100211.51707686194277
100200.74259729264304
100190.47389876711532
100183.48060555667325
100182.01592450363387
100184.70179249820649
100214.78949158996693
100210.75700486791902
100205.26029457022378
100199.03372118616244
100192.95437502718414
100187.8506280357833
100184.3951871242316
100183.12497682127287
100184.37948891548149
100188.19675464944157
100194.3152328995202
100202.23501892061904
100211.27462707547238
100220.67288551798265
100229.73104422772303
100237.92252183715755
100244.9592740660446
100250.67637462612765
100255.01431165613758
100186.78754800239403
100195.62918755391729
100215.35376927410834
100234.43642821260437
100242.70861200876243
100235.49518277494644
100213.73493536502065
100184.59168859684723
100156.33183909674699
100136.62304053247499
100129.9475787931151
100134.90176839206833
100147.50164236895216
100162.62109542796679
100175.79472950937634
100184.33065545704449
100186.94776184904913
100184.86692734781536
100181.3621238777996
100180.53694572646054
100184.86923480428231
100194.19159847704577
100204.46001416658692
100210.96855816911557
100210.57856074080337
100203.5344293305825
100193.06508643119014
100182.4103028979589
100174.45999981254863
100169.50490639204509
100210.5005652011896
100203.18159135805035
100195.65271953538468
100188.88509562435502
100183.71795308912988
100180.64910475802026
100179.83562860540405
100181.19710043993837
100184.48184701424907
100189.32039361713396
100195.30379822778923
100202.04524907203449
100209.2236485343019
100216.63920053209586
100224.19783333785017
100231.84516794668161
100239.38683853164548
100246.58255655455287
100215.53753530340327
100228.08336501986196
100238.42442542982462
100239.85311711746908
100229.59531606581004
100207.54136059412849
100178.2962333329051
100147.97046892650542
100124.41037816401513
100112.79247821234458
100114.07507039557095
100123.82719208813796
100137.30100339361525
100150.31979084189516
100160.27099651408207
100166.30095888196956
100169.17945944043458
100171.05872020864626
100174.82723827045993
100181.88534853137389
100191.52067438409722
100199.49251473192999
100202.40898973908043
100197.91289275263262
100187.85010984240216
100175.67602681531571
100164.03790041366301
100154.27671301028749
100203.32728531812609
100194.42825134239683
100185.84705927308823
100178.68293914725655
100173.83517781048431
100171.89563919015927
100172.91779522718571
100176.35969885677332
100181.36062439679517
100187.08544574900588
100192.88492197754385
100198.37066896818578
100203.4809949612827
100208.45672593878407
100213.72239327552961
100219.79198331684165
100226.9951306743751
100235.31238831508381
100240.41401583638799
100241.62129630423442
100237.97804429034295
100227.14634145576565
100208.19105917845445
100181.49735131033231
100151.41243874415522
100124.67119210631063
100106.14565250468149
100098.7350594196032
100100.11375035544916
100106.17858945239277
100114.83214913142729
100124.98180929434602
100136.01905524928588
100147.20087500217778
100158.1779949827469
100169.41016317457252
100180.29986106816796
100188.20364752972091
100190.98414883886289
100186.75999397580745
100176.10016238204844
100161.71583416305657
100146.68946270563174
100132.83845586614916
100119.56838801200502
100182.52890511012811
100174.75055998547759
100168.83631059316394
100165.80727233921061
100166.17792021379864
100169.85833374748472
100176.12750561808934
100183.76389427039248
100191.38335276281578
100197.86441272997763
100202.62416016297357
100205.674639855235
100207.56304489175091
100209.25135369118652
100211.9200710682635
100216.5347095344041
100223.64377859249362
100243.37993355319486
100240.50469216049532
100239.11885906489624
100236.13796166886459
100227.62494488418452
100212.48173742051586
100189.57308175601065
100162.85531715812976
100135.79012235872506
100112.61555853844038
100094.62524330300221
100082.95502847338503
100077.77445898050792
100078.99556117109023
100086.9467618844501
100101.07511607393099
100119.06923308610567
100137.69480953630409
100153.81035960941517
100165.50757569140114
100170.94401659190771
100169.02414527673682
100159.04492044160725
100143.21434563926596
100124.10465617972659
100104.63461109924538
100086.97393210015434
100166.83629773950088
100165.64488266888657
100166.69663828221383
100170.32358914891665
100176.38993666972965
100184.247657228756
100192.78857271918969
100200.66786012052034
100206.65992899682897
100210.03352661982353
100210.80902898668137
100209.73797454909072
100208.06621596775949
100207.29317714458739
100208.75583229368203
100213.44752457624418
100222.35206616649521
100223.65931002983416
100227.88232666968543
100229.79465853961301
100224.80889019438473
100211.60090948878496
100192.5784813802602
100171.73102440257207
100150.9621263249137
100129.61227991044871
100108.14395117151435
100087.80595050085685
100072.01228582517069
100064.68588174585602
100067.26757045686827
100077.97555945879139
100093.09718354744837
100109.00329618346586
100122.67249494534917
100132.53417559807713
100137.35662110669364
100134.86306032599532
100124.83282894377771
100107.93285382793692
100086.52393891106476
100063.78090678057924
100042.36597151072056
100024.00036229746183
100170.58958595043805
100176.70182373249554
100183.37206248845905
100190.43234777011094
100197.47521246214455
100203.89061975158984
100208.94052105236915
100211.94002156259376
100212.52061569287616
100210.83868872339372
100207.63374076786567
100204.08815851961845
100201.6091856899875
100201.44128976002685
100204.53628611480235
100199.00775618292391
100210.32820259913569
100216.93519630200171
100214.65288763486024
100203.29396355446079
100187.90733468539838
100173.04024534046766
100159.22338862392644
100143.59115109307459
100123.89283083323971
100101.4123011558404
100080.90414117187902
100067.64825502755411
100063.44022023849539
100066.38490714160434
100072.91690467360604
100080.49028481234564
100088.43664533483388
100095.3185076964146
100099.50140908353205
100098.76503527874593
100091.14738300298632
100076.0177001151169
100055.20700555194344
100031.40427752761752
100008.27934306618408
99989.135360957981902
100187.1258602529706
100196.01362829656864
100203.16877117862168
100208.44055302647757
100211.77739385575114
100213.14460148956277
100212.56228426731832
100210.1875601655338
100206.3850115754467
100201.80371227774594
100197.36082627081487
100194.1559446126048
100193.14816807332681
100195.12488756938546
100185.80141904605262
100195.55080800142605
100194.3949561775371
100184.89475335013412
100173.72137947175361
100165.49294832686428
100159.61404019210022
100151.74466361403756
100137.5385302183131
100117.67620971458382
100096.86628372331324
100079.8633221572527
100068.46824139743694
100061.56305911370146
100056.93550055100059
100053.86603671744524
100053.05736588602304
100055.02004693487834
100058.20323361431656
100059.53627303539542
100055.5537205873261
100044.49525271779567
100026.55766006725025
100004.52235002089583
99982.288986446001218
99964.594271991023561
100206.10332917960477
100212.59931426872208
100215.57946516794618
100215.48726167083078
100212.99307065608446
100208.85708561849606
100203.73217529829708
100198.16006142870174
100192.69882233785756
100187.97173977950297
100184.64010629993572
100183.25312338677759
100184.37901290607988
100166.54889326554257
100165.40840336395195
100157.62728882436932
100150.94577224187378
100149.35563143988838
100151.16475771546538
100150.97578923101537
100143.64413760464231
100129.12687359807023
100111.03709453447664
100092.83436413381423
100076.20933635465917
100060.71385440199811
100045.76486868261418
100032.23216330597643
100022.35186830442399
100017.96474855707493
100018.46275157983473
100020.75491612094629
100020.68031041930954
100014.73246848491544
100001.94726776221069
99984.050228647276526
99965.442807785511832
99951.119481223839102
100216.60928524467454
100217.35684755633702
100214.33341714469134
100208.69935950123181
100201.70604972970614
100194.42803171502601
100187.62149581203994
100181.76533714507241
100177.16999808317632
100174.08735937337042
100172.70416762001696
100173.32160949037643
100131.49285076487286
100125.63512803534104
100122.86441172263585
100126.3792313394224
100134.10944676138752
100140.27921627025353
100139.56228707736591
100130.98600394511595
100116.6220233381755
100099.34026171844744
100080.83218984669656
100060.67265783475887
100038.81208749191137
100017.24980582720309
99999.262286846264033
99988.145777347162948
99984.657381880591856
99986.599423778490745
99989.310027150146198
99988.211050505065941
99981.202439691900508
99969.199038125691004
99955.987310281096143
99946.400633081109845
100094.5191942066449
100094.12687695336353
100100.18935766626964
100111.195338099933
100121.24325669302198
100125.35500493635482
100121.76240119026625
100111.47555985086365
100096.78435263087158
100079.2154905134812
100058.53371837364102
100034.5085033580981
100008.93836364959134
99985.53683289179753
99968.632109426282113
99960.627615565987071
99960.434913976801909
99963.840058972302359
99966.17791278421646
99964.123884139538859
99958.11095094254415
99950.839861939952243
99946.528721358248731
100073.5662423811882
100085.29631394289027
100097.17355176298588
100104.21564809238771
100103.95073276670882
100096.98003454550053
100085.53514341902337
100071.19734413057449
100053.59554242301965
100031.71730925008887
100006.27322038391139
99980.697402350866469
99959.928800476933247
99947.613287969797966
99944.146872410317883
99946.24646430190478
99949.481357911470695
99950.535363517177757
99948.797035059833433
99946.534636609940208
99946.996780018467689
100081.8575231089053
100077.0047221138957
100068.46519126104249
100058.21730037457019
100045.81020570751571
100029.14002896205056
100007.28488113146159
99982.807712342226296
99960.615706538519589
99945.211141018677154
99938.203392440205789
99937.432120518191368
99939.061755893664667
99940.192386681010248
99940.252012136945268
99940.924728972720914
99944.924278862599749
100036.31326473288937
100026.06782616880082
100009.95643738676154
99989.152745808969485
99968.018097498090356
99951.272433588892454
99941.143667879092391
99936.659083677062881
99934.909220810353872
99933.426068523622234
99932.506564293318661
99933.799210174402106
99939.626792703740648
100022.17708300966478
100012.67141862287826
99997.307816802072921
99979.212800978304585
99962.615119478330598
99950.278004470324959
99942.078782694137772
99935.870232403060072
99930.348817624282674
99926.335729883227032
99926.069118827799684
99931.791756166552659
100296.94781401399814
100277.0044756893476
100268.73744454226107
100260.59713812256814
100244.686485358543
100222.19926140375901
100200.32480509577726
100186.07372309887432
100180.62038344157918
100179.58546373157878
100177.25926571537275
100171.15335663524456
100163.16830717747507
100157.18492274844903
100157.14139371502097
100165.12941591687559
100179.66664207550639
100195.19265036052093
100204.04483029946277
100200.3903178984765
100348.72156613324478
100306.44285385710828
100282.9535171683965
100272.77563226332131
100263.12659188624821
100245.18764374020975
100219.4934294395207
100194.16858341444458
100177.76820211128506
100172.27449707064079
100172.13353083867696
100170.20390734173998
100163.33690307024517
100154.55111050985579
100149.68000402925827
100153.38828152550559
100166.40877207017911
100184.90592304502206
100201.63383523010998
100209.18386834987905
100203.61825543861778
100186.09938732629234
100470.13153103257355
100418.83253255049931
100361.62497944584175
100314.89899164391682
100288.05805688771943
100276.16853441747662
100265.28992929894594
100245.57550948533753
100216.90423191082664
100188.33603653615864
100169.99375601725478
100164.60068952463917
100165.64338511954702
100164.35246618796373
100156.93675150691706
100147.35668993115542
100143.37083454248204
100150.39805503503885
100167.9417265644006
100189.93137402445427
100207.52148825115
100213.71244761467096
100206.31849242678436
100188.13101381849265
100164.59300435606565
100141.47249302039563
100518.2162884856516
100486.47262301915907
100433.1902063084417
100372.26166845057742
100321.6929049534665
100292.09234213639866
100278.83783426423906
100267.26346946961712
100246.01262495039555
100214.62667424489337
100182.98401533112337
100162.89576550199126
100157.72799953076174
100160.18608606344787
100159.65218402098981
100151.83339787652949
100141.44095239951275
100138.05418239744904
100147.94358978098899
100169.53821795305703
100194.58498395382776
100212.82379674482218
100217.68235599601758
100208.58621060378209
100189.86444289347855
100166.95000962856284
100143.97732488738257
100123.7556571096211
100537.35352171423438
100531.90473618054239
100500.40280103663099
100445.02944472832314
100380.87048408387636
100326.9330637378589
100295.01951784543053
100280.80670468654716
100269.05721448267286
100246.4722172011534
100212.53571837715572
100178.04934052466706
100156.47150576459535
100151.74509419186506
100155.7589883422479
100156.11727269772382
100147.90004664419394
100136.63832318982168
100133.56723689878709
100145.87306050697225
100171.07681975934247
100198.81264172066585
100217.58461360065849
100221.18532744940603
100210.50819027081889
100191.37719600502169
100169.13968478873721
100146.41754511132604
100124.80831369268708
100107.15680331346812
100535.12580894131679
100546.81877050091862
100543.13957600881986
100512.09489394177217
100454.85165921262524
100387.56762383937894
100330.60842833365314
100296.74384727707366
100282.17785927670775
100270.69056842762802
100247.12182223483978
100210.80692481574079
100173.80526507554168
100150.91505668986065
100146.78075508977054
100152.33245973211888
100153.64207574281318
100144.93605787443812
100132.74464061409526
100129.77353737968951
100144.1005397925037
100172.4631694284617
100202.56221505205031
100221.79475992430525
100224.19682300044224
100212.11123340993072
100192.64325668837409
100171.06316273813718
100148.63312345820304
100125.75720162769721
100105.43351807714498
100094.33848362680874
100539.73763128800783
100554.10462293427554
100552.05779418929887
100521.02979975189373
100462.16896466813341
100392.18895551109745
100332.88385896291584
100297.54744232488156
100283.17140995351656
100272.03977652995673
100247.81228041066788
100209.25110288709402
100170.22296231458313
100146.34794332819001
100142.91768494331336
100149.89975603802304
100152.08310810592957
100142.88916069848347
100129.77444439243118
100126.77209317497909
100142.67285834136419
100173.60105927608674
100205.67280868910893
100225.28103591092804
100226.6385974521545
100213.41797438690264
100193.62691103108227
100172.636911432739
100150.55265954196511
100126.61574740173819
100104.05285289979656
100090.95745894109132
100095.06296203740931
100294.71164255925396
100318.55216082322295
100332.25556364438671
100330.23949916085985
100312.89605539519107
100295.85769170100684
100542.62281885206176
100559.16712550757802
100558.23898965117405
100527.21192654287734
100467.05477366113337
100395.03111873770831
100333.86537035393121
100297.79634969917242
100283.77518710629374
100273.07812195342558
100248.41771349558257
100208.35000275053608
100167.67078300131834
100143.19997052841063
100140.28073143493384
100148.39097406923247
100151.20003896231356
100141.63548347150208
100127.71706049681234
100124.59404249921499
100141.58182680167374
100174.369312176932
100207.94304698878841
100227.80848026880994
100228.37150156981079
100214.31683310538938
100194.26263924817613
100173.68357218911115
100151.95810172391066
100127.21427924647287
100102.95771086671448
100088.49620105556096
100092.34399455695529
100113.87601499972516
100260.77044672363263
100297.5561772811343
100321.54183239510166
100334.720657525977
100331.22156808427826
100312.37783240636054
100294.67174546747992
100544.03484556142939
100561.81988129163801
100561.62500759199611
100530.34298058273271
100469.44383728741377
100396.28538844845025
100334.15633932570927
100297.77226871416497
100284.13847778954369
100273.62859020948235
100248.77190143255575
100207.8279869214748
100166.20762162796746
100141.53182180567819
100138.97041199402884
100147.7923390265496
100150.88557010123623
100141.043602933496
100126.60659679326636
100123.40398527438811
100141.03093232645188
100174.83541785884881
100209.2681855012197
100229.23284732628963
100229.32516521202342
100214.80864974448923
100194.59467030111409
100174.21677215391537
100152.77994431533443
100127.5863961938885
100102.25236624987156
100087.14100447358214
100090.94424850471842
100113.21699600559077
100140.85359044470533
100141.03867509946576
100133.47094629844651
100125.70105528263957
100117.92972323801951
100110.50531508917629
100104.01566302933497
100099.10924240194436
100096.34344728440919
100095.99710989127925
100098.1399964956654
100102.50925851063221
100195.698723586087
100194.55003541706537
100192.43087646664935
100193.89826866690419
100199.80614103327389
100207.75130535391509
100215.1984823965613
100221.01822872061166
100226.06922549953742
100232.13014950555225
100238.01078045844042
100242.58248035806173
100243.26884986361256
100240.09096432388469
100236.46056284486258
100235.33835271268617
100236.31265271650045
100235.17497085208015
100226.81796133582247
100209.57936277164845
100187.81553881705622
100169.64505374303553
100162.89031599738519
100171.08320587249182
100191.49433382692223
100216.22408611881838
100236.32876841495454
100244.29034813652106
100237.27871743919968
100217.41247147407557
100190.60173863176897
100164.28726628616278
100145.33481443853816
100137.22521757164213
100139.36480867465434
100148.4255277091288
100147.27621775418811
100162.64652840148483
100172.93144934171869
100178.09533243837359
100178.7205809844163
100175.7825637581409
100170.36725790637138
100163.32694227594766
100155.20697412164009
100146.31798869812337
100136.92408096590952
100127.31905287301925
100117.944825642262
100109.31089487911959
100102.07986272583366
100096.9532431577536
100094.44988962335628
100094.91562636863091
100098.24671392282471
100104.05910223486717
100111.64537726831622
100169.38553721552307
100174.28374511648144
100185.94266776046425
100203.35454859770834
100221.5177422031702
100234.84986645664321
100240.27574553879094
100238.00687252703938
100232.10290414943302
100226.40097838979273
100223.50379178802541
100220.25084280675219
100215.82283143921813
100208.66032531649398
100201.54306290106615
100197.76951623098284
100198.63572130164539
100201.21475031549926
100200.46091509630787
100193.29545817893813
100181.17405925180356
100169.18166233268857
100163.06345837080153
100166.31770353425236
100178.40843960580241
100194.83126757502032
100209.14633941628563
100215.17316630452115
100209.24396874505328
100191.86369466639007
100167.81825806561392
100144.2740820255276
100127.96280607678636
100122.90241989841161
100128.06616078244406
100139.15654367730895
100139.45880507044785
100154.68214480034658
100165.47715347101621
100171.6968989239831
100173.75825123630057
100172.4605234664923
100168.61688371609489
100162.81787082263327
100155.44698516229982
100146.84074414965289
100137.36768674451741
100127.53856731318228
100118.00834486873646
100109.53876321017742
100102.93579990543367
100098.89228498964803
100097.92691815033322
100100.22160651623562
100105.48232431760698
100113.13629005209077
100122.22862376346893
100166.30150972526462
100191.33023787656566
100221.11159387454973
100247.24557705855113
100262.40295710125065
100262.69207486654341
100250.29064355419541
100231.87785760470433
100214.55376352930034
100202.11871122950106
100193.29743842448806
100184.25295439017646
100174.75675822261837
100165.83510761593061
100160.56061513234454
100161.4381457431009
100167.43777814954228
100174.44988717812521
100178.06615117675392
100176.14660304173594
100169.81347390846349
100162.57543282108963
100158.12683808937436
100158.83759449642093
100164.45824466996419
100172.04154695330362
100176.68066776717023
100173.86501055709959
100161.7282600862527
100143.3647560896643
100124.90684623223206
100113.03571794938762
100111.27280584776599
100119.17003157881845
100142.67643156257691
100152.92416636105918
100159.64789988848497
100163.16300972306635
100164.0144746547885
100162.71921825419122
100159.65548695527832
100155.09328207284852
100149.24469387812132
100142.32537885768397
100134.66571536903211
100126.82925367912685
100119.65526803641114
100114.06066057446878
100110.80979583555018
100110.38910714782833
100112.88982418055821
100117.99224191888061
100125.13794158960809
100133.53549190350168
100172.9799819279142
100205.0044832911808
100240.36962001601933
100267.8623166942707
100279.23492995656852
100271.80295456336171
100250.10834727944166
100221.64070463573444
100196.15963024742086
100177.09804923235788
100164.93330828947364
100155.08430803108786
100145.36840972139908
100136.13614000740927
100130.2563749855326
100130.5533840135322
100137.70324713748414
100149.09871691574517
100159.95870085040224
100165.61577489197953
100163.67948232969502
100155.1675565855694
100143.65469013374241
100133.80110564593633
100129.83555682313454
100131.05524404728203
100134.29037684040668
100134.65183369386068
100128.69611601255019
100117.29938698711339
100105.26899433895596
100098.39132810199226
100100.13959509506822
100109.37995993687946
100129.96114445786225
100138.34376569173764
100144.53343989735004
100148.80674273673503
100151.56820275100472
100153.18455450453621
100153.83351725088141
100153.51105901076517
100152.1241691816831
100149.59465376587468
100145.98173630908423
100141.57457360840635
100136.92902971316653
100132.78549287667556
100129.84209657178144
100128.60981630469905
100129.38439621476573
100132.18332727314555
100136.80969771712262
100142.86353715945734
100221.17605220954283
100251.96456908254186
100271.91362990006746
100275.25323686090996
100261.6749649206904
100235.35009261716914
100203.80739929356787
100174.92930150554457
100153.56947812269209
100140.16647674521664
100131.83906844918965
100124.3488697103603
100116.48253975344414
100110.48188034714258
100109.12062356498791
100114.04191724123666
100124.291202509703
100136.27823433095182
100144.67515440552961
100145.4085855462763
100137.46425041745533
100123.39052238201839
100108.59349336593004
100098.11104402437923
100094.38865391568106
100095.46350369379797
100096.9543089466315
100095.36779500576085
100090.11335332473391
100084.12794454755203
100081.68283301481279
100085.51728850720974
100127.82784264207294
100132.45607395438128
100136.35829573500087
100139.96572670947353
100143.57950561367034
100147.32181576368748
100151.08407177054323
100154.49313617315784
100156.98902340578206
100158.1135459922225
100157.71466299043095
100155.92602195487416
100153.1138408016559