/*--------------------------------*- C++ -*----------------------------------*\
  =========                 |
  \\      /  F ield         | OpenFOAM: The Open Source CFD Toolbox
   \\    /   O peration     | Website:  https://openfoam.org
    \\  /    A nd           | Version:  12
     \\/     M anipulation  |
\*---------------------------------------------------------------------------*/
FoamFile
{
    format      ascii;
    class       volScalarField;
    location    "0.013";
    object      p_0;
}
// * * * * * * * * * * * * * * * * * * * * * * * * * * * * * * * * * * * * * //

dimensions      [1 -1 -2 0 0 0 0];

internalField   nonuniform List<scalar> 
106891
(
100182.79007556513534
100193.47898595285369
100202.45558340731077
100209.57328975100245
100214.90601743636944
100218.66824067191919
100221.12878039834322
100222.60613373912929
100223.48023340513464
100224.18361457373248
100224.81186138623161
100302.4580560514878
100311.84605101736088
100320.91241381291184
100325.64819846219325
100324.06158946065989
100317.54776049396605
100310.14144494471839
100307.09988265611173
100310.51100189551653
100318.12102446812787
100323.16935362409276
100318.87457369457115
100303.28963128536998
100280.85507469149888
100260.20126518922916
100249.74396464005986
100252.77675471168186
100265.91246476194647
100282.2913996764255
100296.21563950661221
100306.50848975293047
100316.0013559461222
100327.24289452379162
100339.16582747793291
100347.18234184918401
100346.11006849890691
100333.54242825307301
100311.87474135145021
100287.00191345150233
100264.20254451340588
100246.04948345426237
100233.06613813166041
100223.98358935653232
100218.1810250281851
100214.1664941420313
100209.68514797720127
100203.2984204931563
100193.83996254844533
100122.36806542961858
100120.70451825115015
100121.72099499790056
100125.32572031253949
100131.22410343815864
100138.9636324121675
100148.17590863686928
100158.48772535538592
100169.60591042076703
100181.2615955540532
100193.05242037838616
100204.40871487853292
100214.67304796913231
100223.25557559634035
100229.83017884349101
100234.32005715229025
100236.92431581791607
100238.04935197457962
100238.28412103993469
100238.07253560387471
100313.48793796941754
100309.92191191256279
100303.79179474865668
100295.67767071897106
100287.84634368393745
100283.16115319883102
100284.8547683275101
100292.84685613108741
100303.05209631475736
100308.54641564725898
100302.37458664177393
100283.67609679623274
100258.09370039659552
100235.51243763923412
100224.57587354848511
100228.32197154531605
100242.71682577405591
100259.66576116697979
100272.70634616530151
100280.81513120123418
100287.66993229440413
100296.85583200253313
100308.30431393122126
100317.92794514494017
100319.94195497308101
100311.08659648959292
100292.47575223413878
100268.97450707311509
100245.64027900779911
100226.42287828197004
100212.58530341935693
100204.99109341637813
100202.28653995295463
100203.49499479815131
100204.49545085635327
100202.82622335288033
100145.21468173371977
100144.01344122420414
100143.9029050149984
100144.91906492246198
100147.10780730059196
100150.56680618322571
100155.51234481648135
100162.15618304822419
100170.67822409063228
100181.09424367737665
100193.11617113718239
100206.02823915163754
100218.76042523005162
100230.17034022154985
100239.31627192604356
100245.66668505984126
100249.21067923402006
100250.34377134902752
100249.84992458303168
100248.52470266071032
100310.73802942868497
100292.0657122881239
100274.57180684313062
100261.62866810202831
100255.59742622538761
100256.80259010341251
100264.67758606320422
100276.20416223109351
100286.47020192633499
100288.73715711441764
100279.64467985296506
100259.15253248260706
100233.71772410270933
100212.83917865713011
100203.68292653531535
100208.31012019181799
100222.60498042778636
100238.73842172967852
100250.32953168680251
100256.30017582967412
100260.0227016727149
100265.65708131653082
100274.39362303618691
100283.39070644306776
100287.50015209714184
100283.16600784911134
100270.13140806110459
100251.34028704500815
100230.92635627291747
100212.74815859591763
100199.93468704776024
100193.43404990619456
100193.9664944356191
100198.96794484161364
100204.94931541199912
100207.47955945383001
100167.76837500634429
100166.75481554196449
100165.58172024402302
100164.53598055854673
100164.1319302542106
100165.07800216585747
100168.11527718926664
100173.79369800130371
100182.33801737338945
100193.5577378715825
100206.7051847208204
100220.54107078682864
100233.6175820078206
100244.5956510274118
100252.5764199160767
100257.25326133995259
100258.86499592206383
100258.18936201825272
100256.18888349736517
100268.64465299107542
100241.39097859722096
100226.48335659541772
100225.03092893197027
100234.22802845630213
100249.09694082163332
100262.99023572161968
100270.07712077214092
100266.56754060601816
100252.21638521440036
100230.7761288323527
100208.37568702176213
100192.51076213551278
100187.56397547649976
100193.71786022053857
100207.0746510662575
100221.15591057739221
100230.68854218522029
100234.44894232897786
100234.98935247506597
100236.47403761772148
100241.29603175465309
100248.4151504161855
100254.08036673137394
100254.67035769739596
100249.01472620091226
100237.23909917248238
100221.78347161349666
100206.29204546521942
100194.17852094769478
100188.67018113999802
100189.81526458683948
100196.83397459036496
100205.45856855934835
100189.73410663423419
100189.10214083714527
100187.34685052388522
100184.53092963951349
100181.06694318765949
100177.72368186012318
100175.46916368174425
100175.29486539990467
100177.99096960372117
100183.96322786525707
100193.13482552340429
100204.87630716721469
100218.05253789671406
100231.2121425690857
100242.9254761190823
100252.12870067014592
100258.28447386994958
100261.36829247625428
100261.83098489545227
100260.45024297974305
100245.71310164104216
100212.12076516488742
100197.52992989806808
100201.66683556180215
100218.81484765728237
100239.11071815238392
100253.53597936536244
100255.9254889050062
100244.81025482647237
100224.19656857120572
100201.26978513284121
100182.70889667305164
100172.7627025841939
100173.11766702165187
100181.8790364919696
100194.78604608835303
100206.8877489748993
100214.30184152811125
100215.96281068737153
100213.86314133254928
100211.79575219878461
100212.90014334516309
100218.03149257216137
100225.14827372583386
100230.77347554061271
100231.87429476123361
100226.85837642588012
100216.53265598216967
100203.84112213006301
100192.67004894348793
100186.74355429052957
100187.4284630165057
100193.60231677617412
100205.31076124067476
100202.63174891835661
100198.51593105618667
100193.4947171597596
100188.39105617358291
100184.14324321049207
100181.70398543051851
100181.86160658129666
100185.07429124442569
100191.40096418038593
100200.43850960416603
100211.31580887660675
100222.86195244963164
100233.8927586630889
100243.42356082570041
100250.82658367523982
100255.9058254877018
100258.77195821967325
100259.74668982707954
100195.25280086687417
100182.48854923257022
100191.05184217223723
100212.5862832434068
100234.83708194628707
100247.41428056079894
100244.06839454596047
100226.25374779570848
100200.19771326979389
100174.68541884380102
100157.65425256233721
100151.98988455733343
100156.66339473595144
100168.03461495265947
100181.67282767000142
100193.53828541187977
100200.51961433008546
100201.51519156759605
100198.1855314749846
100193.99804744047287
100192.76433746932889
100196.71090518891288
100205.09059494084795
100214.55394642298052
100220.06742437659705
100219.03250134398695
100211.81170841198764
100200.94354645752173
100190.73319018889742
100183.88442648141063
100182.57793228632363
100185.33792459979304
100214.4286886259215
100210.28617630938243
100204.71532525832299
100198.46280376968207
100192.40911776722351
100187.37882909785549
100184.04118764378654
100182.92511266068323
100184.34789414249826
100188.32078191745677
100194.56437182702939
100202.56997096705891
100211.65273647442518
100221.05277954485791
100230.07543045944476
100238.19989544950658
100245.14705251356645
100250.7629573783197
100254.99548133499047
100187.15482257914846
100196.64532878492901
100216.59415991020796
100235.4554652900988
100243.22842053596105
100235.42983249561803
100213.2696964264178
100184.01954973417742
100155.97917122516083
100136.72777009716083
100130.54426924463769
100135.89023439936864
100148.68606187382829
100163.80895115685416
100176.84895394345222
100185.18754228904436
100187.61051922023762
100185.42549102353223
100181.95687763660681
100181.3019122833939
100185.83269967816886
100195.26385837819544
100205.45663574170612
100211.71749374349019
100211.02194659554516
100203.74671496487281
100193.17784573003883
100182.53613105491968
100174.66154127733898
100169.75883146328852
100209.87448385007156
100202.50842175639991
100194.99245813301241
100188.29299832881952
100183.23385114232951
100180.29489735550305
100179.61897544631211
100181.1115808065515
100184.50689206724928
100189.4256580452784
100195.45732483034953
100202.22158635780215
100209.4077963767777
100216.82412261719583
100224.38001549702312
100232.01914043881698
100239.53938040837238
100246.69110220854054
100216.27484420416295
100228.89982089056866
100239.02891723792709
100240.06095947584254
100229.36689772350655
100206.95121610518254
100177.57302393123973
100147.38946382513677
100124.20284401538083
100113.11357146562659
100114.83052534480521
100124.83835293182347
100138.38552652123326
100151.33317989147326
100161.13933050254127
100167.03852084287792
100169.85106153345259
100171.75153908929497
100175.61846773113939
100182.77421670353215
100192.40264363988535
100200.21439092000946
100202.83960393934103
100198.06202877126634
100187.82425982992572
100175.60711074744177
100163.97305483324453
100154.20440699864412
100202.60316301435523
100193.68861504996312
100185.1632105531462
100178.11619912031165
100173.43081946404709
100171.67159183406329
100172.85647894437716
100176.41629301065404
100181.48017416227958
100187.21616513091431
100192.98870225236169
100198.43185743356298
100203.50671162558137
100208.47125287901144
100213.75977369792236
100219.88209157178062
100227.14700289386383
100235.50805547556956
100240.71719470911194
100241.78453639398504
100237.91294403575012
100226.80120790090587
100207.54627095343312
100180.65805782297684
100150.57439945705119
100124.07694164014538
100105.9503754919715
100098.96112239423383
100100.62278401598451
100106.85449995248928
100115.61229349790665
100125.81973101109907
100136.88341038860381
100148.07540427912318
100159.04988006503845
100170.24900837716996
100181.05353086396644
100188.75298805402417
100191.25465093131061
100186.72921715694247
100175.85799779056106
100161.37721715848602
100146.34241729727364
100132.49905709159793
100119.17354411959241
100181.84799815219594
100174.15714117056632
100168.40151443349896
100165.5745839792944
100166.15368675436184
100170.00995188465458
100176.38900605907838
100184.05053551436868
100191.61376741914137
100197.98335890579619
100202.61584752208728
100205.56239681187435
100207.40126150165452
100209.11114024660492
100211.86879477556795
100216.6159753279353
100223.86268745076086
100243.37728350213729
100240.55486825379194
100239.12973265226174
100236.01219090088853
100227.24878572107991
100211.83852602780098
100188.68868175824173
100161.88476579687267
100134.89245877623034
100111.89857578862575
100094.14408732583979
100082.75352710287552
100077.86938027839642
100079.39492993224121
100087.63398414192488
100101.97549873398384
100120.04580328530574
100138.61948600538017
100154.57929506570508
100166.0180355891207
100171.13757374956913
100168.87584230852372
100158.60413470699859
100142.58106789966405
100123.39617619945784
100103.93269338272512
100086.31423271415406
100166.51717302137695
100165.45255244660075
100166.66073477575264
100170.44468583728303
100176.63390027546848
100184.55040823272429
100193.07036614544631
100200.85296049405588
100206.69510527592502
100209.90282922322513
100210.54212722914235
100209.40360000386136
100207.75438600099005
100207.09206381750118
100208.7299916021002
100213.62122000055388
100222.46133541366726
100223.8877967978915
100228.09594523499254
100229.80186287513061
100224.48923285325873
100210.99110982999264
100191.78965154341131
100170.89376641629497
100150.10420542994689
100128.73400899828994
100107.27454761887202
100087.05236096786393
100071.54787569890323
100064.63523630768759
100067.61658089159755
100078.58276295446558
100093.77963157040358
100109.6189278481761
100123.1594394203712
100132.80808902144781
100137.36855276605638
100134.55203517769405
100124.2287438026251
100107.08833339621197
100085.55810701330483
100062.80012164756772
100041.45292735360272
100023.20732815901283
100170.69661372082192
100176.83717166766291
100183.52909223327879
100190.58895944141841
100197.59442165860673
100203.92931280613993
100208.8611001966492
100211.72245766191918
100212.17191527868272
100210.3953859055182
100207.15939144669392
100203.66167282847164
100201.30847678807913
100201.32474680391897
100204.62567345533171
100199.56119406949438
100210.81402714202704
100217.10185157907836
100214.4233604560286
100202.76218564121518
100187.28152093350946
100172.43794771711691
100158.58940792949579
100142.81243130995426
100122.95706125914876
100100.44324327092909
100080.11735641467385
100067.20588081693859
100063.33822036560741
100066.49452517651662
100073.10413013886136
100080.67264229310967
100088.56971617312229
100095.39243160882324
100099.43011066499457
100098.45748150497093
100090.54850335407536
100075.14522702674731
100054.14941371690657
100030.29003480589017
100007.24086510029156
99988.303815738632693
100187.39762963571411
100196.16696331676212
100203.19067972656921
100208.32690817650291
100211.52894170401851
100212.76902697660262
100212.08069955481915
100209.63368225538579
100205.80183713977749
100201.2417241516232
100196.87479940612684
100193.79830250111991
100192.95930629267241
100195.1221742353664
100186.50402824190678
100195.83177298898227
100194.24205019173678
100184.49652399720799
100173.33442122057022
100165.19775691136601
100159.30666148103774
100151.2330293530249
100136.75229710487474
100116.724638572603
100095.93451752094552
100079.0935362818127
100067.88070899706508
100061.08897274958144
100056.52582996753335
100053.53172183367133
100052.83115829291637
100054.89442151111143
100058.0953775687085
100059.30489927039889
100055.08441891511029
100043.74145975551801
100025.56574338264181
100003.42615921825927
99981.26426644611638
99963.825401385664009
100206.21996225243493
100212.47110506378522
100215.23220663555549
100214.96491636485734
100212.35145803792693
100208.15456956617709
100203.02130025511724
100197.48552884388482
100192.09759647160536
100187.47213159814419
100184.26256620604545
100183.01427018571121
100184.29012711289397
100166.86125721312419
100165.32201049556897
100157.38948415327468
100150.82031093940896
100149.3888800371642
100151.20018577766314
100150.78759742659167
100143.11874495095981
100128.33725218570908
100110.11603627698787
100091.87093449178792
100075.24142305729038
100059.73921374778729
100044.81239293247927
100031.3999633527128
100021.74021471422748
100017.61692957225023
100018.30661513122323
100020.63217927115329
100020.40572653176787
100014.20362489642866
100001.15822674271476
99983.1211268096813
99964.564486418123124
99950.490388821446686
100216.35772844824533
100216.83453930121323
100213.61723050074943
100207.87806887312036
100200.86342072703701
100193.63015644036932
100186.9116033888713
100181.16532491442922
100176.68522885518905
100173.71392365157953
100172.4388912422437
100173.16626156246639
100131.44377528531186
100125.54507588964771
100122.94486989147845
100126.65832136422978
100134.42506840375427
100140.3869320187805
100139.31845349044306
100130.40449738000461
100115.79486881537014
100098.34212993338588
100079.69057115736359
100059.40779603557894
100037.49516774143558
100016.03624465262692
99998.315728840738302
99987.567108052084222
99984.419449825145421
99986.545621059529367
99989.235568903473904
99987.944851831853157
99980.694089585056645
99968.535226181003964
99955.345631623757072
99945.967956401320407
100094.50293506127491
100094.31911863999267
100100.59072631658637
100111.65854537358973
100121.53767249973316
100125.33070908748778
100121.38693627194152
100110.79570121574216
100095.8709339829511
100078.0946007493767
100057.21706883951265
100033.06674357547308
100007.52615931701439
99984.361859613854904
99967.849295638312469
99960.274375563880312
99960.391965129718301
99963.89880704737152
99966.134248613700038
99963.894781654045801
99957.745523225836223
99950.477191705067526
99946.318829731782898
100073.96659288091178
100085.79657063737977
100097.55146620782034
100104.31876695984101
100103.72339879398351
100096.45655004639411
100084.7912402242946
100070.2550082312664
100052.43912644201191
100030.37462218734436
100004.8601189852634
99979.430381496145856
99959.006390585156623
99947.131702775091981
99944.037851217130083
99946.328172569963499
99949.563940092179109
99950.507836323420634
99948.676202798334998
99946.425589410151588
99947.006450967994169
100081.71164815228258
100076.61302623218216
100067.91025618440472
100057.53075377109053
100044.94318200816633
100028.04978614217544
100006.0314952146291
99981.577854071583715
99959.636142036993988
99944.610246257609106
99937.977275345649105
99937.433374260930577
99939.133006760981516
99940.239355421726941
99940.271813783532707
99940.990854445641162
99945.109005000311299
100035.76892879592197
100025.2986654775741
100008.96084419614635
99988.069984513291274
99967.055670849324088
99950.594281688434421
99940.774889641761547
99936.510107837122632
99934.86052593079512
99933.414010685854009
99932.541989161240053
99933.942989291506819
99939.914223029511049
100021.72969432675745
100011.97250117083604
99996.435895529051777
99978.334114837736706
99961.895630146944313
99949.770871281798463
99941.738487005932257
99935.62934234374552
99930.180050513125025
99926.276768839219585
99926.180391006811988
99932.096452934216359
100296.99456403667864
100277.55017143940495
100269.46451965741289
100261.15819527760323
100245.00053856018349
100222.43489331802994
100200.74729383825616
100186.81631142107653
100181.59298547758954
100180.57717914397654
100178.10120205364365
100171.84079104755074
100163.81529310932092
100157.94171992501651
100158.13242308869667
100166.37660738313571
100181.04746205081756
100196.45024373872729
100204.91215438918152
100200.73083074597525
100348.07074500923045
100306.29990797281789
100283.35547854394827
100273.39189246208116
100263.57976769660308
100245.3615744488925
100219.56802477172459
100194.45162798794627
100178.44581085689424
100173.24630248553876
100173.13549503103422
100171.02957562303345
100163.98712387270643
100155.19959397110506
100150.52852278541832
100154.54649664428143
100167.82512462470913
100186.37641067268851
100202.87354798692104
100209.9741666031332
100203.89777993071766
100185.98452028482279
100469.73043026347295
100417.97736696305219
100360.80604026686342
100314.58343744618469
100288.33690328558441
100276.68717329097854
100265.64742640705663
100245.62390240655805
100216.82816296957026
100188.49479211207654
100170.61574547426426
100165.58376613307337
100166.66934828013473
100165.17271897340834
100157.55733625109133
100148.00472213549074
100144.3008954354591
100151.70672696028487
100169.5090168055176
100191.47412606325815
100208.73600507670199
100214.42818233296566
100206.54296940461791
100188.00970347183465
100164.33149165323994
100141.25141788304609
100518.58785160476691
100486.05014149274211
100432.22670207086776
100371.29088674507511
100321.23176789157151
100292.26110612016055
100279.28524284342711
100267.54472264942888
100245.95021253272716
100214.41293045142083
100183.02953102126776
100163.47139638803492
100158.73220452309761
100161.24626400179113
100160.47350275392819
100152.429680060377
100142.08462981584307
100139.05291322882113
100149.3849400805193
100171.23889301872987
100196.18736059455841
100214.01147878126358
100218.32835768102086
100208.76179243918159
100189.74531087129435
100166.70289494126337
100143.72299962196848
100123.59067732996482
100538.4401330210967
100532.32410139027343
100499.93324508887599
100443.96201583655784
100379.77075749782671
100326.35142475621251
100295.0954209351039
100281.20924010970339
100269.28414784370398
100246.30948779906612
100212.197164865167
100177.99258404705324
100157.01299045453197
100152.77693969472602
100156.86172135995002
100156.94622327185061
100148.47177302415366
100137.27258852274099
100134.62136876411387
100147.43211672079633
100172.89483466709498
100200.46609712623467
100218.74576103419531
100221.76559260272188
100210.64058789682167
100191.26406874989334
100168.91058054946188
100146.13550838291121
100124.54950325870595
100107.07054895389592
100536.50271550365142
100547.98483142642363
100543.60441651089059
100511.60257833919604
100453.67366030816629
100386.33968328888295
100329.90978002775228
100296.75261013132695
100282.55618646611401
100270.8868195960822
100246.86988416188979
100210.35740247789363
100173.65822670535999
100151.43106934546086
100147.84491067606723
100153.48127603784087
100154.48160246768384
100145.48097696322657
100133.36672118208662
100130.87024964993179
100145.76160949723271
100174.38316792628029
100204.26015762786847
100222.93043019917968
100224.7174903529085
100212.20603417846723
100192.53844045584265
100170.8521797448484
100148.3282395391725
100125.41181029391009
100105.2322973318951
100094.55222382346983
100541.20610667865549
100555.36766353918938
100552.54493499349337
100520.49967674659274
100460.90094188907824
100390.85869213219848
100332.09735840572102
100297.51718969065405
100283.54384899885918
100272.22127566457493
100247.48425195642631
100208.70819178088277
100170.00443483880372
100146.84785274117894
100144.01746858551633
100151.09074763923127
100152.93310485560505
100143.40747778680816
100130.38320951101196
100127.90014359747875
100144.41517172960448
100175.60545930960507
100207.40850793734717
100226.39517468790291
100227.11005852362723
100213.48308305791579
100193.52907616340963
100172.44677885209967
100150.22949244492338
100126.19745860854164
100103.75804772158153
100091.11474871718383
100095.82475479914865
100295.02312655847345
100318.40415839846537
100331.5470048620773
100328.88838919966656
100311.27939666034945
100294.52282573276898
100544.18323367820994
100560.48579299933044
100558.74612025801616
100526.65531798054872
100465.72061563219177
100393.61938096446102
100333.01688020583242
100297.74721993104322
100284.15704919591371
100273.24185596621828
100248.05202596021991
100207.72441533704114
100167.4122243020247
100143.68974858916772
100141.40939894774056
100149.6145653007261
100152.05712539207889
100142.13196208867885
100128.31088193804317
100125.74304894234228
100143.38064174218744
100176.43728193765855
100209.70793450134806
100228.90572027128655
100228.807782886317
100214.36125393077964
100194.16791044683487
100173.51316695169953
100151.62647274525079
100126.73688913903607
100102.59746370310313
100088.618236133756
100093.11945469747297
100115.05101230101718
100261.70422156296263
100297.889042698298
100321.36754562021815
100333.95840985966788
100329.80515557354374
100310.70592109221616
100293.34831634379225
100545.63517460602452
100563.18263914939598
100562.13700539687125
100529.77095869460027
100468.07292222623073
100394.82422087862506
100333.27978068120137
100297.71971617836971
100284.52792633426725
100273.78613814925484
100248.3829731788428
100207.16280509269563
100165.91921250693849
100142.01912045788777
100140.11857267127198
100149.0349572992418
100151.74313918265398
100141.52653895222466
100127.18928770071943
100124.56668781298504
100142.8602849276358
100176.93980729540635
100211.04904775061004
100230.31916776526487
100229.74225108197425
100214.84145595619339
100194.50133986322908
100174.0580646940216
100152.44613086001482
100127.07304683006078
100101.85465629243117
100087.24523922393564
100091.73014699884516
100114.43138061606442
100141.86683247781184
100140.71116420772159
100133.12436758328113
100125.33683510181436
100117.55970692430856
100110.15534112213936
100103.72601851500804
100098.92059205398255
100096.29299987807462
100096.1078498421557
100098.4119578065438
100102.91993727356021
100196.06464570829121
100194.93013371624693
100192.96135266683996
100194.68955090567761
100200.78692740760744
100208.78410374907253
100216.16984593027155
100221.9275435522286
100226.94856653497845
100233.02614732427173
100238.83976309848367
100243.31726158125093
100243.8174159322225
100240.52946492476622
100236.90735200082418
100235.83275184070226
100236.76709811553883
100235.41400372206408
100226.72352973058878
100209.2271405831998
100187.47811089271272
100169.65318862321146
100163.45893419136701
100172.20490725449054
100192.94685335597023
100217.65547782901558
100237.40761851287971
100244.82242251120624
100237.26434412602975
100217.01131255409564
100190.07095223522629
100163.89408555190312
100145.28418270563998
100137.56156425924564
100140.02594269046676
100149.23724269896047
100148.44732821875368
100163.55318465270102
100173.54148378610262
100178.42277175132767
100178.80845934704121
100175.69102210225537
100170.15421950051677
100163.0384152426559
100154.8725455973763
100145.95550505680148
100136.54356978421856
100126.93393358922913
100117.57780927036947
100108.99353392567718
100101.8533240762772
100096.85589668578177
100094.51291977880464
100095.15539023667225
100098.65766269591404
100104.61575646750862
100112.30000415067479
100169.91674825666996
100175.14111892208166
100187.1603841909382
100204.78572446918406
100222.9116133719217
100235.98951458792726
100241.07549908026704
100238.53816716445726
100232.51841206668178
100226.85266675856838
100223.98236099341011
100220.67648703180021
100216.1557237636589
100208.91998234276252
100201.84771963336971
100198.21934882446658
100199.20821690339653
100201.75892839606968
100200.8143891205109
100193.43228234357957
100181.22303857577208
100169.35382729978301
100163.52602495506289
100167.12603225513885
100179.460803798298
100195.91972710263508
100210.02496738600894
100215.6629559971625
100209.27525632033939
100191.54384383966681
100167.36868933688675
100143.96327860388556
100127.99459212321381
100123.33772085928649
100128.78899619326694
100140.0029818261537
100140.56994600447069
100155.57989025587449
100166.12911956850439
100172.10663623391883
100173.95744889220805
100172.49306835909374
100168.52158784509811
100162.6233209358179
100155.17677057557739
100146.51776030319161
100137.01612718358228
100127.18680059823964
100117.6898753621208
100109.29613864647399
100102.8127355928591
100098.92803027185437
100098.15059163862315
100100.63856046122964
100106.07268919449416
100113.85762498926488
100123.01931457818137
100167.63968569184362
100193.09806958271656
100222.96320876890968
100248.82874914410058
100263.451059708721
100263.14447422501689
100250.30456564528868
100231.76583059816039
100214.52320183422125
100202.26559811619518
100193.48241973933182
100184.42118447594112
100174.90633737355529
100166.05150055047125
100160.97405009430076
100162.09925444572582
100168.25106944669096
100175.24352476123022
100178.69045704988821
100176.55467281372694
100170.07599547420978
100162.82429686254181
100158.48763974914618
100159.37404981197324
100165.13071019097697
100172.72209978799219
100177.18177734904748
100174.0480902553536
100161.60455443798855
100143.10301561703091
100124.7540922240587
100113.18351047468605
100111.78350015157775
100119.93117348152737
100143.46451838526991
100153.53889069243451
100160.09188817102404
100163.4578848315723
100164.18574348228867
100162.78741808344785
100159.63604915952601
100154.99883389956085
100149.08623367686232
100142.1164514052216
100134.42894036589132
100126.6028252345568
100119.48918556900753
100114.00398068220238
100110.90133081412932
100110.65103523172729
100113.32374865814927
100118.57832932884048
100125.83710672454617
100134.29563814423454
100174.56893454500823
100206.99174598824175
100242.30617941664241
100269.30390138411894
100279.94484988157637
100271.80040992701834
100249.64997216920892
100221.09435416788619
100195.80296953690413
100177.00588493284886
100165.03236633187043
100155.21133346302668
100145.47807907668175
100136.30752787659003
100130.61997347987199
100131.20685490718461
100138.62619862529391
100150.13953099226637
100160.89854199625552
100166.27514372621954
100163.99860471436114
100155.22142139225616
100143.62899394604028
100133.8956165502459
100130.15149805917463
100131.55360280410969
100134.80405192742182
100135.00508151135
100128.80890574498335
100117.27274440911424
100105.29847370636708
100098.66203718601901
100100.6974984503322
100110.11218688728695
100130.55698728111747
100138.84839436523907
100144.95730474623269
100149.16631219373085
100151.87850150070153
100153.45108388045628
100154.05148490652209
100153.67090873571578
100152.2160012206441
100149.61240889465262
100145.93118620748282
100141.47985324834008
100136.8310267139459
100132.73085356612864
100129.86785307705577
100128.74013170074613
100129.63234773476142
100132.54881470184773
100137.2797031023656
100143.41373253475467
100222.95517468277831
100253.50795799806656
100272.89017682037957
100275.53505895318813
100261.33333518737345
100234.66212807323609
100203.06630574916198
100174.4387972689583
100153.40458855917677
100140.279034961859
100132.04564250855765
100124.51301645564672
100116.64088342906325
100110.76238022118923
100109.64451111898234
100114.84408617751615
100125.28814498106658
100137.27152323967312
100145.43602034471405
100145.78876824109466
100137.47867611223774
100123.2032680229895
100108.43826326608541
100098.18559059943072
100094.71915150224231
100095.9290980406513
100097.38290808035526
100095.64989270010847
100090.27988656063098
100084.31368986921734
100082.02913759983494
100086.04430118612072
100128.16553568579548
100132.79222885402851
100136.71782829848235
100140.36021122477541
100144.004552407132
100147.75954087849823
100151.50686876122199
100154.86476466408931
100157.2734142717818
100158.28902939712862
100157.77884734720283
100155.89421958915773
100153.01943681387638