/*--------------------------------*- C++ -*----------------------------------*\
  =========                 |
  \\      /  F ield         | OpenFOAM: The Open Source CFD Toolbox
   \\    /   O peration     | Website:  https://openfoam.org
    \\  /    A nd           | Version:  12
     \\/     M anipulation  |
\*---------------------------------------------------------------------------*/
FoamFile
{
    format      ascii;
    class       volScalarField;
    location    "0.013";
    object      pPrime2Mean;
}
// * * * * * * * * * * * * * * * * * * * * * * * * * * * * * * * * * * * * * //

dimensions      [2 -2 -4 0 0 0 0];

internalField   nonuniform List<scalar> 
106891
(
850381.26075172424316
849579.85113525390625
848766.92777061462402
847945.33074188232422
847121.9661865234375
846302.38703155517578
845494.0291862487793
844697.1115837097168
843914.46791458129883
843142.55903244018555
842377.40603446960449
1163228.970890045166
1162065.6122398376465
1160902.8389892578125
1159742.7814674377441
1158589.0821056365967
1157442.7894668579102
1156299.8108730316162
1155152.253324508667
1153993.7816867828369
1152824.4640445709229
1151649.4621677398682
1150476.0317687988281
1149311.1863651275635
1148160.0372066497803
1147022.4796981811523
1145891.2757873535156
1144756.5054512023926
1143611.9568271636963
1142458.4817810058594
1141304.901782989502
1140164.1340427398682
1139044.6232070922852
1137945.8040523529053
1136861.2109718322754
1135785.8784122467041
1134720.5198574066162
1133669.6071376800537
1132636.0247802734375
1131617.9530410766602
1130608.8895301818848
1129598.3534317016602
1128576.4491634368896
1127539.0437889099121
1126489.6066246032715
1125434.4738101959229
1124379.1386623382568
1123326.2279930114746
1122276.4523105621338
856611.75596809387207
855778.75183868408203
854953.32024955749512
854136.62126731872559
853330.34352493286133
852535.74655151367188
851752.22645378112793
850976.37846755981445
850202.03946113586426
849422.07344627380371
848630.56084060668945
847825.66442489624023
847009.28775024414062
846187.79550743103027
845366.86005592346191
844554.23453712463379
843751.37260818481445
842962.05753135681152
842184.1604118347168
841413.40185165405273
1161988.2994289398193
1160825.6224060058594
1159670.9166297912598
1158526.0488758087158
1157391.3073482513428
1156262.2661285400391
1155130.4925384521484
1153988.8636665344238
1152836.547306060791
1151678.8334941864014
1150523.70627784729
1149378.9155578613281
1148250.4178562164307
1147137.269905090332
1146029.7011604309082
1144915.1452312469482
1143786.5594959259033
1142646.5700798034668
1141506.7703113555908
1140380.398380279541
1139274.5677852630615
1138187.5710296630859
1137112.8990726470947
1136045.9502410888672
1134986.6325931549072
1133937.6188163757324
1132901.1280097961426
1131876.1308403015137
1130857.2919178009033
1129834.6916217803955
1128797.3333683013916
1127738.6611938476562
1126661.0110855102539
1125573.2807426452637
1124485.5302257537842
1123404.4669666290283
855688.80964279174805
854849.43255424499512
854015.5679817199707
853188.28280067443848
852370.32495307922363
851564.74881362915039
850772.73698806762695
849992.07935333251953
849217.02694511413574
848440.2337646484375
847655.12507629394531
846858.730712890625
846051.50836753845215
845238.17545127868652
844423.03553771972656
843613.08540344238281
842810.00167274475098
842018.68370819091797
841238.7142333984375
840468.98725700378418
1162018.3305473327637
1160846.0108184814453
1159685.129825592041
1158535.9026374816895
1157397.8587779998779
1156267.3057556152344
1155136.7720127105713
1153999.5915355682373
1152855.5437831878662
1151710.0444202423096
1150569.9056148529053
1149441.601131439209
1148330.5364322662354
1147236.0163040161133
1146148.3486976623535
1145054.0319576263428
1143945.4245376586914
1142826.1348724365234
1141708.1613063812256
1140603.2230377197266
1139516.4320163726807
1138445.1280479431152
1137383.3724498748779
1136326.7156066894531
1135273.6035175323486
1134224.6058177947998
1133181.0654945373535
1132142.3539924621582
1131104.4707527160645
1130060.5385589599609
1129001.1922874450684
1127918.589376449585
1126812.8507022857666
1125693.8594055175781
1124574.9802436828613
1123466.0334434509277
853939.93098449707031
853100.8704662322998
852268.50918769836426
851444.37272834777832
850630.73227882385254
849828.78526306152344
849037.30948829650879
848252.34136199951172
847468.33547210693359
846680.0615119934082
845884.75267219543457
845082.37278366088867
844276.09750175476074
843469.05022239685059
842666.26979446411133
841869.30388641357422
841081.19409561157227
840302.71500587463379
839529.4854907989502
1161021.3330135345459
1159843.5314788818359
1158676.587553024292
1157520.1359367370605
1156372.7134494781494
1155229.536584854126
1154085.8048629760742
1152942.0113067626953
1151803.2059593200684
1150674.7120761871338
1149560.9802722930908
1148465.0571556091309
1147385.4030513763428
1146313.4781093597412
1145237.5705699920654
1144151.2468872070312
1143057.9526786804199
1141967.1289386749268
1140886.8330020904541
1139819.6786422729492
1138762.993293762207
1137711.596607208252
1136661.1327857971191
1135609.2987632751465
1134556.1347274780273
1133502.069652557373
1132446.0800724029541
1131385.870059967041
1130317.7206897735596
1129234.5026187896729
1128128.6356811523438
1126998.4162902832031
1125853.037992477417
1124707.5319175720215
853971.24373245239258
853110.39956092834473
852261.25460624694824
851422.78164291381836
850594.6744441986084
849776.93129730224609
848969.10729217529297
848169.66956901550293
847375.70243644714355
846583.45241546630859
845789.4221363067627
844991.83252334594727
844190.84717559814453
843388.8961067199707
842588.3712043762207
841793.25230407714844
841005.28802680969238
840226.97318077087402
839460.28572845458984
838699.77500152587891
1161374.8875980377197
1160173.6231498718262
1158981.8554306030273
1157797.6897449493408
1156621.6913623809814
1155453.0786476135254
1154291.2922229766846
1153138.4119739532471
1151998.9552879333496
1150877.3168258666992
1149775.5874061584473
1148692.6962490081787
1147624.9856204986572
1146565.6619110107422
1145507.0107517242432
1144444.9700126647949
1143381.8163928985596
1142322.5792655944824
1141270.7044582366943
1140226.0097255706787
1139185.1095771789551
1138142.5243530273438
1137093.3512516021729
1136037.0210838317871
1134975.906229019165
1133911.2585353851318
1132841.5657577514648
1131764.3649940490723
1130676.7817878723145
1129573.3920783996582
1128446.9957485198975
1127295.4624786376953
1126127.7928905487061
852465.20727729797363
851599.70280075073242
850748.34248352050781
849910.5755615234375
849085.18359375
848270.40899467468262
847464.20773887634277
846664.17389106750488
845867.7187614440918
845072.39162254333496
844277.00530815124512
843481.35184097290039
842687.16424942016602
841895.46004486083984
841109.72211647033691
840330.6797981262207
839561.99316596984863
838804.11826515197754
838054.41177177429199
1160672.396656036377
1159450.0794315338135
1158232.6839866638184
1157022.2801380157471
1155821.8207969665527
1154634.0943946838379
1153462.7200222015381
1152312.8795051574707
1151189.6602954864502
1150094.4617252349854
1149022.928186416626
1147967.214075088501
1146920.3561134338379
1145877.7210445404053
1144837.5941905975342
1143802.0424957275391
1142773.4439830780029
1141751.3144416809082
1140731.3115463256836
1139707.7804317474365
1138675.3223342895508
1137630.8663597106934
1136575.699520111084
1135513.889612197876
1134447.3924598693848
1133373.5880584716797
1132288.5453243255615
1131188.5683727264404
1130069.736270904541
1128927.8715076446533
1127762.9997501373291
1126583.4636363983154
852026.68829536437988
851149.71267890930176
850287.3975887298584
849439.20645332336426
848603.84251594543457
847779.85207366943359
846966.04947662353516
846161.08940505981445
845363.11708068847656
844569.83015251159668
843779.70480728149414
842992.06620025634766
842207.85329246520996
841427.17967224121094
840652.10611915588379
839882.01919174194336
839118.97126007080078
838362.37640380859375
837608.74719619750977
1159946.2527885437012
1158690.5674343109131
1157441.8402709960938
1156206.8396701812744
1154990.8192081451416
1153797.3353786468506
1152630.5866222381592
1151495.0989685058594
1150392.8733196258545
1149319.9243011474609
1148267.3631076812744
1147227.4287738800049
1146196.8873977661133
1145175.7081604003906
1144164.726448059082
1143163.1419811248779
1142166.6170806884766
1141167.9488220214844
1140161.1063537597656
1139142.9354572296143
1138113.2142429351807
1137073.1845531463623
1136024.6343402862549
1134968.0532474517822
1133900.6935005187988
1132818.0699291229248
1131716.6741580963135
1130594.2901744842529
1129449.7895679473877
1128285.3333415985107
850911.07874488830566
850041.02729225158691
849184.74684715270996
848341.98403930664062
847512.18193244934082
846694.43445205688477
845887.24240493774414
845088.52882194519043
844296.04289245605469
843508.38783836364746
842725.15978050231934
841947.18660545349121
841174.73067283630371
840408.85465621948242
839648.84271049499512
838894.4698600769043
838145.32445335388184
837394.77847480773926
1159201.8289375305176
1157908.6143093109131
1156635.1918106079102
1155388.5732402801514
1154171.8318386077881
1152985.5961685180664
1151831.8239231109619
1150712.2733402252197
1149625.1076793670654
1148564.0284423828125
1147522.9143295288086
1146498.7295093536377
1145490.1407165527344
1144495.4528198242188
1143511.3507232666016
1142531.0387783050537
1141545.8323764801025
1140550.4866008758545
1139545.1645050048828
1138531.5485172271729
1137510.139518737793
1136479.89208984375
1135438.3098888397217
1134381.9361190795898
1133306.9138069152832
1132210.9344043731689
1131093.554313659668
1129955.9811058044434
850910.49446487426758
850034.31900215148926
849171.71080589294434
848323.41856002807617
847489.4621410369873
846668.79267692565918
845859.1677360534668
845057.71909713745117
844261.91870307922363
843470.68012237548828
842684.36253929138184
841904.52268028259277
841132.07657241821289
840368.04724311828613
839611.62920761108398
838861.54433441162109
838116.88261413574219
837370.36463737487793
1158578.8432350158691
1157266.1568202972412
1155985.9408550262451
1154740.590087890625
1153529.0462436676025
1152351.836597442627
1151211.1669883728027
1150105.8351192474365
1149031.1299781799316
1147982.2289390563965
1146956.7204113006592
1145952.9940586090088
1144969.3649520874023
1144001.3863563537598
1143039.1247844696045
1142070.6527576446533
1141089.0314807891846
1140095.3599967956543
1139093.6365089416504
1138084.6003227233887
1137066.1228580474854
1136035.0418434143066
1134988.2217845916748
1133923.3808612823486
1132839.4275817871094
1131735.5840625762939
1130612.4191379547119
850323.75509262084961
849455.05767059326172
848600.78177261352539
847760.9409008026123
846933.58146095275879
846115.45091438293457
845303.28472137451172
844494.95732688903809
843690.42078018188477
842890.99828720092773
842099.03464889526367
841316.0711669921875
840543.46750831604004
839780.4999828338623
839025.61340522766113
838277.23137283325195
837528.58415031433105
1160785.9075241088867
1159419.8833847045898
1158077.6399307250977
1156767.2825984954834
1155494.61328125
1154261.4419765472412
1153068.3664226531982
1151915.6543350219727
1150800.6607608795166
1149717.6518020629883
1148661.4150905609131
1147629.4060382843018
1146622.634729385376
1145642.4899196624756
1144686.0451698303223
1143742.1298084259033
1142795.3686141967773
1141834.6221237182617
1140857.7609100341797
1139868.8185348510742
1138871.3008232116699
1137864.3804779052734
1136844.8923168182373
1135810.2613964080811
1134759.121976852417
1133690.1618137359619
1132601.7742404937744
850031.65333557128906
849174.68504333496094
848328.73775672912598
847491.12046813964844
846658.85052871704102
845829.75640106201172
845003.04227447509766
844179.20334243774414
843359.3656120300293
842545.13882446289062
841738.01212882995605
840939.63232803344727
840151.12672424316406
839371.47728538513184
838600.63556289672852
837830.75790023803711
1161407.1557712554932
1160042.987060546875
1158700.9547538757324
1157385.3524837493896
1156102.3572044372559
1154858.4405975341797
1153657.576868057251
1152501.079662322998
1151384.552942276001
1150298.2026767730713
1149232.2368183135986
1148183.9302577972412
1147158.5432434082031
1146162.7511520385742
1145196.5169353485107
1144249.3724040985107
1143305.5768947601318
1142352.5560512542725
1141385.4601345062256
1140404.8856678009033
1139412.9151859283447
1138410.0370559692383
1137395.7686061859131
1136368.8036632537842
1135327.0509986877441
1134267.2328205108643
1133186.4188022613525
1132083.467342376709
849758.22624206542969
848903.4869213104248
848054.00407218933105
847207.5139102935791
846362.75534057617188
845519.49651145935059
844678.27884292602539
843839.73569107055664
843005.00030708312988
842175.27401542663574
841352.64758682250977
840538.94208908081055
839734.56718063354492
838939.87846374511719
838148.82949256896973
1160705.6948223114014
1159374.4319496154785
1158065.5146369934082
1156783.8606204986572
1155537.1144008636475
1154331.966609954834
1153169.931547164917
1152045.2191944122314
1150946.1552734375
1149861.8679370880127
1148789.8938503265381
1147737.6566028594971
1146714.5397396087646
1145722.8637161254883
1144754.9806270599365
1143797.1369590759277
1142836.8612270355225
1141867.1076984405518
1140885.6456165313721
1139892.5158996582031
1138888.4157314300537
1137873.4014625549316
1136845.9926681518555
1135802.6353931427002
1134739.8010807037354
1133655.1468963623047
1132548.4724884033203
849688.5184383392334
848826.13493156433105
847966.63226890563965
847108.9239387512207
846252.58905410766602
845397.81728744506836
844544.70925140380859
843693.90777969360352
842845.9177188873291
842002.65207862854004
841165.82204818725586
840336.59791564941406
839514.9864559173584
838696.05277442932129
1160194.0796356201172
1158891.8991069793701
1157611.4178485870361
1156362.4294147491455
1155152.9509181976318
1153982.5440940856934
1152843.1269187927246
1151722.8701038360596
1150612.0207996368408
1149509.0344791412354
1148421.5272407531738
1147359.5232048034668
1146327.5890655517578
1145322.046989440918
1144333.2804069519043
1143350.5343360900879
1142365.6700420379639
1141373.6883335113525
1140372.0651149749756
1139359.6536426544189
1138335.8022327423096
1137299.024829864502
1136246.5672092437744
1135175.1809997558594
1134082.7961845397949
1132969.6816463470459
849766.36851119995117
848891.74194145202637
848019.32086181640625
847148.27162551879883
846278.30148696899414
845409.30877494812012
844541.49641036987305
843674.97553634643555
842810.98428535461426
841951.33347129821777
841097.0874195098877
840249.6684398651123
839403.85180473327637
1159819.9867897033691
1158540.6724681854248
1157289.743314743042
1156074.3381156921387
1154892.2473983764648
1153734.4873199462891
1152590.3499221801758
1151451.919527053833
1150318.4495048522949
1149196.6834907531738
1148096.0696430206299
1147022.3049049377441
1145975.1215934753418
1144949.2024364471436
1143936.635461807251
1142929.5404243469238
1141921.2726097106934
1140906.5973052978516
1139882.2823123931885
1138845.7163143157959
1137795.6029834747314
1136731.3267269134521
1135650.8781700134277
1134551.658182144165
1133432.236909866333
849982.64352035522461
849096.67644882202148
848211.71389007568359
847327.05344581604004
846442.47690391540527
845557.90902137756348
844673.02250671386719
843788.52004814147949
842906.26400947570801
842028.00422286987305
841156.47146415710449
840286.90129470825195
1159591.8676853179932
1158336.1253395080566
1157111.7353363037109
1155915.4660568237305
1154737.9374332427979
1153570.1167068481445
1152406.4766063690186
1151246.6949119567871
1150095.9703922271729
1148962.0760498046875
1147851.1017551422119
1146765.1449527740479
1145702.6230907440186
1144659.5950717926025
1143629.4642505645752
1142603.9657020568848
1141575.0899620056152
1140537.0716152191162
1139486.9808559417725
1138424.2043437957764
1137349.5097160339355
1136261.7520847320557
1135156.6346111297607
1134030.9540119171143
1159458.7222080230713
1158221.1869812011719
1157009.8212356567383
1155816.2449340820312
1154631.0475406646729
1153448.8128833770752
1152268.9005146026611
1151095.3200283050537
1149934.4352893829346
1148791.701192855835
1147670.8837509155273
1146574.1788330078125
1145501.1810455322266
1144447.2254428863525
1143403.3422794342041
1142359.6008758544922
1141308.5849494934082
1140246.9141635894775
1139174.2833442687988
1138091.0381507873535
1136995.4505138397217
1135882.331579208374
1134748.1976165771484
1158212.541446685791
1157001.4927425384521
1155798.7904586791992
1154597.8587398529053
1153397.4611129760742
1152201.240608215332
1151014.902982711792
1149843.8450050354004
1148693.0006523132324
1147566.2675724029541
1146464.8383522033691
1145385.4445018768311
1144319.8821544647217
1143258.1161251068115
1142192.5641498565674
1141119.8129329681396
1140038.7274055480957
1138947.3799018859863
1137841.4712200164795
1136716.2521076202393
1135569.850643157959
1154584.3878841400146
1153362.2307033538818
1152148.8982677459717
1150950.9773368835449
1149773.1306686401367
1148618.5454082489014
1147488.9106101989746
1146382.9825096130371
1145294.3373374938965
1144213.7625904083252
1143133.8437900543213
1142050.3627414703369
1140959.4969310760498
1139855.877498626709
1138734.0466938018799
1137591.306058883667
1136429.21510887146
1150886.9804401397705
1149709.1841697692871
1148553.2737674713135
1147419.0929985046387
1146303.8763732910156
1145201.594144821167
1144105.2272071838379
1143008.1922588348389
1141904.0626621246338
1140785.7626476287842
1139647.2696418762207
1138487.0714569091797
1137309.2842769622803
1150785.9563674926758
1149608.1014194488525
1148450.6331424713135
1147313.2551422119141
1146191.5434246063232
1145078.3402252197266
1143965.6117839813232
1142845.5886402130127
1141711.1264114379883
1140557.2982883453369
1139383.8131313323975
1138195.2914009094238
1275915.6747741699219
1274809.7535190582275
1273721.0505561828613
1272630.4102268218994
1271528.4037208557129
1270410.3490295410156
1269269.8832149505615
1268097.3515186309814
1266883.7956047058105
1265625.7357864379883
1264325.7399406433105
1262989.3472995758057
1261622.5475883483887
1260231.8778209686279
1258825.3624515533447
1257411.7517070770264
1255997.3954925537109
1254584.728874206543
1253173.9389190673828
1251766.3705158233643
1278296.7068901062012
1277152.9754962921143
1276050.375452041626
1274964.3577575683594
1273875.0419368743896
1272772.6366767883301
1271652.5105991363525
1270507.90065574646
1269327.4878101348877
1268100.2690753936768
1266821.7951107025146
1265496.3537044525146
1264132.5804996490479
1262739.7331809997559
1261326.3306331634521
1259900.8318023681641
1258470.7057666778564
1257040.6464023590088
1255612.3620204925537
1254186.6673011779785
1252765.905216217041
1251356.3941173553467
1281914.0030822753906
1280656.6141128540039
1279457.1061878204346
1278315.1783618927002
1277214.722728729248
1276130.1231288909912
1275040.4993362426758
1273935.9015445709229
1272811.6213874816895
1271660.3884468078613
1270469.8480548858643
1269227.3991088867188
1267928.2480812072754
1266577.4750862121582
1265186.2045745849609
1263766.9227924346924
1262330.8393726348877
1260886.5170364379883
1259439.9639930725098
1257994.4764747619629
1256551.5499954223633
1255113.0292911529541
1253682.7044544219971
1252267.3063106536865
1250876.0713653564453
1249517.0119724273682
1284284.6242198944092
1282977.7181434631348
1281719.7828559875488
1280518.9254741668701
1279375.9760456085205
1278274.5916938781738
1277188.2311115264893
1276095.5717468261719
1274986.2425727844238
1273855.6450901031494
1272696.6067390441895
1271495.4590187072754
1270237.9394950866699
1268918.954309463501
1267544.982852935791
1266129.7337474822998
1264688.199686050415
1263233.0772914886475
1261773.1152210235596
1260313.1738796234131
1258854.9765625
1257399.2677097320557
1255948.623706817627
1254508.1780014038086
1253085.961612701416
1251691.6415176391602
1250332.4441947937012
1249010.1982688903809
1286574.8814334869385
1285223.9711017608643
1283916.5529537200928
1282656.5435199737549
1281453.5836086273193
1280309.014045715332
1279206.5109920501709
1278118.7820053100586
1277023.3092384338379
1275909.2289619445801
1274771.9306945800781
1273604.3030605316162
1272392.1389293670654
1271120.1987361907959
1269782.81201171875
1268387.3587436676025
1266949.4190902709961
1265486.6876373291016
1264013.7425308227539
1262539.5819110870361
1261067.9196586608887
1259598.6721248626709
1258132.2925090789795
1256672.4114437103271
1255225.490966796875
1253799.8564128875732
1252404.2395439147949
1251044.8754348754883
1249722.725606918335
1248435.0966796875
1288764.9023704528809
1287368.5053215026855
1286020.6855735778809
1284713.3469734191895
1283451.2044486999512
1282245.3184547424316
1281098.0835590362549
1279992.7609996795654
1278901.2425403594971
1277800.723804473877
1276680.2628173828125
1275535.7868480682373
1274360.3219375610352
1273139.0754261016846
1271855.7534370422363
1270504.1098651885986
1269092.0359935760498
1267636.583309173584
1266157.2111301422119
1264670.1768913269043
1263184.8851184844971
1261703.8369293212891
1260225.776388168335
1258750.599645614624
1257282.656099319458
1255829.272497177124
1254399.4825019836426
1253002.1895370483398
1251642.4519691467285
1250320.4735336303711
1249033.4764003753662
1247779.1963710784912
1289389.3165454864502
1287997.3418254852295
1286650.5614376068115
1285341.9385757446289
1284077.4444332122803
1282869.1968421936035
1281719.7722034454346
1280612.2039451599121
1279518.0676822662354
1278413.9986133575439
1277288.7717227935791
1276138.4118824005127
1274956.0746574401855
1273726.4904804229736
1272432.5729637145996
1271067.9077777862549
1269641.0793418884277
1268170.6690006256104
1266677.8818302154541
1265179.7197418212891
1263685.5087203979492
1262197.1879577636719
1260712.4834384918213
1259231.0147857666016
1257757.6603717803955
1256300.5995635986328
1254868.8900604248047
1253470.9473400115967
1252111.3391990661621
1250789.7805881500244
1249503.4322662353516
1248250.2309646606445
1247032.6496620178223
1362651.5158863067627
1360559.0668678283691
1358467.8308792114258
1356406.8734970092773
1354400.6118755340576
1352467.2267208099365
1289822.7421360015869
1288433.7020320892334
1287087.6260948181152
1285778.1843814849854
1284511.8309020996094
1283301.2512454986572
1282149.4047889709473
1281039.1900596618652
1279941.8158836364746
1278833.6754302978516
1277703.7001190185547
1276548.2093544006348
1275360.657564163208
1274125.5252933502197
1272825.1872997283936
1271452.8481864929199
1270017.3815326690674
1268537.9879322052002
1267036.6503467559814
1265531.0366611480713
1264030.7883129119873
1262537.5123233795166
1261048.3270263671875
1259562.5272636413574
1258085.4039993286133
1256625.4541416168213
1255191.8943462371826
1253793.1680431365967
1252433.3271713256836
1251111.7944240570068
1249825.8526763916016
1248573.6864852905273
1247357.7714996337891
1246185.4787502288818
1365124.2654228210449
1363047.4952964782715
1360939.0105819702148
1358832.2284603118896
1356757.032958984375
1354738.5591735839844
1352795.0592594146729
1290049.9498462677002
1288662.0373764038086
1287315.9428939819336
1286005.6947269439697
1284738.2397060394287
1283526.5884265899658
1282373.6742172241211
1281262.2884540557861
1280163.4983577728271
1279053.4591102600098
1277921.1490840911865
1276762.9928531646729
1275572.4846515655518
1274333.9498195648193
1273029.5675621032715
1271652.4043235778809
1270211.5261383056641
1268726.8010158538818
1267220.851863861084
1265711.5120944976807
1264208.2217292785645
1262712.4980850219727
1261221.2107887268066
1259733.4264831542969
1258254.5686721801758
1256793.3988189697266
1255359.2676677703857
1253960.4000511169434
1252600.6260108947754
1251279.3534774780273
1249993.7543811798096
1248742.0725193023682
1247526.7937107086182
1246355.1278324127197
1245231.9903659820557
828663.32471656799316
827830.08423233032227
826997.78930473327637
826169.63510513305664
825349.62420845031738
824538.16815376281738
823737.41449737548828
822943.69071769714355
822157.58013725280762
821375.37374687194824
820592.88673400878906
1145759.7896595001221
1144546.3154697418213
1143339.8748970031738
1142132.4269027709961
1140917.3462829589844
1139693.8607120513916
1138464.9538173675537
1137234.2992172241211
1136003.9559745788574
1134774.1414127349854
1133544.2959861755371
1132316.534912109375
1131094.7805156707764
1129882.6065769195557
1128682.0723781585693
1127493.9790344238281
1126317.3045482635498
1125151.1411285400391
1123997.920955657959
1122864.7215938568115
1121758.9069347381592
1120682.6174049377441
1119629.7584323883057
1118589.3514175415039
1117552.2151794433594
1116515.5904922485352
1115482.6329174041748
1114455.6297283172607
1113433.2215156555176
1112412.1482601165771
1111389.9990463256836
1110365.5279445648193
1109337.3564796447754
1108303.3097305297852
1107260.2451210021973
1106204.5686569213867
836188.30027961730957
835317.0091724395752
834448.1467227935791
833583.82452774047852
832726.8643741607666
831879.14018821716309
831040.50202178955078
830208.81648445129395
829381.00072860717773
828554.17608261108398
827726.78466796875
826898.77458000183105
826071.9261531829834
825248.14113616943359
824430.13048362731934
823617.94075775146484
822813.70857810974121
822015.27155303955078
821224.39655113220215
820439.83129692077637
819658.20133018493652
1145884.8142738342285
1144670.5626773834229
1143464.0980262756348
1142252.2430877685547
1141026.9987373352051
1139791.4799270629883
1138556.0968971252441
1137329.1500244140625
1136112.0020427703857
1134899.6471500396729
1133686.5997886657715
1132473.6053295135498
1131267.7010822296143
1130076.2291450500488
1128903.2165470123291
1127748.1840476989746
1126605.76806640625
1125469.562292098999
1124338.1592559814453
1123217.7233390808105
1122118.103946685791
1121045.0701160430908
1119995.0015354156494
1118956.2730655670166
1117917.5527381896973
1116874.621223449707
1115830.0959548950195
1114786.8142623901367
1113744.7541046142578
1112701.9085903167725
1111656.324125289917
1110606.1326694488525
1109549.1112842559814
1108482.9998340606689
1107404.8787288665771
1106312.1141529083252
835316.21767425537109
834437.26372718811035
833561.26031494140625
832690.4302864074707
831827.95403671264648
830976.14845275878906
830135.3112735748291
829303.66143035888672
828478.20901298522949
827655.74666786193848
826833.94507026672363
826011.7620677947998
825189.84310531616211
824369.17117500305176
823551.68069839477539
822737.65387725830078
821929.81389999389648
821127.68221855163574
820333.97089385986328
819548.57215881347656
818766.85698318481445
1144957.8772430419922
1143751.1511383056641
1142532.5271892547607
1141294.206241607666
1140045.9956970214844
1138807.3011016845703
1137591.4519672393799
1136397.1676197052002
1135211.3310031890869
1134021.7084712982178
1132827.7923641204834
1131640.9650630950928
1130474.0479774475098
1129332.5050659179688
1128213.0357227325439
1127105.2765674591064
1125997.6952629089355
1124885.092565536499
1123772.9899482727051
1122674.7788219451904
1121601.0615005493164
1120550.9843673706055
1119511.8122844696045
1118468.553279876709
1117413.8924236297607
1116349.1399669647217
1115279.3087882995605
1114207.8589973449707
1113136.0275554656982
1112062.3342800140381
1110982.7512607574463
1109892.5284976959229
1108788.4673347473145
1107669.1812496185303
833593.90320205688477
832709.70314979553223
831832.02478408813477
830964.53532600402832
830109.95269584655762
829268.83041954040527
828439.39226531982422
827618.32928466796875
826801.70387840270996
825986.087158203125
825169.21726989746094
824350.73629379272461
823531.33804512023926
822713.38433074951172
821898.30428695678711
821090.20304870605469
820290.07978820800781
819501.77079582214355
818725.30864715576172
817956.15987014770508
1145289.9723644256592
1144081.3184299468994
1142857.6896343231201
1141613.4534454345703
1140364.3296642303467
1139135.2787609100342
1137941.4825668334961
1136778.2409572601318
1135626.2100162506104
1134468.0051708221436
1133302.3835430145264
1132143.5515632629395
1131008.0999717712402
1129902.5673694610596
1128820.6000633239746
1127747.2849750518799
1126666.9990787506104
1125572.2849674224854
1124469.5770168304443
1123375.7948970794678
1122305.2954578399658
1121257.8503894805908
1120218.6032161712646
1119169.1866321563721
1118099.7910499572754
1117011.7225036621094
1115913.0535831451416
1114811.7006855010986
1113710.9493370056152
1112608.0275363922119
1111495.9049873352051
1110368.0172080993652
1109221.8163108825684
1108059.1692714691162
832814.53191184997559
831920.27614212036133
831034.88430023193359
830162.79079055786133
829306.87168502807617
828467.30185317993164
827641.57184028625488
826825.44654655456543
826014.07134246826172
825203.19675254821777
824389.89420890808105
823573.3116512298584
822754.03852844238281
821934.86934852600098
821118.62039947509766
820311.03851127624512
819514.84756278991699
818734.44036674499512
817969.2020263671875
817212.76753234863281
1144416.702974319458
1143184.8341789245605
1141938.9836540222168
1140697.7048435211182
1139485.1002941131592
1138313.6661720275879
1137176.4895687103271
1136053.4078807830811
1134926.6089630126953
1133794.3854236602783
1132670.3929767608643
1131571.3246288299561
1130503.0830478668213
1129457.0703868865967
1128415.4181327819824
1127360.1329784393311
1126283.6700248718262
1125194.6149215698242
1124112.5262966156006
1123052.0503005981445
1122010.614429473877
1120970.8451290130615
1119912.9453430175781
1118827.3548774719238
1117717.5501136779785
1116594.6248245239258
1115468.6786861419678
1114342.2456035614014
1113210.7350730895996
1112066.4386653900146
1110904.0917510986328
1109723.1749744415283
831243.14053535461426
830349.40832901000977
829472.25907135009766
828614.83472633361816
827776.66313552856445
826954.06048393249512
826141.55385589599609
825333.47939300537109
824525.35507774353027
823714.54477119445801
822900.6428394317627
822084.68513107299805
821269.57795333862305
820458.34249305725098