/*--------------------------------*- C++ -*----------------------------------*\
  =========                 |
  \\      /  F ield         | OpenFOAM: The Open Source CFD Toolbox
   \\    /   O peration     | Website:  https://openfoam.org
    \\  /    A nd           | Version:  12
     \\/     M anipulation  |
\*---------------------------------------------------------------------------*/
FoamFile
{
    format      ascii;
    class       volScalarField;
    location    "0.013";
    object      rho;
}
// * * * * * * * * * * * * * * * * * * * * * * * * * * * * * * * * * * * * * //

dimensions      [1 -3 0 0 0 0 0];

internalField   nonuniform List<scalar> 
106891
(
1.1524695145121475193
1.1528174020418686663
1.1531860328411269734
1.15356905450570979
1.1539627688224436408
1.1543620043656015461
1.1547675925995781743
1.1551704507032904967
1.1555811972266727405
1.1559772377895922713
1.156394014742328169
1.1612604683016876095
1.1613146927202753211
1.1613668391240630218
1.1613525555991957017
1.1612288178192771149
1.1609946249152345299
1.16069062273922885
1.1603874566477476726
1.1601429409727652686
1.1599809756413912432
1.1598780137194648621
1.1597902779629400971
1.159691010950601342
1.1595879531384454264
1.1595144545929645385
1.1595045146610254427
1.1595613775642183985
1.1596493265685390295
1.1597199589835351929
1.1597464455439649988
1.1597447256997368559
1.15976179273219282
1.159833305476683174
1.1599516874711259806
1.1600663888242495059
1.1601114546769935032
1.1600402674032528338
1.1598502246621378298
1.159578720226387194
1.159272206459913912
1.158968592033891909
1.1586983024310955059
1.1584812029173163772
1.1583395588076417226
1.1582796662368097795
1.1582868511127566435
1.158338141646801267
1.1583988977581360924
1.1516380727955233265
1.1514646449958667596
1.1513442989774229641
1.1512820106316690172
1.1512803082895284312
1.1513389552932575821
1.1514578862147852867
1.1516348850870050669
1.1518686089804512918
1.152154824446485204
1.1524892718658603652
1.1528625842593536177
1.1532667490673602639
1.1536891608918402596
1.1541248568028659172
1.1545615094398979927
1.1550020929538593606
1.1554328268689009196
1.1558664278098929046
1.1562853271996078597
1.1612245446666156212
1.1612086383372473009
1.1611517876567913898
1.1610226363436977337
1.1608175901931589991
1.1605608542252918713
1.1603045095011623733
1.1600916401897634067
1.15993728452350231
1.1598224963333136905
1.1597059160042624271
1.1595710836784738351
1.1594349877792791137
1.1593402442405467134
1.1593217925758387832
1.1593798899359208932
1.1594726186461481454
1.1595401465650638784
1.1595479664954784216
1.1595127423014279788
1.1594898447002714992
1.1595272475149420721
1.1596310096586182059
1.1597597035885855998
1.1598451675013397022
1.1598328271533870915
1.1597043782739391293
1.1594812113345496218
1.1592002609861375984
1.158905051617704185
1.1586298736281830379
1.1584130611825171897
1.1582740459204696748
1.1582278876843281612
1.1582497760127214992
1.1583127950298817144
1.1515812807567784581
1.1514018282210045641
1.1512669127298147398
1.1511831952137894231
1.1511571357859156084
1.1511939775675488207
1.1512997385801908568
1.1514772603794294348
1.1517297096540994872
1.152053769174299136
1.1524457381502819509
1.1528912825297603639
1.1533783818817937572
1.1538835098368758203
1.1543979163674844557
1.1548960397207783668
1.1553858183863361386
1.1558386587522411215
1.1562866442347101703
1.1566887499333917688
1.1612872352497727313
1.1611350788820229418
1.1609560803173064603
1.1607452987691500024
1.160509085618130376
1.1602630549416836914
1.1600396518797344569
1.1598640729157907447
1.159742864807625784
1.1596496266747657877
1.159559840836088318
1.1594509189453348075
1.1593373428260913549
1.1592551575717251477
1.1592293748861155489
1.1592588545805431188
1.1593103661633274992
1.1593360018491758456
1.1593095124398917761
1.159250728313991452
1.1592112804547900495
1.1592383592698634054
1.1593404505148059425
1.1594785065272048552
1.1595837702697158189
1.1595967821614412419
1.1594903326905092733
1.1592761517557887974
1.1589929354549199925
1.1586932655897166367
1.1584341113191951589
1.1582569253827850186
1.1581943281137889734
1.1582382099751107329
1.1583570734731185592
1.1584954817946502281
1.1515954185137500243
1.1514587654499688352
1.1513630592266164143
1.1513156809178211049
1.1513246946052870801
1.1513995872877536009
1.1515479936384929172
1.1517760975392112854
1.1520841331267601682
1.1524687288255386353
1.1529188677610640035
1.1534182521896603202
1.1539474723426832448
1.1544855636486079931
1.1550173855268015544
1.1555273983427434281
1.1560145255745317705
1.1564669691666347173
1.1569039289821134719
1.160936758306519323
1.1606822336013531416
1.1604601537986984905
1.1602665563453431474
1.1600903654467540349
1.1599248441922036523
1.1597617285770778217
1.1595985122682337387
1.1594353158186521124
1.1592791011798611045
1.1591470548255122797
1.159056964973946835
1.1590295336932066039
1.1590622832659467356
1.1591298836379440029
1.159191539882845845
1.159204320786544562
1.1591501376804538292
1.1590516541061806066
1.1589607335379203956
1.1589319598400387168
1.1589893810414855224
1.1591119466214481193
1.1592430177785071344
1.1593212124430696264
1.1593086086961088554
1.1591888810056383274
1.1589798446339409921
1.1587242358190550373
1.1584750080924031135
1.1582893187243985533
1.1581970717244860491
1.1582133923691231292
1.1583119459349997538
1.1522153064540054945
1.1520317650180083024
1.1518752557651419366
1.1517516438131596423
1.1516686970177223426
1.1516352442794093314
1.1516614678498195978
1.1517552294006363489
1.1519235634186397732
1.1521669723995524581
1.152483740279945934
1.1528637292818277871
1.1532952390805171206
1.1537590122834968653
1.1542408224925451155
1.1547211929927798657
1.1551954640364532345
1.1556481968928686843
1.156088331985081652
1.1565016030065917718
1.1606818004656072052
1.1603880369742900491
1.1601799796261726971
1.160041081490726711
1.1599357457575876218
1.1598169287977915243
1.1596582704658482399
1.1594559603640066658
1.1592317839819183956
1.1590304940173448145
1.1588985190055858254
1.1588589150859480714
1.1589032771272773648
1.1590027827112836523
1.1591103324537044283
1.1591774635537939186
1.1591702928903560021
1.1590809126898544701
1.1589343083501031373
1.1587812036721865105
1.1586791591639460375
1.1586661940792215564
1.1587449000122456155
1.1588790287242156651
1.1590107517303076534
1.1590839118377775918
1.1590604202990457683
1.1589345239128745479
1.1587340079181764896
1.1585097152338097448
1.1583216041926049922
1.1582140356052150754
1.1582057234325733308
1.1520705347011235276
1.1518700612079870726
1.1517077874197387821
1.1515964675398899786
1.1515484560656426005
1.1515756199152307193
1.151685732232540893
1.1518848278346507374
1.1521709172602174753
1.1525402576632153284
1.1529791431904792276
1.1534747643106753046
1.1540033290057754023
1.1545519872764606895
1.1550939358346137276
1.1556287468067298896
1.1561284316636275538
1.1566133745005602318
1.157046402204428448
1.1601330802874312287
1.1599584509526676968
1.1598849412431593286
1.159853152542292154
1.1597926884482110399
1.15966045394448658
1.1594469420715631802
1.1591931994511361914
1.1589586537456486592
1.1588017689810328203
1.1587564410671638004
1.1588068150111106025
1.1589068945991174431
1.1590009212529779337
1.1590442175026225424
1.1590141841694174829
1.1589106715695318695
1.1587572178645031418
1.1585984513257361339
1.1584853286897447422
1.1584582197119799307
1.1585294391266627301
1.1586740525910796951
1.1588370974464314855
1.1589476524498487642
1.1589604533870088154
1.1588666224073791433
1.1586915788856653187
1.1584905962890781339
1.1583160703001671443
1.1582175107414238724
1.1582070637404160429
1.1521196342097561605
1.1519088424544365878
1.1517271472113173036
1.1515891415918060314
1.1515092374356559191
1.1515004255694489821
1.1515717537052068131
1.1517297200645981725
1.151975608015614716
1.1523064192129399697
1.1527136081500648501
1.1531846051716592161
1.1537039426405224507
1.1542540844491731011
1.1548181389248135531
1.1553812418647522176
1.1559300966088112972
1.1564581073326913874
1.1569524267179609467
1.1600770839613157026
1.1600307976391448506
1.1599957678707228936
1.1599033897861865672
1.1597140425610625858
1.1594373681934426745
1.1591185492785955891
1.158832470097811429
1.1586381988349814254
1.158568877960336696
1.1586198464864434499
1.1587379974285287876
1.1588595810018964549
1.1589293240187494849
1.1589175729433540685
1.1588264349680972298
1.1586794211136066668
1.1585209164116110347
1.158403417446955519
1.1583713874315402226
1.1584392306943489537
1.1585854913559787693
1.1587485360276739144
1.1588607745292587303
1.158874514918064591
1.1587827239836077098
1.1586180989490886262
1.1584267899386857525
1.1582600375537364101
1.1581480725525703512
1.151946359988326396
1.1518167787985775785
1.1517407958090852826
1.1517298348778894912
1.1517926999649483744
1.1519325621450999808
1.1521485006040215193
1.1524348218773798891
1.1527833546692434208
1.1531835132621821582
1.1536230351731751043
1.1540909122606350934
1.154574595621900901
1.1550664909062551278
1.1555565086012824505
1.1560410041970283768
1.156512487973200054
1.1569646467874916684
1.160126018680493809
1.1600528033122134985
1.1599124831480080999
1.1596923270595245192
1.1594150742571380786
1.1591145627637862159
1.1588428279190547965
1.1586403392542576896
1.158541748180456965
1.1585485640325159373
1.1586275325924804136
1.1587119658553415302
1.1587509604313284139
1.1587193455751847448
1.1586226197635847157
1.1584904724620861405
1.1583652346793571475
1.1582903237233803662
1.1582988829104399198
1.1583942848301582718
1.1585484933672380858
1.1586970596732355521
1.1587832842499490305
1.1587671029750223894
1.1586560007440769304
1.1584850456205921798
1.1582946286942510383
1.1581212526759305792
1.1519440038735853093
1.1518272191529947968
1.151769110667546725
1.1517800297782376795
1.1518671532365856169
1.1520322918957539571
1.1522722248510690601
1.1525761024892595685
1.1529310821164202583
1.1533223315557701305
1.153738275742565822
1.1541677657436624216
1.1546051816873637019
1.1550454818922561984
1.1554888664445051027
1.1559337941986913556
1.1563827000309689907
1.1568282511445644456
1.1601786446216550974
1.1599904648299246279
1.1597480918737839151
1.1594736255521145285
1.1591942343718479869
1.1589308744739426071
1.1587149565584542454
1.1585773358457678306
1.1585207888854365255
1.1585297678805570598
1.1585539916918135006
1.1585445552508701894
1.1584881119062004906
1.1583968133787554411
1.1582978302217088462
1.158219400092880047
1.1581862791948893676
1.1582166566499232374
1.1583043148444263082
1.1584123291739756301
1.1584995927956869277
1.1585254132083824263
1.1584744671473428124
1.1583589071036810569
1.1582057652962816086
1.1580421342727511558
1.1578816881119773363
1.1517719113031756883
1.1516874826533582965
1.1516729598141839386
1.1517384823809180272
1.1518872371395525445
1.1521174219721290743
1.1524184914280644065
1.1527772877034552224
1.1531746730400207479
1.1535976043361442223
1.1540306929860868479
1.1544718511162934682
1.1549117602779177538
1.1553608428316135548
1.1558098108112151436
1.1562800720261097176
1.1567434367890334634
1.1603281784360000017
1.1601684903322495579
1.1599785622996423573
1.1597695846415898568
1.159548561150539836
1.1593358902679877787
1.1591323448784982553
1.1589588926830947102
1.1588145624351748886
1.1586960130902708155
1.1585777289830636594
1.1584446850585325972
1.1582916592251062404
1.1581301261273437841
1.1579898853510846024
1.1579008507579484633
1.1578770188563334287
1.1579157316823986967
1.1580012392641412244
1.1581130754173321051
1.158218988916420944
1.158285572052199397
1.158281862557948072
1.1582060605779715967
1.1580689691296850441
1.1578955127067960262
1.157714548203679028
1.1517896733184025404
1.1519068409875812264
1.1520966899957205687
1.1523562387228365456
1.1526787704405825341
1.1530519353542361127
1.1534609656803476163
1.1538878974668911326
1.1543177342885206915
1.1547382912865498117
1.1551456408830889089
1.1555408693080158056
1.1559301499955474402
1.1563227921513719032
1.1567255023762128552
1.1571443582494476132
1.1600769758968461076
1.1599888213487956623
1.1598846954548980293
1.1597477839339660477
1.1595725603536137793
1.1593759347424403838
1.1591921650460532689
1.1590506180608690645
1.1589461752062104605
1.1588409976719884487
1.1587036457233028663
1.1585161754074351226
1.1582933153007102245
1.1580724325555014076
1.1578871934656345122
1.1577551391887495047
1.1576795638445438463
1.1576578684128242536
1.1576804110822120908
1.1577357094368254664
1.1578031519726093013
1.1578456186967560626
1.1578402004674359649
1.157773421313034623
1.1576518656579168898
1.157496839620757445
1.1573333022680223348
1.1571840754260225292
1.1516138062252596619
1.1517064995470356337
1.1518597339664968793
1.1520714042703206204
1.1523369153822116129
1.1526482117600689303
1.1529966890751073283
1.1533706169343898029
1.1537639474244125726
1.1541674617200128328
1.1545859418987995948
1.1550116932022216343
1.1554624330305547364
1.1559197058527370672
1.1564134925084317285
1.1597882840253246339
1.1597695354584787175
1.1596944441837697681
1.1595564612746709354
1.159378899413702424
1.1592168054323166437
1.1591053522928631558
1.1590319940764648443
1.1589469132824192776
1.1588035520264885481
1.158589899515387156
1.1583335339037699185
1.1580798850090858743
1.1578584827006446201
1.1576775444679394678
1.1575349605104092721
1.1574343416188519473
1.1573872940697267353
1.1573891085630425568
1.1574234101211868797
1.1574609090522858246
1.157469456773600136
1.157426609678691598
1.1573324940234435143
1.1571993281549319832
1.1570538043750462354
1.1569256722198353327
1.1516375617277516685
1.1517532369249332547
1.1519107018979981572
1.1521101690664394823
1.1523509390279469411
1.1526312070189745906
1.1529466523459919181
1.1532943388781236038
1.1536679116066517192
1.1540676085982266574
1.1544865504592149996
1.154931962875470175
1.1553924523179417427
1.1558792513660052226
1.1595020380824985207
1.1594649337541651501
1.1593596724796857433
1.1592252966629739142
1.1591216779903183998
1.1590772650111345055
1.1590665021009280977
1.1590281915469244911
1.1589033895238647354
1.1586824896144722885
1.1584001930697642724
1.1581029957965671695
1.1578222392446393396
1.1575705673967067177
1.157352404248106259
1.1571810191497200471
1.1570748925412690511
1.1570429586598867111
1.1570694209094647409
1.1571197518445111019
1.157152384721444438
1.1571389482205958199
1.1570691428580541782
1.1569581071750916212
1.1568352490810656086
1.1567412574130904179
1.1520459615703257938
1.1522300764201156564
1.1524327566489631636
1.1526569099157615295
1.1529034947303937741
1.1531771013312854812
1.1534759502823668242
1.1538027385186162554
1.1541520719230078384
1.1545285162183021033
1.1549245506651772963
1.1553478438905633308
1.1557843452702827314
1.1592420154606235538
1.159158328301319596
1.1590525973888066158
1.1589918695268639492
1.1590004119951888839
1.1590464166019847081
1.1590632730699752528
1.1589880163643859756
1.1588062767903521966
1.1585435581742924427
1.158234641830724776
1.1579085985955643867
1.1575822491800802361
1.1572724792265984828
1.157005378952726371
1.1568127226331095248
1.156716063331929778
1.1567096808009484921
1.1567612935481881298
1.15682540721374294
1.1568598587465299676
1.1568439033600870225
1.1567817779843398984
1.1567039841743784745
1.1566501617691216097
1.1521560035362392593
1.1523562321942733
1.1525792815928637136
1.1528295201119773683
1.1531135970113657319
1.1534323359954503641
1.1537878973908393121
1.1541731096006957458
1.1545883707957935727
1.1550205910783533092
1.1554753344282964189
1.1559313228905994109
1.158910797481387478
1.15882618323961184
1.1587968814867399825
1.1588411502666626784
1.1589262297343458918
1.1589857191542343173
1.1589586836209697651
1.1588257254117406703
1.1586004730527335038
1.1583114337489741619
1.1579843598175472152
1.157631942772722855
1.1572712794109869527
1.1569348355555024721
1.1566619144992655865
1.1564872382743163204
1.156419533861360982
1.1564384982037960725
1.1564997840895179237
1.1565572519731046608
1.1565842939074877371
1.15657954607226654
1.1565668007133897977
1.1565804152139143035
1.1586392424842875126
1.1586397761053619515
1.1587061353879659631
1.1588101971766577858
1.1588865903907734634
1.1588807719878544411
1.1587706436750857542
1.1585642026947031713
1.1582867824425924219
1.1579626846284412078
1.1576048316745310984
1.1572270063660428097
1.1568585033409530816
1.1565417416778893678
1.1563205563730605263
1.1562187730314128498
1.1562270012645639028
1.156305811564049435
1.1564084437571191533
1.1564967662978895557
1.1565628866001707031
1.1566183231189308689
1.1566888652132210069
1.1585375823351629077
1.1586432638797803385
1.1587320516999919384
1.1587526032507724505
1.1586779140456293646
1.1585110649744820854
1.1582735187815793587
1.157985799399265936
1.1576557497975521471
1.1572879746838651283
1.1569019305362939765
1.156538998887860048
1.1562513687026416687
1.1560779407134946783
1.156027012971957868
1.156071804790577362
1.1561708655911080434
1.1562872825913104169
1.1564034026161369439
1.1565242789763094944
1.1566638077548476726
1.1584800582655623291
1.1583308941779766332
1.1581267518888822554
1.1578890504508676518
1.1576207691080422357
1.1573126069149806128
1.1569660402616692707
1.1566119949429560787
1.1563010041535848327
1.1560798470871882504
1.155970054602107
1.1559592539846350601
1.156017145012936842
1.1561161740483361093
1.1562430194161694708
1.1563987876891079765
1.1565903323158071014
1.1575126600265521759
1.1572620529068682327
1.1569674704251573516
1.1566464399770981508
1.1563440822455308687
1.1561093153243331422
1.1559701816019807286
1.1559263123393113126
1.1559574783489066085
1.1560416898372010142
1.1561736295278168818
1.1563533064020898866
1.1565815414341189538
1.1572486966753128268
1.1570131817667337337
1.1567316535129141819
1.1564380084767811319
1.1561794479848286343
1.1559936262518231143
1.1558938168018735304
1.1558720957932129281
1.1559196815983181494
1.1560358643933070777
1.1562224811653309953
1.156474574271489919
1.1643385217934043574
1.1643974437589883486
1.164612113540975713
1.1648517789597332417
1.1650085706673005692
1.1650516741727805492
1.1650121535602231404
1.1649388977396866185
1.164852390038914054
1.1647403963813900418
1.1645816942569364727
1.1643729425013082945
1.1641329090302281468
1.1638850530072248901
1.1636506644646722464
1.1634442278517433955
1.1632669677311657797
1.1631033513214052988
1.1629302496845608239
1.1627372929338217755
1.1646016437910879926
1.1643372443022070861
1.1643141127386298361
1.1644751077486410473
1.1646898269454259989
1.1648486022142092722
1.164913179092960549
1.1649120274012483289
1.1648911413704894358
1.1648621701458674593
1.1647937771967660225
1.164653235477002502
1.1644411471165894145
1.1641991111801037739
1.163977532743959431
1.1638060177521856176
1.1636798353361432756
1.1635653568949093639
1.1634165212850056115
1.1632015256969334693
1.162925588753902284
1.1626331749062681631
1.165724665108427649
1.1651665805816944221
1.1646367237406238804
1.1642761243745587407
1.1641667422173720414
1.1642650479194589508
1.1644403954700357495
1.1645809236234110351
1.1646436037387144502
1.1646587398891095066
1.1646742533606979642
1.1646950543178222759
1.1646713089081628389
1.1645522525532769897
1.164336243745646815
1.1640821092622941624
1.1638679342397832972
1.1637382779678664413
1.163679665748315939
1.1636329913623002508
1.1635262774170425093
1.163318018180452329
1.1630198026593765448
1.1626894021101410459
1.1624001510552173233
1.1622116500014634255
1.1659693027666455656
1.1655734640080357423
1.1650678834012513363
1.1645678326603714492
1.1642211589466811006
1.1641106938354048861
1.1641862079195881563
1.1643051441139302682
1.1643440350283300599
1.1642662512230548266
1.164125004386781681
1.1640010839224828043
1.1639208086088337346
1.1638364851708757897
1.1636814182891448421
1.1634419031175282644
1.1631726434106901547
1.1629595866363793277
1.1628539581897501254
1.1628399955395196663
1.1628505683788532554
1.162809862366888991
1.162680327691909099
1.1624773227757467797
1.162253101348189821
1.1620588598197501007
1.1619213601059428242
1.161843953723138867
1.165279955845025972
1.1652517959824097993
1.1650512136086750292
1.1646831538604542899
1.1642518883465415858
1.1638911459617695687
1.1636782913579120091
1.1635660393858140438
1.1634276954754945166
1.1631613722897653496
1.1627746020120526271
1.1623669226741371041
1.1620552846300371552
1.1618738762642375484
1.1617563237221502082
1.1616036428736684627
1.1613834377995098102
1.1611534069706199723
1.1610183367800759324
1.1610448349646373956
1.1612118062926326534
1.1614251529806818297
1.1615769164880103137
1.1616033129394236489
1.1615041355793107591
1.1613265420675096262
1.161118720338289334
1.1609071999889470916
1.1607064385979068977
1.1605352731332163607
1.1643066918774271912
1.1642980566533063236
1.1641685310329585867
1.1638250552516216096
1.1632781266282059551
1.1626572892099305001
1.1621252195315319167
1.1617837289376640175
1.1616014924894553229
1.1614472879028496788
1.1611983417482676373
1.1608482796027064232
1.1604915522350964796
1.1602428764197250111
1.1601343861918929079
1.1600895618952264954
1.1599974175754483863
1.1598181501910544977
1.1596138421242037087
1.1594946331199840195
1.1595281933051559964
1.1596852296127369009
1.1598608195246664643
1.1599486527619546905
1.159899181062338025
1.159732658784351722
1.1595082289289202482
1.159268117670541054
1.1590195628429742492
1.1587620214769525084
1.1585175358329333761
1.1583410734955268406
1.1631849023674263321
1.1632310266921603858
1.1631398805837280808
1.1628084747156202106
1.1622471004592200838
1.1615943907014250058
1.1610309346750946613
1.1606673102873468206
1.1604793631717329472
1.1603209062548143216
1.1600560470451817263
1.1596726800911518751
1.1592833563288924559
1.159016127629590498
1.1589151184529506988
1.1588989628037731361
1.1588438474498461428
1.1586968888227926477
1.1585204613037070054
1.1584307159986606539
1.1585002037473441927
1.1586966194387005036
1.1589047222867154829
1.159011164517495196
1.1589668203123133505
1.1588006635555196944
1.1585779429888423131
1.1583430168791799542
1.1580976378710721164
1.1578369168235351783
1.1575888563703644607
1.1574212737645093174
1.1573984841674245239
1.1635712457925584395
1.1637359110178711052
1.1638109872207114126
1.1637551700978989722
1.1635744739670788039
1.1633983265287568543
1.1630814248946272915
1.1631698550344657939
1.1631141866001359908
1.1628106175885499773
1.1622676399315312601
1.1616280075796279192
1.1610791778353599657
1.1607382813197399951
1.1605796702879698223
1.1604485859145139415
1.1602024027048294386
1.1598292731641597353
1.1594512957881466519
1.1592073096772319563
1.1591416171373023491
1.1591676540026252251
1.1591508038910072198
1.1590325985069978021
1.1588789550531026773
1.1588147063781448765
1.158916738008839431
1.1591495374311848732
1.1593891929492525783
1.1595160130617290228
1.1594837608814336782
1.1593311221391120469
1.1591293733271006428
1.1589239125422534649
1.158709765186861862
1.1584714673602030111
1.1582377150658640375
1.1580850026440125955
1.1580834051598269951
1.1582279098796939287
1.1624445876945121991
1.1627335080840028869
1.1629170510172883723
1.163011181192490362
1.1629670554198299204
1.1627958018260025064
1.1626337378323703398
1.1639413801952225302
1.1640739757037328328
1.1640584053676801268
1.1637870494901685348
1.1632721921339583826
1.1626568561714387684
1.1621329025592495032
1.1618214501522590165
1.1616974680179501522
1.1615988455085253239
1.1613816102021599086
1.1610318342964058846
1.1606769939303196448
1.1604623895330696826
1.1604302625619948852
1.1604916541965484278
1.1605053807254765985
1.1604123949485669609
1.1602819317046397796
1.1602446578125633625
1.1603793652829712535
1.1606471378665788041
1.1609194106550884129
1.1610718293534771917
1.1610603100122407483
1.1609287423735699107
1.1607508221232478718
1.1605720426802563772
1.1603847055361891094
1.1601663979661416271
1.1599470855172511197
1.1598125437050050834
1.1598346310189902031
1.160009492390088548
1.160228549175906565
1.1517502847720555437
1.1519523011932648604
1.1522008716014104923
1.1524892963175568106
1.1528150774352834418
1.1531701260823556954
1.1535598225414649409
1.1539681853675431977
1.1544129948303278876
1.1548508278803473193
1.1553373521256562473
1.1603960130644412896
1.1603443400420068166
1.16024079185543183
1.1601029189272853426
1.1599339040876157636
1.1597299434418515407
1.1595033715661029472
1.1592871772304378375
1.1591283634827282967
1.1590682969750931708
1.1591032960194465051
1.1592083857161412652
1.159329171928538571
1.1594245500566859874
1.1594839011011179863
1.1595054306937835342
1.1594781259765780668
1.1593789448505440465
1.1591920492582186153
1.1589360764343914489
1.1586756578012700203
1.1584948435230335573
1.1584594162515684523
1.1585841740465643301
1.1588208293137682858
1.1590738902909003549
1.1592428491144237679
1.1592500086721919672
1.1590723419142043848
1.1587445520355028616
1.1583458990678476841
1.1579741989699854354
1.1577193746457872248
1.1576318614580651811
1.1577113654237178864
1.157916369601657669
1.1524394883360788988
1.1523234941330886549
1.1521807755860795641
1.1520214673853226284
1.1518594960001466987
1.1517108598265284325
1.1515904248981834179
1.1515100675312504031
1.1514764550354348316
1.1514939828053489812
1.1515633635207196406
1.1516860571547546943
1.1518614110240681381
1.1520898673643471533
1.1523712114277333551
1.1527048676506592706
1.1530890217328286784
1.1535187687601626827
1.1539892411936927274
1.1544812860382696051
1.1550035615625744434
1.1601059186890871899
1.1601398790576837872
1.1601985584224121517
1.1602438163434978247
1.1602201771644871098
1.1600895393431436275
1.1598564869411416289
1.1595671956443942552
1.1593012860156204358
1.1591245454994507647
1.1590705182950304941
1.1591001986306062044
1.1591731799397628766
1.1592324412037067205
1.1592588674868047338
1.1592508116655932948
1.15921017887656852
1.1591249563815126944
1.1589816296155805997
1.1587897755923168841
1.1585926980435001798
1.1584511633452845292
1.1584142053845674081
1.1584955400346408361
1.1586636368527927221
1.1588500587425996091
1.1589748590761874691
1.1589719611554805123
1.1588120732027875626
1.1585165670531212267
1.1581542604436245725
1.1578186172673810006
1.1575960396644799921
1.1575395496449469857
1.1576446561464306395
1.1578628252593123893
1.1522013790725462723
1.152088234754379048
1.1519584409556204996
1.1518204125926077008
1.1516858962122258347
1.1515686858896516664
1.1514806774001358214
1.151430911118776157
1.1514240874625210065
1.1514642175242861821
1.1515522696738804687
1.1516912084412362915
1.1518814891779332044
1.1521259476459768667
1.1524244481981453792
1.1527781099209568616
1.1531813525564840184
1.1536349350981613959
1.1541195119715612627
1.1546357876971289347
1.1551564443657595938
1.1600802581211933084
1.1602578572359512066
1.1604090712747840985
1.1604480947171209593
1.1603223343753288344
1.1600315499750706305
1.159640908627354694
1.1592542817422526458
1.1589664413903759677
1.1588228556965649574
1.1588019943277079182
1.1588404269635532717
1.158892658861734537
1.1589235896494256561
1.1589258672440878595
1.1589058744615359231
1.1588618141177187137
1.1587844013581545255
1.1586719407343819555
1.158541233940570514
1.1584260579948508774
1.1583634895710315238
1.1583742380861379306
1.1584535830831446113
1.1585677430953096323
1.1586619791364312082
1.1586748120715129051
1.158563409579808523
1.158324014369950028
1.1580085349621016544
1.1577023589766737288
1.1574952289899995694
1.1574420479640936676
1.1575496349345020253
1.1518646527732314677
1.1517374496806433992
1.1516186736850713146
1.1515192694106997084
1.1514506616742561373
1.1514213183207020474
1.1514372229004798953
1.151499955772941286
1.1516103660375331952
1.1517650698343906424
1.1519634848148117001
1.1522019961512033337
1.1524832249761089997
1.1528051260933163125
1.1531709630059194804
1.1535719748379038574
1.15401432184327013
1.1544716230929508161
1.1549601840625489668
1.1554361525588661141
1.1601056910138409783
1.1603372181773579097
1.1605288911820983433
1.1605747375511969999
1.1604175110302319407
1.1600683618459335378
1.1596115805495972317
1.1591560041745716525
1.1588162903149861194
1.158633012548525576
1.1585976824757200365
1.1586392197696617767
1.1586946054426536801
1.1587218046301872576
1.1587113787733145376
1.158673467999633111
1.1586229334140654146
1.1585661835863518832
1.1585013762293439044
1.1584260810216946425
1.1583451358215786087
1.1582739589695525417
1.1582307083783898172
1.1582281115633499269
1.1582683272439560085
1.1583145161829606629
1.1583193457315261732
1.1582369615313186095
1.1580510298982069628
1.1577959358925897781
1.1575469086499983185
1.1573868260730135749
1.1573701077360400991
1.1574971963304836464
1.1516874153732525876
1.1515315290932861547
1.1514006408778489909
1.1513074548718789103
1.1512636555589843557
1.151277556138158964
1.1513531759503194962
1.1514894074077959285
1.1516820777455187841
1.1519238346357338898
1.152207381731153335
1.1525258006151795076
1.1528731082033401023
1.1532481325045587095
1.1536443040416843875
1.1540629313379824339
1.1544955410917991934
1.1549421206235817028
1.1553900470682851864
1.1558482847769959712
1.1604155416509149834
1.1606016333964350729
1.1606159291841628978
1.1604165399660362201
1.1600314903446169446
1.1595425364342022423
1.1590619939424879892
1.1586932414490813681
1.1584914174889395788
1.1584481900362879614
1.1585044116997260666
1.1585768589922282867
1.1586079301680098919
1.1585821935656976933
1.15851094992084791
1.1584203361337708227
1.1583341149409374093
1.1582632870983589068
1.1582017301731994952
1.1581407742571192543
1.1580782311886292923
1.1580219502037654156
1.1579883869900307047
1.1579838610679693556
1.1579955321757036124
1.1579852152441656443
1.1579116845345900355
1.1577596982588511665
1.1575534159342124596
1.1573542020087905779
1.157233150593576898
1.1572384299763154303
1.1516498211236960714
1.1514884709686157294
1.1513593299023745509
1.1512742220413152427
1.1512421683866220778
1.1512686725888072736
1.1513553897617607724
1.151499190128170369
1.1516940966219508802
1.1519315150877591503
1.1522069680068356412
1.1525109915673896754
1.1528463133565729493