/*--------------------------------*- C++ -*----------------------------------*\
  =========                 |
  \\      /  F ield         | OpenFOAM: The Open Source CFD Toolbox
   \\    /   O peration     | Website:  https://openfoam.org
    \\  /    A nd           | Version:  12
     \\/     M anipulation  |
\*---------------------------------------------------------------------------*/
FoamFile
{
    format      ascii;
    class       volScalarField;
    location    "0.013";
    object      T;
}
// * * * * * * * * * * * * * * * * * * * * * * * * * * * * * * * * * * * * * //

dimensions      [0 0 0 1 0 0 0];

internalField   nonuniform List<scalar> 
106891
(
302.15058544573048493
302.09200813588972778
302.02289008465595543
301.94442265404046566
301.85777934947867607
301.76494899246239356
301.66653947162950544
301.56589965092041439
301.46141277117806112
301.36031752937714145
301.25370871006089146
300.22175822809424517
300.23560486986417573
300.24953990999881626
300.26803077668341757
300.29593837096894049
300.33732240981572659
300.3935169442275992
300.46213065039455614
300.53494639847116332
300.59955962857026179
300.64212659980876197
300.65336492575613647
300.63362715645536127
300.59353877729188298
300.55001525642700244
300.51979760275872877
300.5126655090729173
300.52840117530041653
300.5591393320280531
300.59436948604871986
300.62589696896509395
300.64981449421179605
300.66475035110801173
300.66994434563019922
300.66508004641644902
300.65156382208709829
300.63374154619776846
300.61891715860315344
300.61488289511549965
300.62557705502831595
300.64926613299627434
300.67978794879365978
300.70830722949267511
300.72717928622040517
300.73047228877169346
300.71513206046603273
300.68289970206257067
300.63902134201578065
302.18884037238649398
302.22881782006965068
302.26295854153283926
302.28972452387245085
302.30759357861148828
302.31526012267397618
302.31161672372525118
302.29612993090415785
302.26826719348503048
302.22834317470557153
302.1762840327644426
302.11285214045420844
302.03818200900906277
301.95378526272037334
301.85995025803163117
301.7596520481839093
301.65269366875901369
301.54388573087828718
301.43168070652797041
301.32201988806997406
300.26527668787059611
300.25901582565762737
300.25563957126445302
300.26483096401392459
300.29415781663129792
300.34589737791401376
300.41645099597894841
300.49487204785447148
300.56553212665261299
300.61276066661946516
300.62603415643769722
300.60625966105919815
300.56521737560370866
300.52124201322328645
300.49161018010295265
300.4861608783546103
300.50441146669794534
300.53775696759913671
300.57531562425606353
300.60907170293461377
300.63542340994860069
300.65291076480139054
300.66028964398759626
300.65640079128741036
300.64150220406031622
300.61955996166665273
300.59806543875862417
300.58581003844460611
300.58841704841557885
300.60670915534700498
300.63578400931123724
300.66847219982327033
300.69573633787916833
300.71100640011985661
300.70841153079197738
300.68747537443039164
302.27270405504287965
302.31595710092915397
302.350812452768821
302.37562355116727986
302.38883222145750551
302.38933094301876281
302.37617861425502497
302.34928033366833233
302.30838628144550739
302.25447573796844836
302.18772712926181612
302.10982347928575109
302.02073993257505435
301.92319951448791926
301.81663301509956909
301.70606857793188738
301.58932732554308132
301.47500732977272264
301.35705248163014858
301.24853158691576027
300.24273903042910661
300.22628655285461718
300.21982010983947475
300.23484236607333742
300.27697029417612384
300.34328899230911247
300.42396889444290764
300.50373338766968345
300.56637645080195398
300.59848536247352513
300.59597571826520834
300.56388837815109127
300.51719910249721579
300.47496065642985741
300.45262563062601657
300.45735680328857597
300.48608786423949368
300.52792059769416255
300.570097648628348
300.60363817859416713
300.62496533076614469
300.63445899344679901
300.63394674175464161
300.6254335235262829
300.61135876861419547
300.59614137623259467
300.58564331667093938
300.58531880955001725
300.5974968045766218
300.62024065492653335
300.64824613101995965
300.67385039720198847
300.69094899533723719
300.69409234160764299
300.6813386094503926
300.65359422344471341
302.33714397519810291
302.36998539632344318
302.39155971283332747
302.40075953971933131
302.3969776105203664
302.37983453788126553
302.3495823319405531
302.30632513163504882
302.25076418725052463
302.18331061305656249
302.10471127811757697
302.01558274326754372
301.91667883836396413
301.80943333779504201
301.69502833791483454
301.57651742027661612
301.45482140473626487
301.33528355458975057
301.21574932861415164
300.20905331849229469
300.19206302417461529
300.20323791776763755
300.24739075996825477
300.3194253082796763
300.40643104337743807
300.49064278414783757
300.55515328519891227
300.58823385071087841
300.58677632053411344
300.5573003341875733
300.51320781933486614
300.4717231666418229
300.44708119291323101
300.44687751124223496
300.47040965811959268
300.50948337807017197
300.55266091552005037
300.58992430947881758
300.61517352344907295
300.6267571952326989
300.6259287169211234
300.61543032746055815
300.59885420848598869
300.58111274953574821
300.5682490828374398
300.564614594991383
300.57275643438453017
300.59238561780500731
300.62011354087979953
300.65095558803460563
300.67757037821775157
300.69392748559545225
300.69432281584300881
302.24085389377904676
302.2872947508191146
302.32327509454614756
302.34738533987649589
302.35876111139134537
302.35734758622959362
302.34336628822552484
302.31776593260542541
302.28115268387188053
302.23471051443237911
302.17876173438259002
302.11416919876745624
302.04066627461554617
301.95898136035054904
301.86852479800916171
301.77112642462475378
301.66630685087613983
301.55795058947296639
301.44501508475883611
301.33350419942689769
300.20752765306127685
300.18092846728598033
300.18863754591671977
300.23490723094511168
300.31244865900919194
300.40402053514645786
300.48936687126712286
300.55040433782329501
300.57652247843736859
300.56764370272401266
300.53295590247989821
300.48680059174137114
300.44435196743302185
300.41852411489156793
300.41619429311060685
300.4372957679018441
300.47570726710665667
300.52164398343467155
300.56511655625229196
300.59866187700760065
300.61865549553391475
300.62483408813540109
300.61941289691651491
300.6059503994752049
300.58907256479841408
300.57410922717781432
300.5659211869484011
300.56813876944147523
300.58218745884443024
300.60653433264286605
300.63687257719902846
300.66614944805002096
300.68642226535564532
302.32636581722601932
302.37119622636856775
302.40161833623744769
302.41581382336408979
302.41297081575976335
302.39278261657040048
302.35609815490136043
302.30377698892289118
302.2378237227860609
302.15950423452056839
302.07129517936010643
301.97401496384139818
301.87042124420463551
301.76032109071837795
301.64772995154794444
301.53081474625116698
301.41621955424579937
301.2988945724775931
301.18943603941875153
300.19638212646486863
300.20050061517684981
300.24299022782702195
300.31478017559629734
300.39753664337246164
300.47091428906281863
300.51797858537747743
300.53169886814515621
300.51477525095890542
300.47836375991772684
300.43779814385931104
300.40642862578704353
300.39350095691600018
300.4027490576281707
300.43241330549818713
300.47613322587778839
300.52447698674558296
300.56781953422137121
300.59924642382600268
300.61582973531290008
300.6186319601911805
300.61136884654348478
300.59867512819687363
300.58498649533800062
300.57353071199867145
300.56799330467515574
300.57134884612582937
300.58443463044869759
300.6057723862804778
300.63007986976361963
300.65126667478835998
300.66203903987593549
302.34141314110337362
302.38457166184105063
302.41568666466491777
302.43313412936703344
302.43576950000237957
302.42267794398838987
302.39351614351556918
302.34820769437851595
302.28745704903417391
302.21218908332934916
302.1238840346391612
302.02435850295529463
301.91563730711754943
301.80003944910504288
301.67989352704910289
301.55750593159251594
301.43548087199263819
301.31503615110534611
301.1993289192577663
300.18362748647666649
300.22209782437528247
300.29026770441538474
300.37136847785819782
300.44520350016074417
300.49527308852219676
300.51267235099300024
300.49944551385698333
300.46505244137841828
300.42390106723894405
300.39065876264635335
300.37489046523148772
300.38116806669228254
300.40843784785010939
300.45099475563677061
300.50022754308196227
300.54620610685532256
300.5810827138835748
300.60105479614492197
300.60689061473607353
300.60228469073524593
300.5923044394675685
300.58081074123236931
300.57122037987767271
300.56648686876383181
300.56916623285786727
300.58046516313879692
300.59813492002228941
300.61755305005294758
300.63174414490936215
302.37394957515078886
302.38588045011960048
302.38310796096976674
302.36556133416553394
302.33346480516269139
302.28749689524795485
302.22838729894033349
302.15740530722649737
302.07595512411717209
301.98571785146089042
301.88869152145713315
301.78660736102182227
301.68179127978964971
301.57563257438255278
301.47048446770702412
301.36713174200122012
301.26693753256961372
301.17081607502041152
300.25710380387857867
300.31364527734365311
300.38096434862802653
300.44227081899839504
300.48336368565196608
300.49513305257744378
300.47787684499473926
300.43941364096377811
300.39429559116575774
300.35767240378163478
300.34104869172904273
300.34841749677957523
300.37872706699306491
300.42597580753277953
300.48091003061608717
300.53327740178622207
300.57440727229436561
300.59948594195856231
300.60857339595133908
300.60499467624094905
300.59389050038623736
300.57926281907612065
300.56564505732006864
300.55635560761902525
300.55498813241086964
300.56281378157945028
300.57730028975356618
300.59300182960402026
302.35292342002333044
302.35672461992896842
302.34608220219558916
302.32159584843287803
302.28410065108818117
302.23491767800885555
302.17506790028545538
302.1057790787346562
302.02783961101687282
301.94263403468966089
301.85125016882028604
301.75544576391405371
301.65651166827586849
301.55649445099817285
301.45662094736104564
301.35883912096846871
301.26350342975206331
301.1724626106093865
300.31801345319098573
300.37035020232451643
300.42220472441329093
300.46084829213918965
300.47642810851777995
300.46464967542925706
300.43039145398370238
300.38585094421983968
300.3449311418905836
300.32036979948787803
300.31822682219649323
300.33886868806177972
300.37946536701821287
300.43359456616224179
300.49238936380038467
300.54629469231105077
300.58783325556504451
300.61365782945330238
300.62358606031125419
300.61927055989019664
300.60496889923024355
300.5855956917353069
300.56683090537268299
300.55365318982654799
300.54829803707718838
300.5491915629317532
300.55100258273665759
302.33533334626275746
302.33402158019339367
302.31998425518423801
302.29364379515868677
302.2557240290906293
302.20643908043348347
302.14639638877071093
302.0753801429871146
301.99425098765505027
301.90306190726221303
301.80409874126894465
301.69795473781937289
301.58872055198810358
301.47657386343831831
301.36749258109142602
301.25879783876666806
301.15948236814733718
300.28819554708769601
300.32091363111572946
300.36593376140353939
300.41112253104648744
300.44286573292833964
300.45257788313261926
300.43664204221420277
300.40147595103957201
300.35770876581852917
300.31891987086112294
300.29560764699368747
300.29507967048800765
300.31920651609669903
300.36475915459891439
300.42500209781894682
300.49051420610663854
300.55071615537559637
300.59657864294752017
300.62275500017119612
300.6288316935629723
300.61765565922240739
300.59461359776395284
300.56562978548021192
300.53779230891467478
300.51601328166788107
300.50258470118308196
300.49653320479643526
302.28331383837337398
302.24897162197623857
302.20233846763488827
302.14521253378529764
302.07896199878365451
302.00488653002724959
301.92352959053204131
301.83555450956163213
301.74120233439720096
301.64146268622789648
301.53742560272172568
301.43106934139052555
301.32452993871550007
301.21988814186914851
301.1194145800970432
301.02451032127947883
300.290215279609356
300.31695325849108258
300.35656876849731134
300.39775814634600692
300.42820634284322523
300.43955957939419932
300.43014976667819838
300.40431996543014748
300.36910272690852253
300.3323270282378985
300.30352771643111964
300.29110300558807012
300.30148569359101884
300.3367734655073491
300.3925714073503741
300.45898241951158525
300.5239987482880224
300.5773889278173101
300.61257698739649413
300.627826174980612
300.62479205457901799
300.60628022507285095
300.57757590441849516
300.54417577427551578
300.51145286314823579
300.48340552931068714
300.46154903514280932
300.44513027887455792
302.34080500895913701
302.33491840867412748
302.31482634448485669
302.28058328942489652
302.23217836713058659
302.16990033081208367
302.09379728464432446
302.00489661851742085
301.90368903172418413
301.79307370384850628
301.67404020998736769
301.55216949991950059
301.42707832105691068
301.30733125355703805
301.18797624905238308
300.29500027472522561
300.33378253970943206
300.37303209485929756
300.40193395518218722
300.413886729689807
300.40975754260853137
300.39406057074353384
300.37163736644879464
300.34680469136731062
300.3248763108359185
300.31281491461913902
300.3177411307238458
300.34373203170201805
300.38853044081236021
300.44432068741360808
300.50094351964588668
300.54981035116020394
300.58589217116946202
300.60608852575296623
300.60974143265332259
300.5977910654827383
300.57269546815587091
300.53838648621848506
300.50032492588155719
300.46340926560890239
300.43172995110410284
300.40748724544056358
302.38447818083875518
302.38093083515155968
302.36118619184929912
302.32474253586951818
302.2716404009079838
302.20226449792460244
302.11782663575451124
302.0195893294011853
301.91033480174826309
301.79197375630059241
301.66908260549274701
301.54309518076451013
301.41988136652423691
301.2988824878185028
300.32954504182902156
300.36838289142525582
300.39218876457175611
300.39852401742666643
300.39187218138022217
300.37870683763651414
300.3638661314717524
300.3501944917692299
300.33993104217501013
300.3376061945863853
300.34835523648212074
300.37440010951007707
300.41302803665439569
300.45760760221048713
300.50034652100839594
300.53563246732795733
300.56076825907359762
300.57495968902679806
300.57764790304918279
300.56857806936869792
300.54813888758656049
300.5184108500125717
300.48265592081207842
300.44529281016139066
300.41039750176719281
300.38163702092066387
302.33454043563654068
302.30582647815714381
302.26164793522087848
302.2025900989275442
302.13043483942482226
302.04628382455314295
301.95258466083055282
301.85027731972780884
301.74246749156230862
301.62985013447854499
301.51639152607504002
301.40175002008845695
301.29130654869265982
300.33918342483872266
300.35744696925587505
300.36151143732797664
300.35721135207950283
300.35022868583467925
300.3437326489561201
300.33879800531582305
300.33631191233251911
300.33986978547744684
300.3537036831234559
300.37918544723976311
300.41386019019199694
300.45202561872196156
300.48754905418371663
300.51626317807028954
300.53662407647743748
300.54855492714187903
300.55170978421915606
300.545187232123169
300.52830622904292568
300.50148571154505817
300.4672156901772837
300.42957581264766986
300.39386624802023107
300.36480120552278095
302.33735935912261539
302.28708135179442706
302.219464311536683
302.13687604003570186
302.04136252277510266
301.93596423428033404
301.82241182133122948
301.70404056716785135
301.58169499316846895
301.45956334046201164
301.33676147633792652
301.21974765659166451
300.31987868336676684
300.32423711274833522
300.32352031731613806
300.32259016106172567
300.32372736019493686
300.32681560026759371
300.33167128990453421
300.34040558398237408
300.3557042746250545
300.37879432078960917
300.40808179773671327
300.43900443825594948
300.46697788193625911
300.48957431664035767
300.50642251789992088
300.51839999283077987
300.52550919153799214
300.52641802891167799
300.51863910352500397
300.50040388951890691
300.47231503745132386
300.43747466847111127
300.40107983891977028
300.36873289262427988
300.27934646206028901
300.27803123122612305
300.2790203982751791
300.28506778554515222
300.29541004611667177
300.30925024284630354
300.32701487230542625
300.34966712635571184
300.37751719715242871
300.40885208759885927
300.4396182556862982
300.46554678278607753
300.48442896015495762
300.49639678808108556
300.50306170737258071
300.50545194176083896
300.50273410659968931
300.49248865726946178
300.47284669626020559
300.44372594064032
300.40847874531772277
300.37222914408118868
300.34095552589167255
300.24283209012054385
300.25063610186629148
300.26325776276758006
300.27905624171609134
300.29761773564621308
300.31995256320237786
300.34719908037243385
300.37878789502246946
300.41157686768121948
300.44133439608009439
300.46514220454179167
300.4825649778253478
300.4948797020758775
300.50293029666732991
300.50574608661628417
300.50041571482034897
300.48439408174272103
300.45730919821369298
300.42191384043809421
300.38371515420152491
300.3488685352798484
300.28261749233143973
300.30672431909647457
300.3340296306010373
300.36492162724999844
300.39727839727657965
300.4271992100478883
300.45153217884438845
300.46994287041911775
300.48404549598058111
300.49521247425144566
300.50268161255809218
300.50317018891684029
300.49302151722321241
300.47068153949334146
300.43789771877942485
300.39945041379849044
300.36172055563923777
300.39681667558244271
300.43109566950562339
300.45918691844258319
300.48006247756120501
300.49510229298749664
300.50577652255606154
300.5114896670871758
300.50940942233171427
300.49604563215109465
300.46969670154948062
300.43264348223976867
300.38984710650072429
300.3480830187193078
300.42287696404480357
300.45547263624956713
300.48243207619310624
300.50434355801149877
300.521648124913213
300.53286034770093238
300.53415510230064456
300.52113272512934827
300.49215817356628122
300.44989219591428764
300.400597449390375
300.35231469132099846
299.41382454832097437
299.33914001289167572
299.2592900920625425
299.17342788755695437
299.08569354841648646
299.00753882954757046
298.95241856072868813
298.92869638165029755
298.93462377649950668
298.9602788809772278
298.99407648577346208
299.02945363763592468
299.06726898641755952
299.11308808463559217
299.17320696884524978
299.25015575588651018
299.33919345320958882
299.42770078544793932
299.49872864186176002
299.5375058407224742
299.5007009630628545
299.44249838243604245
299.37832387592311534
299.30655298950779297
299.22257727293612106
299.12826237368551574
299.03501380033236501
298.95974506882419064
298.91616889897619558
298.90721038719584612
298.92434060016876174
298.9546536765180349
298.98860644028690103
299.0245347648451002
299.06691192374319144
299.12206196136503422
299.19338867955838168
299.27808084188973226
299.36634438715424267
299.44423748408689789
299.49865402357016819
299.52160559943411045
299.57418268812460838
299.56463823169991656
299.5301900766355061
299.48346317581859921
299.43146252752381997
299.37068406248255314
299.2931304817125806
299.19817456321322879
299.0965027898992048
299.00735523940863914
298.94863151831270898
298.92719757290984717
298.93640396612875065
298.96311226836104424
298.99643821950013489
299.03310768305118472
299.07623208744564636
299.13054224309365736
299.19801116175187872
299.27569718274554589
299.35569350478840533
299.42778260725827977
299.48246232344081363
299.51319441510776187
299.51734055226995679
299.49677241058594745
299.65467296363351579
299.66177514281702088
299.63285020385410462
299.57965623406147415
299.51788617949426907
299.45792504187716077
299.39892741479997085
299.33378955555900802
299.26035205468616596
299.18664396301761599
299.12846587264851905
299.10032501732047194
299.10552115688062713
299.13453347349042133
299.17280003431642399
299.21103086319487829
299.24923903102433087
299.29393973204741997
299.35068652974098313
299.4188298920898319
299.49097464751810094
299.55597823003762414
299.60387669391411691
299.62899894763461361
299.63081338048897351
299.6123574989457552
299.57909067879842269
299.53855293372038204
299.88902397976823977
299.8800178311006448
299.8376626514777854
299.76716076715229065
299.6866550763251098
299.61846164777335844
299.57794174149387345
299.56438543174260758
299.56490391683917096
299.56600315213768226
299.56420091344222101
299.56614178424160855
299.58193662654326772
299.61457208116542006
299.65689784584100153
299.69735675726292357
299.72958803962444563
299.75525456237983235
299.78093314541877135
299.81093179752269862
299.8432645169953048
299.87119185758984941
299.88818548985148027
299.89214521139359704
299.88580014689711106
299.87440020321793099
299.8615037966676482
299.84810705792028784
299.83525890472697029
299.82661384565739127
300.13305585347666238
300.17018974573647938
300.19260173448901696
300.18847881327013738
300.15857340050956736
300.11770080788568293
300.08474465850162005
300.07163315690820582
300.07512361622730168
300.08058631996459553
300.074370357072155
300.05612409011843056
300.03753309732422849
300.0332656398538802
300.04893657148863895
300.07716411665893474
300.10492491970057927
300.12521952145885962
300.1415544716170416
300.16350576792507354
300.19776559936622107
300.24212490879557436
300.28687239049497748
300.32176586439959465
300.34177336600561148
300.34867639682909157
300.34845136487490436
300.34595622631883316
300.3430991214516439
300.34123253015985711
300.34363789591787963
300.35609921201921679
300.43628898794014503
300.46730635150970556
300.48473496648347236
300.47762559364309709
300.44672670194813691
300.40614727651484372
300.37439007657684442
300.36267155851913913
300.36825812296990534
300.37593128367939244
300.37191917536108576
300.35563791475124162
300.33948904470702246
300.33713609476615147
300.35302481501702232
300.37815311643072391
300.39898810123332851
300.4095079070281713
300.41590871635673921
300.43017382316975272
300.45986113777053106
300.50170759018021727
300.54393879077309748
300.57514216706834986
300.59071420201587443
300.59415916428298488
300.59256873027021584
300.59054735513939249
300.58795400231718986
300.58378073394550256
300.58044387021038801
300.58463783181878171
300.60288599262275966
299.60458244449830545
299.63339659516094571
299.65499451391849561
299.66334532848514982
299.65807232593050458
299.65253757664794421
300.47164070193213092
300.49823620988064476
300.50984486176542987
300.49555145110377907
300.4560287029111123
300.40595811969154738
300.36484774298560296
300.34505184199878158
300.34410603395633643
300.34599222006198715
300.33584208726631459
300.31238523997291168
300.28833563057969513
300.27816389100149763
300.28642788783690776
300.30400224255265584
300.31679099914686049
300.31873565527808978
300.31680568073807081
300.32408877388365909
300.34859852085764942
300.38659536401542027
300.42515756433266461
300.45184946916793933
300.46189464262215552
300.45931551712948249
300.45147476990166524
300.44301938733093493
300.43337433971521477
300.42093237175447484
300.40876857217841689
300.40497769087096458
300.4169408346475052
300.44407782195929713
299.79347469926551639
299.82894794576196773
299.85331727632160437
299.8684354664849252
299.8693551399626358
299.85719079298439738
299.84605402299405341
300.25385983721446337
300.27276425503276869
300.2761987840740403
300.25278340411654199
300.20370624975134888
300.14387514294463699
300.09337234156146224
300.06496740952184155
300.05619871012345357
300.05022530804615144
300.03195647142553071
299.99976809208055784
299.96684342018613734
299.94840624913263127
299.94903817754840247
299.959593618211386
299.96531031889821861
299.95986666714122748
299.95034535660613528
299.95038712259184877
299.96836693266925522
300.00039790649566385
300.03313217191146123
300.05351324454898077
300.0567665670948827
300.04730884140275293
300.03276941439793291
300.0179567082000176
300.00217995960366579
299.98315102928779652
299.96395383515101685
299.95346298490107984
299.95914863306501275
299.98067077089126542
300.00682801365979913
302.21579689737444596
302.13996303912011854
302.05134118539598376
301.95231102111671362
301.84459501895105404
301.7320993060886849
301.61538407091944691
301.50031846185783024
301.38310389593351601
301.27529162484404424
301.16156661514452253
300.12781618106453152
300.13774066761976655
300.15817849403651962
300.19824748209845211
300.25969318061879676
300.33631232082319684
300.41732387768985291
300.49079764774518253
300.54711468286780018
300.5808657512169475
300.58942431515561111
300.57588212399394934
300.54662409039434579
300.5123730576727894
300.4861074725540675
300.47716400527002634
300.48716072956557355
300.50945561595364097
300.53284779032691176
300.54752429579434647
300.54978547633936614
300.542176868525587
300.53110078425032725
300.523318712066839
300.52316854238966926
300.53171561805118017
300.54819513008357035
300.57021075712208358
300.5952564977461634
300.62069749289753418
300.64370680173078654
300.66122328617279891
300.67049976004449263
300.66887984754964691
300.65465572361057411
300.62862483823170123
302.05387314764345774
302.13064124683285172
302.19909290431030513
302.25646316755057796
302.30085241834228782
302.3309994632745088
302.3462725310590713
302.34612015344259817
302.33043478040389118
302.29900072381923337
302.25243297502709083
302.19124419169719431
302.11695227707730282
302.03099462030974109
301.93544489937659137
301.83258934512474525
301.72448706691375264
301.61348205776084797
301.50054997803971446
301.38954887948631267
301.27609512839370609
300.12402704691186273
300.12991703177465297
300.14966662941549203
300.19012128724699551
300.25065215083731118
300.32440922329300292
300.40101436431740467
300.46915797338226639
300.52037522157951344
300.54909946823687505
300.55442061694549238
300.53696968341097318
300.50477020751986856
300.46793184460835846
300.43974234939668122
300.43051564464457215
300.44364367386060621
300.47346696745785266
300.5083645506287553
300.53662468030324817
300.55138105396525816
300.55211863235768988
300.54334950475674759
300.53201302750062496
300.52468332421665309
300.5255973500866844
300.53616843304752138
300.55499493736050454
300.57867954469480765
300.60320340003386264
300.62507590964474957
300.6415433285063159
300.65037215615603827
300.64984906909785423
300.63805635968071783
300.61470193499093284
302.09271143045549479
302.16830842519755151
302.23492680801717825
302.28991455766555418
302.33144318613318546
302.35829840949691061
302.36980542755628676
302.36536852371710893
302.34490951495257605
302.30839315131805733
302.2566838092211583
302.19055505711696696
302.11187782610386421
302.02222359757246295
301.92407847749365146
301.81925889705053123
301.71080944823995651
301.59909757495478289
301.48830975742902183
301.37654558455244569
301.26806681691988388
300.12142522475460282
300.15046642467905258
300.2005600758780588
300.26874360139339615
300.34669346435947546
300.42284748672466321
300.48687751105853749
300.53188564666515958
300.55456872146424985
300.55451066574153174
300.53346167710151349
300.4963662033820242
300.4543407155724708
300.41956380845448393
300.40315406271400889
300.41096839566995413
300.44038531693064442
300.48148967726359615
300.52150272495566696
300.54964855465573237
300.56052793949754687
300.55504357809758176
300.53890608793909678
300.52045410784489832
300.5077049395819131
300.50601325444091572
300.51660173177066326
300.53705071408410276
300.56274419488471494
300.58950757501941098
300.61358631350691439
300.63173204838636821
300.64025105152427386
300.63602207361725505
302.19073215590896098
302.255034466493953
302.30650242268461625
302.34320925067760299
302.36379429574287769
302.36758980143844155
302.35416470301589698
302.32392139165716571
302.27728357731399456
302.21580048689656905
302.14063479804497092
302.05444983999871056
301.95910593409502098
301.85792049220776789
301.75235908501582571
301.64619446958283788
301.53810211433540189
301.43402124047867119
301.32801638980282632
301.22914995053929488
300.13485549969146859
300.17089984828743354
300.22724478202178489
300.2977242435217704
300.3724770624793905
300.44061290275294596
300.49393079051776567
300.52666852341906178
300.53833922437092951
300.52869547822774621
300.5013647270075694
300.46104514588211032
300.41753719605497963
300.38279091553926037
300.36785575119034775
300.37857451071266723
300.4131254358486558
300.46202860068268592
300.51142002345568471
300.54792672738221881
300.56311875631411112
300.55604512578133836
300.53271817669667598
300.50382115678809214
300.48148721806836647
300.47316525718429148
300.48162039351569774
300.50407807316355502
300.53444972236707144
300.56645104362166876
300.59498825937254196
300.61590966012062154
300.62550256822862593
300.62024313860746361
302.19886181635126832
302.26507411500358558
302.31812031851472966
302.35549109968371795
302.37533141676306059
302.37656051628079013
302.35865988452150077
302.32191479313007676
302.26715218634728899
302.19608200927649477
302.11081537188073298
302.01405700972287605
301.90906793954809473
301.7984017049334966
301.68589319934972082
301.57274755450413295
301.46207499731679036
301.35393271691668815
301.25102051124520131
301.14979422905213369
300.19907925995528331
300.24315319424977133
300.29919939152478037
300.36080180441314269
300.41981530476198259
300.46758382952788224
300.49756425530966908
300.506568141198386
300.49483346477546775
300.4658313472403961
300.42626510253995775
300.38500757301454769
300.35335264755133267
300.34202204780319789
300.35640767801925222
300.39466857713318859
300.44778413213799695
300.50212878861674426
300.54330001107302905
300.56131958450509956
300.55370745552977496
300.52607155789291937
300.49036661139064108
300.46007635802902769
300.44587488506891759
300.4517779971604341
300.47533270908706982
300.51001487347218699
300.54778950485206224
300.58154650693847998
300.60564444627220837
300.61579019701275683
302.20228808512155183
302.25860433434354491
302.30428738803993838
302.33752658334577745
302.3568553095592506
302.36119317843775889
302.34977811142698556
302.32231083404343508
302.27868014710179523
302.21977226375912551
302.14631863444077453
302.06122037315543594
301.96488274270683405
301.86264428217390332