/*--------------------------------*- C++ -*----------------------------------*\
  =========                 |
  \\      /  F ield         | OpenFOAM: The Open Source CFD Toolbox
   \\    /   O peration     | Website:  https://openfoam.org
    \\  /    A nd           | Version:  13
     \\/     M anipulation  |
\*---------------------------------------------------------------------------*/
FoamFile
{
    format      binary;
    class       labelField;
    location    "0.1/Lagrangian/kinematicParcel";
    object      cell;
}
// * * * * * * * * * * * * * * * * * * * * * * * * * * * * * * * * * * * * * //


0


// ************************************************************************* //
