/*--------------------------------*- C++ -*----------------------------------*\
  =========                 |
  \\      /  F ield         | OpenFOAM: The Open Source CFD Toolbox
   \\    /   O peration     | Website:  https://openfoam.org
    \\  /    A nd           | Version:  12
     \\/     M anipulation  |
\*---------------------------------------------------------------------------*/
FoamFile
{
    format      ascii;
    class       volScalarField;
    location    "0.0074";
    object      k_0;
}
// * * * * * * * * * * * * * * * * * * * * * * * * * * * * * * * * * * * * * //

dimensions      [0 2 -2 0 0 0 0];

internalField   nonuniform List<scalar> 
75962
(
3.1716516683340737609e-05
5.0161195323584071757e-05
6.8823497500450586759e-05
7.9778593255465458435e-05
9.3995978827844038324e-05
0.00012626794630947921184
0.00016782286739957548568
0.0001958231737165034203
0.000209292715818393439
0.00022283513683076197512
0.00025278840810055372293
0.00030597117190120045639
0.00035560586320141236152
0.0003844643232553796551
0.0004052529511170157011
0.00044697175772615596297
0.00050408713144422362916
0.00056043630547914814743
0.0006165031186887141466
0.00067374477109507352728
0.00072541453007102317096
0.00076649921916033313205
0.00080339933251270822818
0.00084894735610568277176
0.00090995437883743238074
0.00097913604768354507192
0.0010398328119818555336
0.001084981828167469551
0.0011257069030521937598
0.001181866568290694617
0.001264319869587855142
0.0013672643617986897282
0.0014754881479485378124
0.0015724919332608981119
0.0016456584041045464132
0.0016905806855230919722
0.0017149751319571620873
0.0017381288948290799998
0.0017839814959704628546
0.0018901233813784256484
0.002039906637115025418
0.0021973107377798520301
0.0023387255027349251359
0.0024422984589770597823
0.0024984558708828407889
0.0025209268679373363076
0.0025411967325671487757
0.0025899642763697627336
0.0027500110550968989535
0.003045784942867364644
0.003275765296986742417
0.0034157262873656542811
0.0034990490064571531242
0.0035709603589527943307
0.0036519899003874664242
0.0037342876133831829841
0.0038024858538817712592
0.0038533388311174088248
0.0038954868254601495402
0.0039376252228519757412
0.003980672286591302976
0.0040191173748234526597
0.004047257592305956303
0.0040667455586332473816
0.0040902820162711274465
0.0041391885455813563766
0.0042751507561887298198
0.0046315082003201592242
0.0050173876564486461979
0.005308340322460309256
0.0054823706882987620348
0.005558960557117673118
0.0055832226734282000211
0.0055963852477854758929
0.0056208001413249287712
0.005678669711742287407
0.0057840189351065426915
0.0059156923205321027687
0.0060665802747911154458
0.0062202798208108207867
0.006350388478925402154
0.0064357550592277984816
0.0064762695612555938596
0.0064971108592489041841
0.0065316584992631699508
0.0066268900622690187982
0.0069258751531296805504
0.0073307263132476579298
0.0076435461191155960534
0.0078450306795833212731
0.0079510376831297708417
0.0079961478327431941698
0.0080128585698766834761
0.0080226172000118257943
0.0080397713553099700579
0.0080793831251195734333
0.0081874832847435193017
0.0084631530315307096357
0.0087918918143395849429
0.0090758412570103273731
0.0092639376559905915742
0.009342191206729286157
0.0093520501824114667805
0.009340442112311121356
0.0093361183861810984053
0.0093653614030640101179
0.0095340031593865604692
0.0098913736337012617833
0.0101494297656531101
0.010321864400401500189
0.010447880320425512179
0.010549128488897102987
0.010628326465732935296
0.010686460275226752903
0.010743172330487866725
0.010844470206214176095
0.01108520969927132005
0.011480744083207185258
0.011862390372677738062
0.012131907345508109036
0.012254806356129945011
0.012274646363957837994
0.012258336928692218498
0.012221077752794356694
0.012219603647767520935
0.012265618590490311862
0.012498924569485616448
0.013093002028516181889
0.013648261222018709046
0.014078220109667647156
0.014374634953719919728
0.014541109889347330134
0.014605829447099831844
0.014619100211799899991
0.01462553609207347706
0.014651087351635712006
0.014768308394371206654
0.01498102481320510819
0.015110400038256298696
0.015154397352050224049
0.015154947301471113907
0.015121678166101448076
0.014972224608002631871
0.014732543015551276266
0.014589509651627753997
0.014543456837420058389
0.014551313490450188889
0.014663616607244713691
0.015152203859880041675
0.015841350272973515889
0.016310988804299507426
0.016644969484107745988
0.016968006023274900124
0.017388075036566228576
0.017947871486367235339
0.018601295168936118896
0.019235926603481345171
0.019727012081366356727
0.019997022943450230847
0.020071774228415543984
0.020052736104503112585
0.019870915606420812283
0.019467621937260912168
0.019283085124718334774
0.019273720192537584228
0.019408535388525396947
0.020075821620156395625
0.02102209593474237137
0.021545026508761389028
0.02173817436516149032
0.021770822077896750252
0.021765873512827601383
0.021763614604704644567
0.021769991399817584243
0.021769172601683667995
0.021727112686006060799
0.021507082389470476985
0.020879434653613738321
0.020329433905794808135
0.020018789420959942627
0.019897598716044316569
0.019877977688361889858
0.019893014412668556107
0.019981241062943216891
0.020148454926324523701
0.020258439646596019396
0.020316946777210811992
0.020341017377936157495
0.021950243067266523439
0.021962115792930197999
0.021968748516520305442
0.021977305455058236683
0.021995145070219025707
0.022037058865969638005
0.022133237167248138999
0.022256344296088855644
0.02239323418339938393
0.022537554966362262354
0.022680014289044245213
0.022812371942448478324
0.022928531762122283943
0.023024907001259840161
0.023102981172675875199
0.023165702830974733289
0.023218510322742469398
0.023266633159147512983
0.023314652649116172217
0.02336608504181145185
0.023422979230773410819
0.023484694881184483423
0.023551156122348763239
0.023620032119124861891
0.023688566549243682963
0.023753220337647516086
0.023811553825627024272
0.023863393458376715162
0.023908562905384646985
0.02394918887113441433
0.023985905625676026687
0.024022604101530228154
0.024062012341651731889
0.024107949809223809534
0.024162930883153656975
0.024230668874429067694
0.024310393346420548083
0.024401158357927759529
0.024501388397784651385
0.024608079956484608247
0.024716826967644787982
0.024826181231750295286
0.024930907605870668287
0.025028809498213084456
0.025115652047303690941
0.025185622305316096581
0.025238261102131138297
0.025272490661424239916
0.025291320586206367249
0.025298781751300139509
0.025301368515673182402
0.025301162600177697776
0.025298103551303574577
0.025289511445964713704
0.025281715447612620323
0.025274905141838620998
0.025265708868811864035
0.025252887199657150091
0.025235200572511023998
0.025212771510601635766
0.02518645207797995042
0.025156757310961379986
0.025125430249102614216
0.025092848271395639531
0.02506050113687138467
0.025028518856984885432
0.024997885380751747042
0.024968512404633054491
0.024941454654978711947
0.02491596338314482767
0.024893264243358626669
0.024871214179005427664
0.024850800331728692405
0.024829540380055067916
0.024808848178784627392
0.0247871865031618413
0.02476634880343829212
0.024744839861663977393
0.024724604586859075944
0.024703210288550828816
0.024682957965575298698
0.024660811924286200891
0.024639809782895583795
0.024617112872368250576
0.024595984919606638658
0.024573371735136698146
0.024552512539354805904
0.024530077292617781526
0.024509434804418642889
0.024487211731838671308
0.024466210587659763254
0.024443051138276033346
0.024420259972035517765
0.024394825055644699108
0.02437057271623814525
0.024344439405480890887
0.024320913178692466633
0.024296000464823688109
0.024273483361225763055
0.024248944303052754473
0.024226095104145865117
0.024200277518338482452
0.0241762007556886524
0.02414888984917940018
0.024123561179311935054
0.024095408307285896832
0.024069135124588737079
0.024040192609975030713
0.024012863620408129994
0.023982529182339135804
0.023953897705721538536
0.023922816875081884952
0.023894211925389371304
0.023864088339150303641
0.023837045658261109965
0.023808050663754756759
0.023781907995318641441
0.023752856174576699594
0.023726239065693006253
0.023696830394217344856
0.023670321729522526832
0.023641490941912764179
0.023616074972233912221
0.023588214680994971928
0.023563365395756780823
0.023535535626152476879
0.023509833596625926561
0.023480540018543084868
0.023453345661865625249
0.023423164162719688208
0.023395735730583545886
0.023366048337324581835
0.023339075426707923261
0.023309545372682947961
0.023282648443950299672
0.023253213916997233363
0.023226756434630711073
0.023197991617240430046
0.023172126124173544198
0.023143824220710280254
0.023118098018412702038
0.023089432228201374475
0.023063335308321809836
0.023033776944016363941
0.023007051641410761894
0.022977162138359114724
0.022950664994129982288
0.02292127632114322397
0.022895775738511862929
0.02286729016215896873
0.022842493116692487443
0.0228148025490535096
0.022790231664417438806
0.022762683012725125342
0.02273772526248594994
0.022709578917982583407
0.022683753757644684046
0.022654577696340827409
0.022627980507943290522
0.022598078600355547135
0.022571541908193604176
0.022542286147109905775
0.022516573211924746645
0.022488408545543712297
0.022463252887268289615
0.022435559367153905252
0.022410297944782872626
0.02238200209493505094
0.022355925394862707217
0.022326341034827768689
0.022299512620086434089
0.022269716253365327147
0.022243710144616211238
0.022215007366215525075
0.022190383729263244567
0.022162953243302169204
0.02213886167094957641
0.022111896020108903066
0.022087865075555958988
0.022061078812807933397
0.022037670941437926403
0.022011622920056449215
0.021989103843098635471
0.021963561368969101301
0.021940841328144371908
0.021914714422757917284
0.021891073778135174827
0.021864170617946987463
0.021840328212865640911
0.021813170455648983603
0.021789557225499703308
0.021762837330386461399
0.021739404894189288953
0.021713239595250458797
0.021689792735752517344
0.02166344542269005996
0.021639780155204634687
0.021612874395929595334
0.021589323420539170001
0.021562313958452157536
0.021538796943813089124
0.021512108538954667625
0.021488820868093328614
0.02146245742381080665
0.021439666508764446823
0.021413505591275264206
0.021390896662059410288
0.021364838751863169525
0.021342544001210946025
0.021316959695016370752
0.0212957378104481794
0.021271581395912151496
0.021251606551264359823
0.021228669429091143184
0.021208992471944236591
0.021185322504062530785
0.021164687247311412405
0.021139143913815862386
0.021116856752715205958
0.021090313371741820775
0.021067473017686355607
0.021041176650149071709
0.021019226344823595254
0.02099417286199268054
0.020973734045626961364
0.020949535163718405184
0.020930268004829392231
0.020906871811442087616
0.020887903413983818779
0.020865131542398430292
0.020846492708558511664
0.020823692660492821443
0.0208050365658408766
0.020781582834334941245
0.020762429685104107774
0.020738467273541737884
0.020719034238833991535
0.020694989050561600485
0.020676145242502528415
0.020652773386744528034
0.020634755799891418143
0.020612472748641003095
0.020595451946949616673
0.020573997614135700746
0.020557657444453193013
0.020536839311881969344
0.020521151589663839954
0.020500651017376528978
0.020485302690734712855
0.020465446354411182678
0.020450439338322263377
0.020430783604704273737
0.02041649746188723899
0.020397028035192214801
3.3420729024895900268e-05
5.5652062595309274883e-05
7.8793473890842341567e-05
9.3770768107936838505e-05
0.00010388450966590436625
0.00012309926291761481192
0.00016914868591564282047
0.00020651355934474876098
0.00022849748155912455818
0.00025601335100305212073
0.00029695585004222579571
0.00033985501792106151712
0.00037258462035626090407
0.00039621632584549263973
0.0004263725261131071846
0.00047861390265618690421
0.00055285554319415631305
0.00062177586806073665681
0.00065906539043300289664
0.00068977225946600104808
0.00074169969228730675982
0.00080358094220315634364
0.00085494685317964779023
0.0008998439037320181454
0.00095886606218501587579
0.0010368913785148074595
0.0011132840218051869713
0.0011650912505949931504
0.0011945710181195774106
0.001229393068609631063
0.0012970663273077066933
0.0014010368397601505579
0.0015204805302582872009
0.0016244310480460805342
0.0016915414560385187617
0.0017250993333198742091
0.0017500807152394017713
0.0017975850824853256259
0.0018976470376511531644
0.0020309864388839463621
0.0021745472591909115537
0.0023090210708748854646
0.0024184980784339514363
0.0024924117457746195088
0.0025309789890622580097
0.0025518608219733058054
0.0025839713375931912601
0.0026657561511318830783
0.0029216026715328949695
0.003297555963783846758
0.0035799239113919424302
0.003734489429440076072
0.0037875990447851764359
0.003798960518083279933
0.0038143105681433635279
0.0038619988641583734984
0.0039470834145059561365
0.0040202749212521378397
0.0040762948509769020636
0.004117579916504594123
0.0041470071991868071026
0.0041668398243491378691
0.0041803365985632655669
0.0041937921231926722151
0.0042168692119351853728
0.0042704588301829601166
0.0044308596766765235078
0.0048338046818554554832
0.005245701568680464881
0.0055535274595674231218
0.0057365125921094344344
0.0058170575591875335608
0.0058427145030261491004
0.0058571642437418155666
0.005884748103645410372
0.0059523267040289895916
0.0060726757084514221274
0.0062119148032739792548
0.0063597012582401728914
0.0065022895669299444685
0.0066199695748525334837
0.0066971284416932497924
0.0067338776942836402195
0.0067505912742078484981
0.0067756090728099951578
0.0068444935049802790514
0.0070823067313779590817
0.0075935456350074079235
0.0080270797697109715074
0.0083225123635982979631
0.0084901171072663539352
0.0085687544848456805718
0.008600739038161407668
0.0086153363049745676494
0.008628868821448852991
0.0086556049648247590511
0.0087179102160292593071
0.0088888985036878701701
0.0091558678667833740678
0.0093993337038984648563
0.0095701852990249091507
0.0096490440455224996824
0.0096637501382356612301
0.0096571774559367964258
0.0096526760454442427778
0.0096703489470145245765
0.009781206513509410963
0.010127756034898306378
0.010478698362173634664
0.010739435232617338886
0.010938171543273802686
0.011091717579397980184
0.011203033530484650393
0.011274671197870950526
0.011323613467959979528
0.011391818961192583595
0.011542955071041305359
0.011931566806993389868
0.012399472165252937994
0.012753478298080529393
0.012942245078670557706
0.012995394652826196269
0.012992351595850350904
0.012960428285578815336
0.012944436422535215286
0.012960662548800877536
0.013076931942347994747
0.013506398110153571349
0.014070486987171631002
0.014496532277323153498
0.014779292885808965538
0.014930076576566702826
0.014986789073683145015
0.015005813072122455368
0.01503368468096299114
0.015112748953571401161
0.015347084789676305669
0.015604373768573964396
0.01577351930139186259
0.01585321672016986802
0.015868086097967033787
0.015858682752316409503
0.01579728296001436591
0.01560677388297543669
0.015440626701089334855
0.015367956860054455062
0.015360825810909884206
0.015407477148961300911
0.015662725386338907652
0.016358039705687173193
0.016995337461147803221
0.017472696377675435431
0.017876796418518962895
0.018321571242156650672
0.018885036318345566064
0.019554232583620000802
0.020226935046612371655
0.020769865973289943634
0.021086210378728192233
0.021183557645863930474
0.021169893040731749961
0.02099935889791993554
0.020542830417395220588
0.020291229968967962327
0.020253919544114311335
0.020335642593934527556
0.020807526929055100012
0.021675224053497692267
0.022231306825398446797
0.022538747471795496369
0.022742177832269366844
0.02293006056207784818
0.023104414983078452178
0.023218608722777020481
0.023252660865360055831
0.023234940382198913944
0.023079571775081558077
0.02249131912071516623
0.021819951590778638439
0.021433794946648127011
0.021275197129190497741
0.021244204959837788282
0.021255453025109036919
0.021330673859818124333
0.021468910314034771181
0.021553022550758707543
0.02159143897413732735
0.021602183062362848021
0.02160178093219033979
0.023118174485046612265
0.0231535948470759749
0.023171222843574507122
0.02317840844085367405
0.02318194344284611394
0.023186400290667270874
0.023195740189869272496
0.023219362339775975052
0.023290601616632600201
0.023471143345920143092
0.023673797229262025926
0.023861785431223914156
0.024026179324931395964
0.024162094649147487779
0.024266032631906374328
0.024340760612130658141
0.024391442216325182751
0.024427315640976349914
0.024456760310954596405
0.024488394102853878326
0.024527735838944401958
0.024579253635825935864
0.024642416910644875799
0.02471527056263492228
0.024794564562930890977
0.024875221169853804076
0.024952916504985406254
0.025024169516728582419
0.025087629072021829651
0.025143331773013689184
0.025192799723734844719
0.025237601236740150185
0.025281185096850671001
0.025326610461134685393
0.025379013498269226839
0.025440759987401796033
0.025514995533115456677
0.025602396970563618545
0.025701148698829175132
0.025808723542950062074
0.025922208137955211893
0.026036674880709789054
0.026149125486517533351
0.026257172124573020799
0.026356301354006867604
0.026445877027238929441
0.026519697596299320747
0.026576397500822874359
0.026615879198845313752
0.026639515903735956626
0.026650738992925998572
0.026654917256504179202
0.026655637864993898811
0.026653919107852166309
0.026647532452969441286
0.026641696788554609931
0.026637524417069135402
0.026631198327553857325
0.026618336131975370989
0.02659941247098532302
0.02657418227875736963
0.026545043460791069301
0.026511576408186871695
0.026476661483374599321
0.026439921660404850506
0.026404210255948329378
0.02636874336414299011
0.026335729907775932979
0.026303725311137581
0.026274815934336986228
0.026246891923939696945
0.026222201216095575999
0.026197405662121295289
0.026174633597616042691
0.026150373202889511809
0.026127292118554499428
0.026102777749625778736
0.026079844074411304838
0.026055854200907051232
0.026033746900970208132
0.026009839829507601372
0.025987370653742632165
0.025962218754905147522
0.025938753623710557317
0.025913053308608578057
0.025889763244954344668
0.025864551772793748646
0.025841689942033587574
0.025816702667994267939
0.02579401936314013391
0.025769298179772238272
0.025746679787678642543
0.025721639305344361909
0.025698046400206318168
0.025671544864735839492
0.025646967537481090565
0.02561992922897690303
0.025595679042519758201
0.025569211800846886745
0.025545546774816720037
0.025519239663656646117
0.025495337275240479574
0.025467883354614018893
0.025442691373086946671
0.025413764174928677592
0.025387500906150786695
0.025357967789416544641
0.025330937818312648097
0.025300316257932144171
0.025271633429521263986
0.025239036543410611063
0.025208865482743238184
0.025175790751543622448
0.025146174451967717028
0.025114373117125454032
0.02508625604922925037
0.02505527538177074881
0.025027553419731545653
0.024996229629115046533
0.024967989695814908624
0.024936507910642859848
0.024908882665972173487
0.024878532112685002031
0.024852461567858186858
0.024823252294076308955
0.0247975029489798382
0.024767886042480952158
0.024740765239398793823
0.024709283300227879304
0.024680575540943983787
0.024648171024402105306
0.024619468645376358512
0.024587822608679886505
0.024559841887248065606
0.024528549585822647522
0.024500772246798772913
0.024469640985006608364
0.024442374272427454945
0.024411986564327286392
0.024385431622760626869
0.024355539792006681427
0.024329050218389762505
0.024298775019357708033
0.024271799893361450939
0.024240571663940890801
0.024212877962643208907
0.02418103797531856794
0.024153192661767821509
0.024121571500182632797
0.024094483416198572007
0.024063792805898209792
0.024037685723832035584
0.024008095849926539
0.023982738203270920901
0.023953644313902129614
0.023928233309294732328
0.023898639993976514978
0.023872232329053565819
0.023841419194465331838
0.02381412532433812429
0.023782681760375925378
0.023755680148091387616
0.023725169397521915504
0.023699160998588004318
0.023669604964390997953
0.023643936377343022226
0.023614328425760441194
0.023588146826456986987
0.023557650460260901731
0.023530429862028731658
0.023498695668366011841
0.023470753881287959725
0.023438882990657970012
0.023411827902061942142
0.023381330473054129371
0.023355962765488801763
0.0233269170521166469
0.023302275145410760587
0.02327364484036695616
0.023248993480519467014
0.02322048229254477375
0.023196458747802895656
0.023168707554194103992
0.023145504113348217001
0.023118016888002634879
0.023094428725760382526
0.023066053006678220033
0.023041328190025960054
0.023012115746119794074
0.022987066509521474067
0.022957659696172579705
0.022932852601945850901
0.02290389706468218961
0.02287950601537378989
0.022851259272673542233
0.022827149671165159611
0.022799035257164118606
0.022775038620268601292
0.022746722812431816735
0.022722943191126918766
0.022694546203029689752
0.022670768257175694799
0.022642508673590716617
0.022618766678442609602
0.022590704120956348749
0.022567104174523247573
0.022539015345985544819
0.022515406249412978079
0.022487037216135024459
0.022463716710333592186
0.022435842200341088448
0.022413885995593192668
0.022387676147561329926
0.022366962657848311197
0.022341988695418160682
0.022321329532661766254
0.022295505228711480494
0.022273834471580697403
0.022246299600725535917
0.022223372267704585847
0.022194850607213881949
0.022171446798371640535
0.022143378945978012956
0.022120834897777941208
0.022094023281588871105
0.022073000661441057046
0.022047074936050077565
0.022027201778701425983
0.022001953280587151912
0.021982376722471923952
0.021957811652788723072
0.021938419602192730379
0.021913802957864568499
0.021894225506086675836
0.021868876620023198348
0.021848741038776653411
0.021822706420501540581
0.021802454836300697721
0.021776426063554871204
0.021756863163993722665
0.021731710632322299992
0.021713148098022772015
0.021689116054534229167
0.021671503782192767101
0.021648056674791731763
0.021630745673871173973
0.021607588561607559557
0.021590510204162791097
0.021567570676031603411
0.021550800301836346012
0.021528593125875444131
0.021512403482182865938
0.021490741099770113015
0.021475433264045325904
0.021454114641314536022
3.477169985673312291e-05
5.0935663539848771101e-05
7.3081883591309874481e-05
9.2913451082201142469e-05
0.0001052136458059823237
0.00012160667209321139419
0.00016071110589249649938
0.00020852160902606238784
0.00023771057432934596218
0.00025471083961614674222
0.00028324680301887699817
0.00033616529084857577807
0.00039613013503809926374
0.00043794217637192631642
0.000460548299867535719
0.00049613901146511004466
0.00056275330473223275814
0.00063106612132365295237
0.00068421114306949450991
0.00072867571142670869381
0.00077334542364124788522
0.00082208738834544693719
0.00087791532911884551191
0.00094213053594976612845
0.001009992836844954148
0.0010713689408880936252
0.0011186868144165244832
0.0011574227435162292351
0.0012083430698453438788
0.0012909873330192679283
0.0014063867496087417534
0.0015395091242352053427
0.0016678248349876398371
0.0017719306561298016518
0.0018417823182123817163
0.0018795109454326395463
0.0018982868846792399185
0.0019182063600822970868
0.0019597917465248556115
0.0020732698112728158331
0.0022766020403867798239
0.0024615917352194330303
0.0025988215609611775396
0.0026796113595327435662
0.0027145836452390405963
0.0027305273576725156912
0.0027563875792015880666
0.0028309722093496324236
0.0030875112329255085565
0.0034999190320869543944
0.0037989021559793429914
0.003954489590321868045
0.0040037663806781415357
0.0040097153644379247839
0.0040147195769430600934
0.0040348917281209381938
0.0040980902338731955287
0.0041842655611971993346
0.0042690753782494757912
0.0043457301873053568939
0.0044060269737610504789
0.0044453376299672881303
0.0044665462887126103006
0.0044789235533450677887
0.0044954695144177811428
0.0045316841950726553107
0.004639270973622874189
0.0049797778260638435321
0.0054499516084748579267
0.0058126927991295632495
0.0060401454741728531281
0.0061500008980779645104
0.0061903375222730830374
0.0062125640902852847375
0.0062532537515994357502
0.0063409097547466909683
0.0064701169598655895038
0.0066218423414344832964
0.0067732909855751652697
0.0069021611775912546094
0.0069931592619600635441
0.0070421551011949105534
0.0070599209539518358383
0.0070677287332747531015
0.0070850009657666091975
0.0071518904259461023309
0.0074170475588725267788
0.0079513974441721389785
0.0083632318316254426055
0.0086174062668026244621
0.0087432398111219073594
0.0087928624438661107804
0.0088154852203979686132
0.0088474493279638351945
0.0089181030956290135298
0.0090941665614990892935
0.0093480817860096074995
0.009616634975071144259
0.0098619965982827424017
0.010041825347733559712
0.010133021975837938969
0.010153469522900407038
0.010144269297974737795
0.010113448730463910422
0.010110487993481982044
0.010148880648638041596
0.010357238416197383363
0.01088255516229031869
0.011308322543027224741
0.011584608851345651673
0.011753010658197919278
0.011849356257097405989
0.01190043161956608718
0.011929729073809371837
0.0119673917396616869
0.012048640336810132953
0.012289947180674245381
0.01284274885843762759
0.013327192568352980856
0.013621382701451963809
0.013733407390730026018
0.013742232483998213094
0.013703018833898895218
0.013580473606928322727
0.013522150534354867787
0.013521991640720215297
0.013580414014386447616
0.013866322604007167568
0.014373728651399821782
0.014742773151765231274
0.014961877981514125346
0.015064920572279092911
0.015122687510550852572
0.015215920507267917741
0.015438500096835656647
0.015768746832330319402
0.016084073328037181566
0.016322597544932711255
0.016462222555936503743
0.016513797689605043406
0.016517037530070159679
0.016492052941322561666
0.016370936854329540266
0.016172995169324459741
0.016061362734956664139
0.016032871012089697921
0.016051547526079644468
0.016206304686955406991
0.01685783701333121859
0.017961105538571116302
0.018725968598483890004
0.019125984843755640397
0.019293034930918027264
0.019424621259198415757
0.019701006688968770997
0.020342784108068546339
0.021095741882354138858
0.021713645866568667686
0.0220753071564424308
0.022184945650424149621
0.022166604449421093564
0.02195368752189823941
0.021434542152656752695
0.021178351369832884576
0.021153157658132623609
0.021277037548997759092
0.02193514235809418747
0.022992228496733938675
0.023624819040946452853
0.023932274925349408118
0.024108390758991595643
0.024280103086080535857
0.024464381142052061407
0.024602473800827431849
0.024652781319114420999
0.024643363648534505339
0.024513945681130702714
0.023961485313509021944
0.023192575140321823601
0.022713614307388559077
0.022486849886033964674
0.022415655264985758638
0.022409292536914700994
0.022421150268852038656
0.022477106987436944879
0.022577203269618276171
0.022655852920010280394
0.022710430129413799322
0.022739179729612063463
0.024228730815843754071
0.024286233787837025605
0.024346600043252151352
0.024417831367910505097
0.024505480916459619622
0.024610052215386288982
0.024728237859423421452
0.024852977602497345472
0.024976460133596438407
0.025092254158614067661
0.025197540028465893747
0.025291277497780401129
0.025373656399605672845
0.025445181227753826958
0.025507402677350479725
0.025561778689320739655
0.025611372086189698044
0.025661298851289763429
0.025717315376778220742
0.02578404545369110748
0.025864593787689415388
0.025957956076680679947
0.026060856843063848198
0.026167639828465739937
0.026272150081078100153
0.026368352869361236929
0.026451884618239579483
0.026521508471484891989
0.02657764323658072525
0.026622183986572230813
0.026658689199299586553
0.026690754068603831511
0.026722656897227699269
0.026758336824242646979
0.026801854975930433644
0.026856088605362104377
0.026923118589659168071
0.027004044371402340791
0.027096023618681054634
0.027195536730955014587
0.027299771714063079953
0.027403646196658668771
0.027504650690101863086
0.027600424101737873472
0.027688888856722545379
0.027768434228031935174
0.027838519820695548784
0.027898294471706421016
0.027947827681529171379
0.027986747160774972515
0.0280148254454430784
0.028033586513120139355
0.028044583609478864611
0.028050607575950004674
0.02805341139664704192
0.028054461253958135059
0.028054334132093010357
0.028052502076953669125
0.028049898155509296604
0.028047306672589533694
0.02804421329226116158
0.028037665033943590803
0.028021547340864177977
0.027986095695126847471
0.027942552931258933524
0.027899613712874814925
0.027855044904903973613
0.02781450212981751921
0.02777357553865242995
0.027737575626119014699
0.027701157102813237648
0.027669249529931702614
0.027636165385453853593
0.027606524311619948936
0.027574761848529531078
0.027546277568049452183
0.027515812863948760358
0.027489218737634931594
0.027460606032406881249
0.027435412023757963645
0.02740714116667210612
0.027381272828786183682
0.027351662030551521926
0.027325038004605655545
0.027295203098831401917
0.027269486491961814068
0.027240647942616411786
0.027215568324924218485
0.027187050996933411623
0.027161924693923009816
0.027133564043404174992
0.027108844909180005583
0.027080465959850211211
0.027055652791295667359
0.027026746229141578037
0.02700150533070651282
0.026972580865381554083
0.02694724651071579713
0.026918211352700255334
0.026892954604522196355
0.026863694152427234491
0.026838342543071151691
0.026808340168132951953
0.026781899092287911324
0.02675088696838084229
0.02672373074534513393
0.026692269465872067724
0.026664494813627929309
0.026631478509133627713
0.026601573508537229573
0.026566398492354873634
0.02653516948576575829
0.02650000072866221662
0.026469812597789611763
0.026435964901361238416
0.026406917703910515183
0.026373610603482356557
0.026344566631147377234
0.026310856922002984898
0.026281439372704693686
0.026247781231774004046
0.026219243653319398296
0.026187029437687754652
0.026160214313028683913
0.026129031343725499931
0.026102282850128871033
0.026070114446106684714
0.026041635748262903505
0.026007403079713366234
0.025977341529549551058
0.025942197471218248622
0.02591233203262669621
0.025878090478556051851
0.025849256042429515773
0.025815794748346266446
0.025787306690019554806