/*--------------------------------*- C++ -*----------------------------------*\
  =========                 |
  \\      /  F ield         | OpenFOAM: The Open Source CFD Toolbox
   \\    /   O peration     | Website:  https://openfoam.org
    \\  /    A nd           | Version:  12
     \\/     M anipulation  |
\*---------------------------------------------------------------------------*/
FoamFile
{
    format      ascii;
    class       volScalarField;
    location    "0.0074";
    object      nut;
}
// * * * * * * * * * * * * * * * * * * * * * * * * * * * * * * * * * * * * * //

dimensions      [0 2 -1 0 0 0 0];

internalField   nonuniform List<scalar> 
75962
(
4.6671083935303978646e-07
5.861751409136603715e-07
6.8628150442457423711e-07
7.3837626426976302511e-07
8.0078111931616842531e-07
9.2732784417645421506e-07
1.0684684697663974122e-06
1.1535230759388216787e-06
1.1917798617379332711e-06
1.2288245558419494996e-06
1.3077209476044207484e-06
1.4376889777162889116e-06
1.5489559742058955794e-06
1.6095727305523393681e-06
1.6513470113949449244e-06
1.7329657045525133112e-06
1.8390460669502027416e-06
1.9377759736248857272e-06
2.0309982573171634853e-06
2.1217528439612632747e-06
2.200144526109398818e-06
2.2600671273743365181e-06
2.3122084943853243599e-06
2.3751393396735398567e-06
2.4572407520422101668e-06
2.5471800902521252111e-06
2.6231780562781306304e-06
2.6776971763299664778e-06
2.7255688583875253093e-06
2.790712414368647534e-06
2.884336511975214074e-06
2.997350527551516799e-06
3.1115890331386117716e-06
3.2100949853405778642e-06
3.2817350179414412609e-06
3.3239878999281546723e-06
3.3455930126185185493e-06
3.3657297660202915226e-06
3.4073591530175549008e-06
3.5046217811115406867e-06
3.6382740800020108139e-06
3.7734450289241235537e-06
3.8903629909035807114e-06
3.9729452666374814331e-06
4.0157050507791829027e-06
4.0309864690610964553e-06
4.0443197442665765329e-06
4.0799604161879255757e-06
4.2007227515902001875e-06
4.4178373831789298357e-06
4.5786604162776102568e-06
4.6724122289301711736e-06
4.7258588965341854699e-06
4.7708508732463581747e-06
4.8212998142932456322e-06
4.8719451850709108494e-06
4.9128563788121198944e-06
4.9422008688970037182e-06
4.9657202000525179053e-06
4.9890317500783854703e-06
5.0127325237191976904e-06
5.0333834354254359598e-06
5.0474839808812863997e-06
5.0561264338523915194e-06
5.0672012247322868213e-06
5.0937805936739854421e-06
5.1728408472948872069e-06
5.3800082215085257757e-06
5.5959598743877058289e-06
5.7521711875674921111e-06
5.8418676426555391949e-06
5.8785921616026365959e-06
5.8873664236381872508e-06
5.8902034444576088635e-06
5.8989123700862137136e-06
5.92500700841402635e-06
5.9755141998560091162e-06
6.0389082726620556098e-06
6.111161253632663291e-06
6.1838028099389795482e-06
6.2438596013769287512e-06
6.2814038383027552618e-06
6.2968297676305775819e-06
6.3025812886246193606e-06
6.3148841191621652821e-06
6.3561510188461844349e-06
6.4930198976273303821e-06
6.6755617613568344113e-06
6.8119584212276739946e-06
6.8965468126264858309e-06
6.9382966755086661876e-06
6.9531908389621140096e-06
6.9556495827727570747e-06
6.9550571016276410799e-06
6.9576408717108493396e-06
6.9698557208614903794e-06
7.0112663017201556147e-06
7.1231261135258454659e-06
7.25515393522462963e-06
7.366379031563751416e-06
7.4373191011458655023e-06
7.4636150004221427849e-06
7.4624146569956996427e-06
7.4526128862888941015e-06
7.4456872700339451763e-06
7.4520803945692984767e-06
7.5133132586380141696e-06
7.6475287007705801493e-06
7.7414125999265648661e-06
7.8015561434441059631e-06
7.843624342033728172e-06
7.8760986264090624483e-06
7.9001563624579433545e-06
7.9162548788004943396e-06
7.9316977107502223393e-06
7.9633777159977171557e-06
8.0454466516441829657e-06
8.1819845438605517154e-06
8.3111930446667630631e-06
8.3994276033373502135e-06
8.4361716129835574534e-06
8.4372074693106393489e-06
8.4257803266218778967e-06
8.4070891152574801775e-06
8.4007069276704046852e-06
8.4105475871545709371e-06
8.483856772641536499e-06
8.6768635000045892642e-06
8.8529966896324879095e-06
8.9852885824224352926e-06
9.0732481877380420431e-06
9.1194459642326110906e-06
9.1334738657223575831e-06
9.1313212011460973737e-06
9.1269908681431616336e-06
9.1285663782398991585e-06
9.1584520209922233721e-06
9.2177925390682168656e-06
9.25118386673973861e-06
9.2582996235844306599e-06
9.2520818307654038019e-06
9.2355905537328673762e-06
9.1836532070077215884e-06
9.1034620259653879656e-06
9.052740905301875129e-06
9.0320602612900791853e-06
9.0281617372085723602e-06
9.0563909376462902329e-06
9.1990571495174448385e-06
9.3996024210606517565e-06
9.5315366586071666866e-06
9.6220562393606402963e-06
9.7082051615987888184e-06
9.8206916652837352783e-06
9.9704667417118787097e-06
1.0143255100532939695e-05
1.0307771405150428122e-05
1.0431478413892142885e-05
1.0495566057005588668e-05
1.0508015215565610323e-05
1.0495815825526709302e-05
1.0441177273469541824e-05
1.0327459760605708545e-05
1.0271017913980513982e-05
1.0261295064085517508e-05
1.0289697629192655638e-05
1.0457091479148114207e-05
1.0693611316239019524e-05
1.0818685826304672991e-05
1.0859769104525619868e-05
1.086045489486155331e-05
1.0851683231004112827e-05
1.0843568513792247127e-05
1.0837618984708867947e-05
1.0829905743776471329e-05
1.0812012219346557975e-05
1.0749970209769684677e-05
1.0584887526171527495e-05
1.043703871982715958e-05
1.0349578073723614694e-05
1.0310895002368351028e-05
1.0298604413715083616e-05
1.0295317049684934386e-05
1.0310832698198208517e-05
1.0346719030171871637e-05
1.0367770997654340368e-05
1.0375560160950363057e-05
1.0374516128587195005e-05
1.0489040062945381653e-05
1.0484599559637302664e-05
1.0478898117356110018e-05
1.0473650601692524863e-05
1.0470609053892895421e-05
1.047326774000182666e-05
1.04887671822123029e-05
1.0510588660861001952e-05
1.05355374279898229e-05
1.056209191859135496e-05
1.0588066783653208726e-05
1.0611553324408834698e-05
1.0631165004021836152e-05
1.0646106142740192511e-05
1.0656752900677735635e-05
1.0663811178356930336e-05
1.0668551113119206149e-05
1.0672185978536506253e-05
1.0675771788539338138e-05
1.0680113330533494702e-05
1.0685675622428381733e-05
1.0692307257968205732e-05
1.069998645284085514e-05
1.0708180218172446855e-05
1.0716261855709205029e-05
1.0723431362575386677e-05
1.0729141347248887572e-05
1.0733360283257148657e-05
1.0736057735239488509e-05
1.0737720791133567195e-05
1.0738497296757495752e-05
1.0739258595195290725e-05
1.074060921825542819e-05
1.0743391817172230371e-05
1.074815487254368128e-05
1.0755714446065177796e-05
1.076588967455684215e-05
1.0778458991743054796e-05
1.0793060900691431395e-05
1.0809020095398999024e-05
1.0825356636476032911e-05
1.0841748414490810242e-05
1.0857053916676630991e-05
1.0870805170709950909e-05
1.0882100468666990978e-05
1.0889700499771161996e-05
1.0893526989523092332e-05
1.0893364163297726454e-05
1.0889871584063082739e-05
1.0883923576317743303e-05
1.0876923186985654158e-05
1.0869323958525895798e-05
1.0861122309384417016e-05
1.0851740538519848782e-05
1.0842534967856372601e-05
1.0833553921749808761e-05
1.0824072932031455322e-05
1.0813824586271996415e-05
1.0802542472576593356e-05
1.0790252224536653146e-05
1.0777136775726409322e-05
1.0763306746615877282e-05
1.0749135765878933225e-05
1.0734704771886144218e-05
1.0720332240317501554e-05
1.0706045830528766337e-05
1.0692055827133006664e-05
1.0678343584217554933e-05
1.0665136072543397207e-05
1.0652274593273164009e-05
1.064002313583249823e-05
1.0627924567722875064e-05
1.0616189836374879073e-05
1.0604287161862121743e-05
1.0592515947452209874e-05
1.0580545764346754276e-05
1.0568758268083858968e-05
1.0556834483915238711e-05
1.0545190924857839355e-05
1.0533309869242641615e-05
1.0521682909601905992e-05
1.0509662448934808943e-05
1.0497894853214790369e-05
1.0485774080814863949e-05
1.0473994474164141511e-05
1.0461905540886098031e-05
1.0450197843578747361e-05
1.0438164062949881953e-05
1.0426522669366318881e-05
1.0414557558923864534e-05
1.0402865000272071269e-05
1.039072550864262112e-05
1.0378674176326553827e-05
1.0366068204724368193e-05
1.0353719213131915e-05
1.0340976037761879846e-05
1.0328793822624856986e-05
1.0316327048742475714e-05
1.0304380960410231121e-05
1.0292018996214834421e-05
1.0280028908853082543e-05
1.0267420651816913936e-05
1.0255191908873765685e-05
1.024228613967427293e-05
1.0229809402003272819e-05
1.0216743535181427684e-05
1.0204086621837840011e-05
1.0190874923641271601e-05
1.017801562075466413e-05
1.0164528045341867399e-05
1.0151408087050025895e-05
1.0137775039006309053e-05
1.0124673079149963041e-05
1.0111257849016605189e-05
1.0098506136784384044e-05
1.0085352718883832125e-05
1.0072815476394577763e-05
1.0059672739333832531e-05
1.0047054215369199165e-05
1.0033851975870908838e-05
1.0021270931879579968e-05
1.0008206733515524498e-05
9.9958758481413002736e-06
9.9830400071146416035e-06
9.9708544779594372292e-06
9.9580514267228182988e-06
9.9457102188867621036e-06
9.9326191558507358751e-06
9.9199800830083497956e-06
9.9067163552008964005e-06
9.8940416204109535395e-06
9.8808968577439003898e-06
9.8683343761197029101e-06
9.8552401341881177589e-06
9.842711692627512785e-06
9.8296561901462942287e-06
9.8172395427700896129e-06
9.8043454288325490288e-06
9.7920743653188823806e-06
9.779299089271599517e-06
9.7670784340980647736e-06
9.7542466475518835198e-06
9.7419669743738827953e-06
9.7289646408432551775e-06
9.7165683646211007535e-06
9.703511354705253008e-06
9.6911784588377808663e-06
9.6782434603975782449e-06
9.6661387832969869601e-06
9.6534143217233453249e-06
9.6414789865732131771e-06
9.628944155555665068e-06
9.6170783631123413161e-06
9.6045949624774661784e-06
9.5926681887980785527e-06
9.5800784206908274119e-06
9.5679872824739767105e-06
9.5551977394025557587e-06
9.5429597715195901457e-06
9.5300317485110401695e-06
9.517819862776378547e-06
9.5050417883122934428e-06
9.4930183969185341994e-06
9.4804876753293547685e-06
9.4686017268093924752e-06
9.4561927116837916072e-06
9.4443082394856508603e-06
9.4317957216782388627e-06
9.4197609394870675318e-06
9.4069952539875738518e-06
9.3948167376236062719e-06
9.3820186339398002699e-06
9.37002508686555821e-06
9.3574706407703002253e-06
9.3457837322370178361e-06
9.3335157424597392159e-06
9.3219606952521956976e-06
9.3098104899445438396e-06
9.2982874322184207047e-06
9.2861927963354663843e-06
9.2748178576127084756e-06
9.2628962854628016946e-06
9.2517266783377089402e-06
9.2399313976912175376e-06
9.2287402963402852165e-06
9.216843368500310366e-06
9.2054790989666479599e-06
9.1934375657010541656e-06
9.1820474342550079951e-06
9.1699673366891963714e-06
9.1586391936677262867e-06
9.1466654452379518169e-06
9.1353902782957308753e-06
9.1235497799461987207e-06
9.1122901054550684328e-06
9.1004312941135764826e-06
9.0891456249592320418e-06
9.0771880940799873355e-06
9.0659437843969716242e-06
9.0539815096922366127e-06
9.0427601471668616928e-06
9.0308809335466178715e-06
9.0197234936248847946e-06
9.0079289101993524055e-06
8.996892952478201819e-06
8.9851586868754900996e-06
8.9741780987452961872e-06
8.9624819084518473646e-06
8.9515824748567007015e-06
8.9400003951210247146e-06
8.9293408012129494677e-06
8.9180749183373860038e-06
8.9076951756509933499e-06
8.8967055356939996622e-06
8.8864103089466032272e-06
8.8752892299264136614e-06
8.8648141443668862651e-06
8.8533197848679768822e-06
8.8425142593130928031e-06
8.8308236277735948277e-06
8.8199133337736265476e-06
8.8082847891597730708e-06
8.7975717794368594305e-06
8.7862161990453152501e-06
8.775834574201374629e-06
8.7646750083343223105e-06
8.754556772318150128e-06
8.7435850653559045605e-06
8.7335486198524918389e-06
8.7227263631893656084e-06
8.7127770035152081576e-06
8.7019666091286780374e-06
8.6920308781115698571e-06
8.6811013170445846371e-06
8.6710782422878136778e-06
8.6600589670244413633e-06
8.6499931290952693317e-06
8.6389717379446959188e-06
8.6290431563426605568e-06
8.6181766987264526081e-06
8.6084340174833818752e-06
8.5978085357872546747e-06
8.5882876466147535125e-06
8.577849998416727244e-06
8.5684863752662389905e-06
8.5581978928405963908e-06
8.5489870641181986768e-06
8.5387823619191782981e-06
8.5296589434443065585e-06
8.5196055992004590397e-06
8.5105698622449505293e-06
8.5005745387649691604e-06
8.4917042532869608064e-06
8.4817630732313950342e-06
4.9100261363932733146e-07
6.3354339654561185697e-07
7.5331699880491252767e-07
8.2131857603076637529e-07
8.6388556755478524739e-07
9.3957855393944328095e-07
1.100467451537219713e-06
1.2153214541426720457e-06
1.2775416644935845126e-06
1.3512614009706955628e-06
1.4542607114976363947e-06
1.5547384314567388894e-06
1.6268256703704589445e-06
1.676479981502667545e-06
1.7378325333102199617e-06
1.8398342949415851608e-06
1.9759769494426199647e-06
2.0941883548137272927e-06
2.1546882768058893005e-06
2.2027467539015871383e-06
2.2825014866163632717e-06
2.3741854818306765543e-06
2.4472459152248667648e-06
2.5089121856847040289e-06
2.588006781478547325e-06
2.689351888496084748e-06
2.7847980809749423589e-06
2.8469722841306618819e-06
2.880791289691624921e-06
2.9203706335383551997e-06
2.997456561952843e-06
3.1130286659304985133e-06
3.2407865295657507815e-06
3.3475265523963490549e-06
3.4137295671828691463e-06
3.4450962389098298164e-06
3.4675158610694661093e-06
3.5117088580736900969e-06
3.6054727559696430766e-06
3.7273615429431526857e-06
3.8541866473273822947e-06
3.9688713720565938083e-06
4.0591333368015850071e-06
4.1179337807955250088e-06
4.1468798913496290038e-06
4.1610861030086176583e-06
4.1842161841380409032e-06
4.2467217933269878563e-06
4.4421615346846584456e-06
4.7162278893252628734e-06
4.910942723875658358e-06
5.0126732665092096268e-06
5.0448591507503441546e-06
5.0489346800753483158e-06
5.0555618754307452779e-06
5.0833980649346450286e-06
5.1355104171002025052e-06
5.1793499137735958413e-06
5.2117334330877323394e-06
5.2344486580095599574e-06
5.2494795591943724174e-06
5.2583631317287334733e-06
5.2632151157905220296e-06
5.2680149567023663301e-06
5.2787992788577710969e-06
5.308443930276170621e-06
5.4030649368427756087e-06
5.6391352208144554262e-06
5.8706475694078144272e-06
6.0365164847575496432e-06
6.1311423622313405599e-06
6.1699014718821906792e-06
6.1792519075733273753e-06
6.1825813869028735175e-06
6.1927833012879332991e-06
6.2238154101036287843e-06
6.2820085850919592609e-06
6.3491820972064395951e-06
6.4197923865955167259e-06
6.4868731753845134528e-06
6.5408215650859241873e-06
6.5743353311421730411e-06
6.5878267779424731174e-06
6.5914275398050456916e-06
6.5990112753235176442e-06
6.6277248717295784812e-06
6.7366912634923823531e-06
6.9706541015679062293e-06
7.1621501294150254432e-06
7.2879366364199433149e-06
7.3560283607138886059e-06
7.3849928009117214375e-06
7.3936758406413526619e-06
7.3948257547768900957e-06
7.3954831111085760729e-06
7.4017517317703929175e-06
7.4230855008338620559e-06
7.4900915223287047203e-06
7.596439788242260461e-06
7.6915129512978278368e-06
7.7558489348928737157e-06
7.7824543002907333161e-06
7.7830264877616265164e-06
7.7749821399815695192e-06
7.7677474281343790945e-06
7.7694022056594735416e-06
7.8081493493650729098e-06
7.9394707664900466843e-06
8.0704101015370129172e-06
8.1646245719506411911e-06
8.2341671174233503671e-06
8.2860642031047873098e-06
8.3218251652789442647e-06
8.3426521679807968094e-06
8.3549527803747924585e-06
8.3742122156445304086e-06
8.4235509237368086285e-06
8.5579091919823479791e-06
8.7181348106127278306e-06
8.8357675085829768256e-06
8.8949403140675869573e-06
8.9071163027877261093e-06
8.8999163818105124176e-06
8.8828262735993975842e-06
8.8711346950538355469e-06
8.8704796590707154315e-06
8.903764896009235116e-06
9.0420401222181063849e-06
9.2226634758422992828e-06
9.3549304262864437149e-06
9.4393393467025721018e-06
9.4809275214057215053e-06
9.4924122840235932987e-06
9.4918645892489572754e-06
9.4940557405723726011e-06
9.5122639217891436002e-06
9.5788766587142687079e-06
9.6522073698426788172e-06
9.6977494562487839125e-06
9.7155723121155718555e-06
9.7134441120010130166e-06
9.7038659635374668091e-06
9.6784478875290425032e-06
9.6133385879741669125e-06
9.5552649708457060729e-06
9.526017687710266175e-06
9.5171305691416333732e-06
9.52482464195165229e-06
9.5962905294910891399e-06
9.7998658466510692915e-06
9.9822930848033650339e-06
1.0114662627012154043e-05
1.0223899175280038975e-05
1.0343031115122110189e-05
1.0493449644406576944e-05
1.0670274534307275905e-05
1.0844802392266775687e-05
1.0981961094048528802e-05
1.1057848416617113168e-05
1.1075831424823463799e-05
1.1064655372887706222e-05
1.1012650268458419362e-05
1.0884797889262321681e-05
1.0810126555067560972e-05
1.0792544192793324082e-05
1.0806607258250077873e-05
1.0923017629394131804e-05
1.1140871870959880767e-05
1.127535659015382282e-05
1.1345346159782586314e-05
1.1388556556683171101e-05
1.1427550054752933466e-05
1.1462970325246080874e-05
1.1483356406657172709e-05
1.1483866330254433356e-05
1.1471584490274633339e-05
1.1425486630954963702e-05
1.1271591671616677007e-05
1.1094146163585299835e-05
1.0987640510356967043e-05
1.0939131452222940094e-05
1.0923496878056161255e-05
1.091877266493727871e-05
1.0930373291653744459e-05
1.0958146105104335841e-05
1.0972018210592424936e-05
1.0974200755958259581e-05
1.0969324317276530172e-05
1.096160842617745348e-05
1.1052038571867961084e-05
1.105284801855082615e-05
1.1049393238956099311e-05
1.1043438185411757045e-05
1.1036609442535619247e-05
1.1030002143309248447e-05
1.1024559190260432834e-05
1.102249655933136674e-05
1.1031653207029869731e-05
1.1066549369758581204e-05
1.1106520398252481857e-05
1.1142802456496041845e-05
1.1173376448468619012e-05
1.119718114882785944e-05
1.1213476113504889596e-05
1.1222957799910896552e-05
1.1226855348094087837e-05
1.1227318365533599923e-05
1.1226284887614286409e-05
1.1225737426431748754e-05
1.12269387889228565e-05
1.1230904942159509693e-05
1.123750445005671418e-05
1.124627954969129963e-05
1.1256480762048515527e-05
1.1266948278915388159e-05
1.127670056551394084e-05
1.1284954376406314126e-05
1.1291413880283051688e-05
1.1296099003500000187e-05
1.129936303781836198e-05
1.1301564855705711028e-05
1.1303477904466729302e-05
1.1305780412751440111e-05
1.1309609670240903612e-05
1.131548201079219358e-05
1.132408659024180629e-05
1.1335563551883855128e-05
1.1349498286220914935e-05
1.1365318255073897794e-05
1.1382368720290108463e-05
1.1399557289525099921e-05
1.1416223054422976963e-05
1.1431848932675846333e-05
1.1445462850053046775e-05
1.1456945252873959899e-05
1.1464973478986485126e-05
1.1469272619438538943e-05
1.146983955672982962e-05
1.1466982422206084433e-05
1.1461446751841699966e-05
1.145439225735975961e-05
1.144659445656359288e-05
1.1438279594219121196e-05
1.142897132781888862e-05
1.1419784162661501662e-05
1.1410965856544150391e-05
1.1401699011913311947e-05
1.139104352015725863e-05
1.1379098944991047619e-05
1.1365813240237223697e-05
1.1351700144896347818e-05
1.1336670116714447554e-05
1.1321338852042617021e-05
1.1305625196525730626e-05
1.1290138874137736768e-05
1.1274712490559338221e-05
1.1259819180052570969e-05
1.1245151316925875974e-05
1.1231156710383008839e-05
1.1217385737079604781e-05
1.1204320472996318444e-05
1.1191247804931307513e-05
1.1178621525199195096e-05
1.1165689627599320119e-05
1.1153019347598142237e-05
1.1140051170736134286e-05
1.1127427676863968937e-05
1.1114586931480631467e-05
1.1102157572181524264e-05
1.1089355343996613434e-05
1.107687103491818747e-05
1.1063825351390200986e-05
1.1051148361888382072e-05
1.1038003392549037066e-05
1.1025379609911008892e-05
1.1012354913489182744e-05
1.0999839425706217413e-05
1.0986881681577030754e-05
1.0974425299290265369e-05
1.0961547429771037991e-05
1.0949128953157395041e-05
1.0936207031151523386e-05
1.0923602930823491516e-05
1.0910388727415844102e-05
1.0897590607012334476e-05
1.0884276863596713272e-05
1.087156414024460465e-05
1.0858391335549223464e-05
1.08458261161260265e-05
1.0832713356115710013e-05
1.0820124242151095875e-05
1.0806793260900537614e-05
1.079395266946934313e-05
1.0780329192638551833e-05
1.0767280211619916012e-05
1.0753548457685504141e-05
1.0740358869444332617e-05
1.0726419456779028667e-05
1.0712901414011505039e-05
1.069856196386928506e-05
1.0684742900196302147e-05
1.0670314300315911026e-05
1.0656625745605965112e-05
1.0642483990103334537e-05
1.0629135271924554411e-05
1.0615193248914025305e-05
1.0601954428864551871e-05
1.0587963541419592048e-05
1.0574634139587787298e-05
1.0560625048175700433e-05
1.054743967746888933e-05
1.0533686229576537594e-05
1.0520850604842020524e-05
1.0507364627837290465e-05
1.0494625572039890466e-05
1.0481082226884076255e-05
1.0468079063601056015e-05
1.0454162758370234298e-05
1.044084073114405542e-05
1.0426743244973604453e-05
1.0413435531420039761e-05
1.0399513390231105946e-05
1.0386375635306192261e-05
1.0372547603393899327e-05
1.0359473005830311559e-05
1.0345699562408100264e-05
1.0332753334070617884e-05
1.0319157947022554206e-05
1.0306383253210371048e-05
1.029291418580935465e-05
1.0280174648019314677e-05
1.0266645518436480565e-05
1.0253823579716772054e-05
1.0240112538067999769e-05
1.0227156914566483224e-05
1.0213334027267368477e-05
1.0200363047285836444e-05
1.0186603260147179156e-05
1.0173809804692145661e-05
1.0160265766844445748e-05
1.0147699891227214872e-05
1.0134410166852119103e-05
1.0122025019220125277e-05
1.0108862785244243537e-05
1.0096488485061287353e-05
1.0083242151333611961e-05
1.0070677400577517397e-05
1.0057192112168684289e-05
1.0044457203047088261e-05
1.0030854466982643518e-05
1.0018195746592810079e-05
1.0004805135084993833e-05
9.9923727169547034942e-06
9.9792028340083839387e-06
9.9668638884677304305e-06
9.9537070388847093962e-06
9.9412847619213237692e-06
9.9279649344681946294e-06
9.9153455211835850959e-06
9.9017831144390901823e-06
9.8890260029532150716e-06
9.8754466704649359888e-06
9.8628879196030213412e-06
9.8496115721549618689e-06
9.8374248032012409588e-06
9.8244742110811214726e-06
9.8124618666461777379e-06
9.7996208416501323624e-06
9.7876273608681785304e-06
9.7748306167491634631e-06
9.7629877952129697486e-06
9.7503696188805631391e-06
9.7387184550215724041e-06
9.7261768406249358228e-06
9.714466243244062761e-06
9.7017595793085199222e-06
9.6898303823153887501e-06
9.6769663294541926127e-06
9.6649855129168849645e-06
9.652095893943176815e-06
9.6401804751172734566e-06
9.627400914579186799e-06
9.6155889506402864335e-06
9.6029768410740319059e-06
9.5912441634262633706e-06
9.5786802742567988915e-06
9.566991649215194371e-06
9.554405362300382579e-06
9.5427805903877509637e-06
9.5301946109457482531e-06
9.5185869428014779019e-06
9.5060474002705170346e-06
9.4944651480977218717e-06
9.4819855390794137564e-06
9.4704519992438034476e-06
9.4579857665186985687e-06
9.4464681625352439506e-06
9.4339596592289183828e-06
9.4225175552676474183e-06
9.4101274748681768408e-06
9.3989865488818638312e-06
9.3869633839428339865e-06
9.3761027599396088361e-06
9.3643608614319028189e-06
9.3535349400953043416e-06
9.3416378721922279933e-06
9.3306213164434411279e-06
9.3183850856145304588e-06
9.3071211551730937078e-06
9.2946921075348991722e-06
9.2833402424342286764e-06
9.2710180931837995138e-06
9.2598589530147762009e-06
9.2478143030563417747e-06
9.2369901812081393856e-06
9.2251494093259035144e-06
9.2145849940717032778e-06
9.2029065793996291415e-06
9.1924240448017673414e-06
9.1809083468422438711e-06
9.1704831736049640208e-06
9.1589747748013948877e-06
9.1485281928235340725e-06
9.1368842127974413266e-06
9.1263378986054686994e-06
9.1145678430691961066e-06
9.1040138374325404465e-06
9.0922616122684986919e-06
9.0818671845403797002e-06
9.0703141201648374606e-06
9.0601440226868612429e-06
9.0488407170861482031e-06
9.0388843809205101547e-06
9.0277191873240148959e-06
9.017841404013261287e-06
9.006753368771258368e-06
8.9969406596733619662e-06
8.9859153672921486127e-06
8.9761836049038857486e-06
8.9653284162450196413e-06
8.9557349965245208864e-06
8.945010842548687676e-06
8.9356180139671113655e-06
8.9249824013358003866e-06
5.1451357187783699733e-07
6.2178191332790038109e-07
7.4432639884565255345e-07
8.3879585034833859459e-07
8.920182794335603987e-07
9.5819841138248794172e-07
1.1005536789248756913e-06
1.2528987493714795512e-06
1.3369547034278259434e-06
1.3829796498230832071e-06
1.4572477173629436449e-06
1.586357887654821038e-06
1.72092380034768315e-06
1.8083821581077950976e-06
1.8532173229609172093e-06
1.9220108667967062809e-06
2.045457542294980578e-06
2.1646066524149207667e-06
2.2524304281421194999e-06
2.3228867705488429388e-06
2.3913677369955762136e-06
2.4638460643185845954e-06
2.5443395281231697738e-06
2.6338937213197497305e-06
2.7252116326783616086e-06
2.8049009614918517254e-06
2.8642511012159851551e-06
2.9113853705437585831e-06
2.9725657327187797955e-06
3.0702736340860275548e-06
3.2022571024711576881e-06
3.3480685583372290679e-06
3.4824664201556713797e-06
3.5871331154562444345e-06
3.6547311852736491021e-06
3.6894960479892596826e-06
3.7053352793254140561e-06
3.7221052004425020031e-06
3.7595151386291318451e-06
3.8638039551007895248e-06
4.0460052580800684441e-06
4.2043757809492593984e-06
4.3171286445470179706e-06
4.3808137667668746332e-06
4.40634184038343721e-06
4.4162180830973501479e-06
4.4339530236014964955e-06
4.4901857669593021305e-06
4.6853022552103615661e-06
4.9851548569404207327e-06
5.190513668087450785e-06
5.2923862358780577252e-06
5.3217193689070233881e-06
5.3219902545683341668e-06
5.3215790341343199174e-06
5.3311482187343367791e-06
5.3688871289398290722e-06
5.4212856016573143474e-06
5.4721736191841009267e-06
5.5172804216541395248e-06
5.551595972923997459e-06
5.5724570039954089777e-06
5.5818712781659287492e-06
5.5857245863504647305e-06
5.592136533934485356e-06
5.6106612216041091499e-06
5.6726659144819911159e-06
5.8724932677720107402e-06
6.1393843447262621388e-06
6.3362939579968237389e-06
6.454859083499262964e-06
6.5089544646692354919e-06
6.5258054905564121971e-06
6.5329606372126613892e-06
6.5497095284641427068e-06
6.5907824104648821752e-06
6.652920995029497395e-06
6.7257866511478199651e-06
6.797564692633016702e-06
6.8572142745293643279e-06
6.8975443627093759215e-06
6.9169226397827874751e-06
6.9208667325973650199e-06
6.9198798374845816594e-06
6.9234832531218465325e-06
6.951091160225856618e-06
7.0732655219737824011e-06
7.3185782650517392523e-06
7.5007771165387254842e-06
7.6088689545094368921e-06
7.6590670582448643153e-06
7.6755193013827251235e-06
7.6800635343652766309e-06
7.6885982189616141187e-06
7.7137759575907339881e-06
7.7839431386228230276e-06
7.8863363971026332765e-06
7.9932670566604257806e-06
8.0890443063632894334e-06
8.1569147302695805781e-06
8.1883094657648529077e-06
8.1909508046243978142e-06
8.1815878681787478581e-06
8.1634604843827463162e-06
8.1565453514660083459e-06
8.1662261110421680628e-06
8.2434754795699833203e-06
8.4438997627298700166e-06
8.6017946899350321153e-06
8.7003668427540799274e-06
8.7574009689446038557e-06
8.7871962595075950802e-06
8.800060162740390592e-06
8.8048014218082014978e-06
8.8125569226454801124e-06
8.8361973383795932332e-06
8.9176671256254968199e-06
9.1094924261201135453e-06
9.2735003397113051116e-06
9.369039329489578524e-06
9.4011458984273831008e-06
9.3977034341219424632e-06
9.3778579973959925878e-06
9.3293749228786589019e-06
9.3027418122785183509e-06
9.2961944293272901917e-06
9.3096446799237721811e-06
9.4001424756939402417e-06
9.5640078981612868198e-06
9.6794645081882240963e-06
9.7445242202086917896e-06
9.7713393214315554105e-06
9.7832692792175706233e-06
9.8064889733347793572e-06
9.8709030418946244788e-06
9.9689579633874538883e-06
1.0061202314095849447e-05
1.0128596850444916873e-05
1.0164877417323433181e-05
1.0173811889228582151e-05
1.016778980966929501e-05
1.0153110410482000395e-05
1.0108904672275593082e-05
1.004057018519651652e-05
9.9987919519592131554e-06
9.9828957711908557617e-06
9.9816943313117838829e-06
1.002242287692260643e-05
1.0213925556449941897e-05
1.0535758800772563121e-05
1.0750755764619572934e-05
1.0857808340384519726e-05
1.089771055493792279e-05
1.0927152897093332746e-05
1.0996705142364047468e-05
1.1166258581532604709e-05
1.1363205340725513574e-05
1.1520642444733123624e-05
1.1608415013901553743e-05
1.1629339448459141552e-05
1.1616568229890204239e-05
1.1552996784426158741e-05
1.1407669819972229453e-05
1.1331083875327848209e-05
1.1316331414583882892e-05
1.1341276649894250423e-05
1.1506522046574595389e-05
1.1772639415458069584e-05
1.1925622598926564926e-05
1.1994862689502984888e-05
1.2030592081811789629e-05
1.2064933590848654564e-05
1.2102215768659492612e-05
1.2127965836501382435e-05
1.2132017942271702043e-05
1.2121343082717281578e-05
1.2081318452713712792e-05
1.1936682903260365985e-05
1.1735278393681022936e-05
1.1605130113299686541e-05
1.153882347212329494e-05
1.1512431149046692169e-05
1.150277351325623526e-05
1.1497804977869033785e-05
1.1504078236998268916e-05
1.1521663537423657424e-05
1.1533724599293752061e-05
1.1539618684282701514e-05
1.1538933086805101136e-05
1.1608599695131523432e-05
1.1614307104205236356e-05
1.1620656487277234513e-05
1.1629549162918391693e-05
1.1642292824116945308e-05
1.1658986635124717556e-05
1.1678823326492568306e-05
1.1700114870281814588e-05
1.1721011617217684281e-05
1.1740006259037143434e-05
1.1756452463874265103e-05
1.1770127440360037056e-05
1.1781097888421311349e-05
1.1789501786036963533e-05
1.1795715518980688983e-05
1.1800088016937853138e-05
1.1803332255820436894e-05
1.1806628199312713633e-05
1.1811296088349126752e-05
1.1818387961267962319e-05
1.1828601031094296533e-05
1.1841688606134718068e-05
1.185688777263836134e-05
1.1872901426350582018e-05
1.1888331189270466638e-05
1.1901818293837119583e-05
1.1912391212055452243e-05
1.1919788294643988023e-05
1.1924121492738098935e-05
1.192583217661961144e-05
1.1925729835584423862e-05
1.192462541748241694e-05
1.1923474915635144284e-05
1.1923151489394744602e-05
1.1924551299687265364e-05
1.1928304917792592176e-05
1.1934864685141455747e-05
1.1944465001875727184e-05
1.195646563814615286e-05
1.1970076856205370626e-05
1.1984669279509468982e-05
1.1999119228666680045e-05
1.2012874248998521798e-05
1.2025422275146942116e-05
1.2036320350058667814e-05
1.2045232180708064217e-05
1.205205609059863116e-05
1.2056622081683148858e-05
1.2058956982146224241e-05
1.2058989583742485454e-05
1.2056676995073427374e-05
1.2052351948268684543e-05
1.2046352709473543782e-05
1.2039283623587151875e-05
1.2031525826450127924e-05
1.2023397474157850406e-05
1.2015024294484102606e-05