/*--------------------------------*- C++ -*----------------------------------*\
  =========                 |
  \\      /  F ield         | OpenFOAM: The Open Source CFD Toolbox
   \\    /   O peration     | Website:  https://openfoam.org
    \\  /    A nd           | Version:  12
     \\/     M anipulation  |
\*---------------------------------------------------------------------------*/
FoamFile
{
    format      ascii;
    class       volScalarField;
    location    "0.0074";
    object      pPrime2Mean;
}
// * * * * * * * * * * * * * * * * * * * * * * * * * * * * * * * * * * * * * //

dimensions      [2 -2 -4 0 0 0 0];

internalField   nonuniform List<scalar> 
75962
(
861222.31715774536133
841614.55812454223633
833217.82523727416992
827408.1391487121582
822797.03505516052246
818641.83449172973633
814605.33288383483887
810597.60284996032715
806595.4633617401123
802628.20402336120605
798711.18351745605469
794895.8134765625
791171.46533012390137
787474.38289642333984
783854.16512489318848
780423.64265060424805
777173.53231811523438
774060.37911796569824
771025.12577056884766
767996.10598182678223
764935.23386764526367
761866.51496505737305
758890.62180709838867
756075.93076705932617
753453.7535228729248
751044.86534690856934
748880.59829139709473
746989.00739288330078
745367.6882438659668
743973.27681350708008
742756.10538864135742
741665.91093635559082
740658.88387298583984
739716.98441505432129
738829.11859321594238
737962.72170639038086
737093.47081756591797
736214.39314270019531
735329.19750022888184
734437.19647407531738
733538.23628425598145
732622.06957817077637
731664.01758003234863
730636.62512016296387
729522.3525218963623
728316.54709243774414
727033.27645492553711
725687.55572509765625
724284.61395645141602
722798.08491706848145
721192.02041816711426
719463.22805595397949
717622.26784896850586
715675.61431121826172
713643.87601470947266
711545.70570755004883
709394.4501838684082
707208.01667976379395
705020.25522994995117
702871.95927429199219
700788.57264709472656
698771.5606689453125
696807.10325813293457
694882.33078956604004
693000.0240364074707
691176.36697387695312
689412.91049957275391
687690.15196990966797
685983.15276908874512
684281.39322280883789
682594.02308654785156
680928.49138259887695
679272.47806739807129
677603.28344535827637
675910.67231369018555
674205.44462776184082
672508.17116737365723
670830.35045433044434
669164.29790878295898
667489.93328666687012
665793.26903915405273
664075.99843978881836
662349.40184211730957
660627.61497497558594
658922.22367095947266
657243.69364929199219
655593.16788864135742
653959.40800094604492
652334.15421295166016
650727.38419151306152
649159.58621406555176
647643.10992431640625
646178.34033203125
644765.23751258850098
643413.67109107971191
642138.73688507080078
640937.97567367553711
639790.89892959594727
638669.27345275878906
637546.5598201751709
636409.07803726196289
635259.82113647460938
634109.55141639709473
632963.55622100830078
631815.76321792602539
630658.15615272521973
629492.30754852294922
628322.1168212890625
627140.35524559020996
625926.06299781799316
624656.68123435974121
623323.43867492675781
621933.7685604095459
620499.71940803527832
619024.67061424255371
617503.16722679138184
615933.05509376525879
614319.46588706970215
612668.15020942687988
610978.55317878723145
609243.46229553222656
607456.0831470489502
605617.03473281860352
603732.89777946472168
601811.11938285827637
599860.89931678771973
597896.99010467529297
595935.63668823242188
593987.45938873291016
592055.92964553833008
590140.92721939086914
588244.32381629943848
586374.28814888000488
584545.34621429443359
582771.57002449035645
581060.86967468261719
579411.49176216125488
577814.20750999450684
576260.5862979888916
574751.42012596130371
573296.66987037658691
571907.15308952331543
570585.0498046875
569319.39289093017578
568091.63901519775391
566884.77286338806152
565686.72253799438477
564488.30797386169434
563278.22553634643555
562041.89832878112793
560764.27915191650391
559435.80588912963867
558054.40940475463867
556624.47021865844727
555153.04348564147949
553645.46516799926758
552106.58316421508789
550542.1005916595459
548957.97808647155762
547357.17870903015137
545733.404052734375
544073.06904983520508
542368.19273948669434
540626.77248573303223
538868.35773658752441
537109.78038597106934
535355.82098007202148
533601.29953384399414
531841.9531364440918
530082.96176338195801
528334.77432060241699
526603.46100616455078
524888.24331474304199
523186.56526565551758
521497.72479629516602
519822.50477409362793
518162.10287284851074
516518.85944175720215
514895.0570240020752
513293.03047370910645
511716.8056812286377
510174.60154151916504
508678.13820457458496
507239.16540908813477
505863.36832809448242
504545.97521018981934
503274.55730819702148
502035.89187622070312
458133.99605560302734
457165.12836647033691
456184.97472190856934
455189.63924789428711
454175.32558441162109
453140.91974449157715
452088.58712577819824
451022.25405693054199
449946.0386848449707
448863.9697151184082
447780.04920387268066
446697.62141418457031
445618.89324951171875
444544.7839241027832
443474.12656021118164
442402.28517723083496
441321.43244743347168
440223.88501930236816
439106.32404327392578
437971.12158012390137
436823.88653945922852
435669.41034698486328
434508.3630542755127
433337.18296813964844
432151.84828758239746
430952.49234962463379
429743.66629600524902
428529.93524742126465
427312.97197723388672
426093.59557914733887
424876.41143798828125
423671.66741180419922
422493.02087211608887
421354.19869804382324
420265.82687377929688
419232.65063667297363
418252.14199256896973
417315.30323600769043
416408.68048858642578
415517.51786422729492
414629.90097045898438
413740.00699996948242
412848.49361610412598
411959.97443580627441
411079.81900215148926
410211.94644927978516
409358.11018943786621
408518.67621421813965
407694.22301864624023
406886.49609565734863
406097.34428787231445
405326.57184410095215
404571.0379524230957
403825.70612907409668
403085.47619438171387
402346.07597160339355
401604.21125793457031
400858.38407707214355
400110.03141975402832
399363.5447940826416
398624.34632682800293
397895.97173118591309
397178.15043640136719
396466.81179046630859
395756.09081649780273
395041.14652442932129
394319.73077011108398
393591.28690910339355
392854.42917442321777
392105.76527786254883
391341.37956047058105
390558.64244651794434
389756.3784236907959
388934.38497352600098
388093.7984619140625
387237.98006248474121
386371.91924285888672
385499.73710250854492
384622.46595191955566
383738.63504981994629
382846.94442749023438
381947.76994323730469
381041.91683197021484
380128.50119781494141
379204.68276214599609
378267.3402042388916
377314.56568145751953
376345.9715404510498
375362.40669250488281
374365.50494956970215
373357.34671783447266
372340.46767807006836
371318.08683395385742
370293.92355918884277
369270.83709907531738
368249.07938957214355
367225.27587509155273
366193.42635345458984
365148.12887573242188
364088.45117378234863
363019.45900917053223
361949.97161674499512
360888.74439239501953
359841.7905330657959
358811.39602088928223
357796.29928588867188
356793.45298194885254
355800.98376655578613
354819.99471664428711
353853.52484703063965
352903.99502944946289
351972.24148368835449
351058.44062042236328
350162.88276672363281
349285.13512420654297
348423.02387428283691
347573.12617492675781
346732.69318962097168
345901.6002368927002
345082.32225799560547
344277.22702598571777
343485.09072113037109
342700.18445205688477
341914.78941345214844
341123.08141899108887
340323.29449462890625
339517.0775146484375
338707.40303039550781
337897.0186939239502
337088.16511154174805
336282.98183250427246
335483.23660469055176
334689.07879066467285
333898.00061225891113
333105.04010200500488
332304.24948883056641
331490.1076602935791
330657.92964363098145
329803.43115234375
328922.89913749694824
328014.71982192993164
327081.17000007629395
326129.05502128601074
325167.94725608825684
324206.48816680908203
323248.69691467285156
322292.60626029968262
321332.21676254272461
320360.99758911132812
319374.0488452911377
318368.0903263092041
317340.59416389465332
316290.04422950744629
315217.3655948638916
314126.93897438049316
313026.01745414733887
311922.82427024841309
310824.80411338806152
309737.78645324707031
308665.99938774108887
307612.51196098327637
306579.46392631530762
305567.73704719543457
304576.32799530029297
303602.38729476928711
302642.58391571044922
301695.20946884155273
300761.64230537414551
299846.10659217834473
298953.79582595825195
298088.68421173095703
297252.30331802368164
296443.99312210083008
295662.07741165161133
294905.10066986083984
294172.50075149536133
293464.43226623535156
292780.57455825805664
292119.12823104858398
291477.28878021240234
290852.25830078125
290242.54148483276367
289647.2437572479248
289064.71732139587402
288491.58736038208008
287923.29960632324219
287356.27037048339844
286789.86084365844727
286226.7482795715332
285671.27358818054199
285126.80688667297363
284593.90185928344727
284070.12761116027832
283551.85563468933105
283036.04416275024414
282521.73018646240234
282010.01889610290527
281503.00717735290527
281002.8193302154541
280511.04874420166016
280028.35842895507812
279554.23900032043457
279087.06582832336426
278624.43598556518555
278163.59731101989746
277701.78090476989746
277236.28063201904297
276764.65329551696777
276284.75472259521484
275794.22855186462402
275289.71399307250977
274766.98168754577637
274222.59787178039551
273655.98821449279785
273070.29461097717285
272470.95739555358887
271863.16862487792969
271250.15845108032227
270633.20096397399902
270012.79318618774414
269389.73725128173828
268765.54739952087402
268142.17794036865234
267521.57755279541016
266905.273681640625
266294.11871147155762
265688.26883888244629
265087.14841270446777
264489.25263404846191
263891.98358535766602
263291.95572280883789
262686.3394889831543
262074.51374053955078
261458.98276710510254
260844.65228652954102
260236.88842391967773
259639.79162979125977
259055.61387825012207
258485.28256988525391
257928.99934387207031
257386.23819160461426
256855.47578811645508
256334.59698867797852
255822.08908462524414
255318.0984992980957
254824.27523422241211
254342.76064109802246
253875.16691589355469
253422.339599609375
252984.70064353942871
252562.56466865539551
252156.12802886962891
251765.30442810058594
251389.50700378417969
882109.13776779174805
855256.52152061462402
843414.72232818603516
834844.15481185913086
828373.92996215820312
823124.51318359375
818478.80847358703613
814077.99879837036133
809738.91000747680664
805399.63719749450684
801020.01901054382324
796651.29725646972656
792346.8961238861084
788124.76326751708984
784042.02558326721191
780217.77346229553223
776685.73480796813965
773378.18899154663086
770275.73801422119141
767334.89143943786621
764484.26371383666992
761675.97775650024414
758951.39054679870605
756347.34804534912109
753842.47197341918945
751439.54668426513672
749187.71071243286133
747132.0069751739502
745309.67575836181641
743726.7991771697998
742371.68760299682617
741205.14787864685059
740175.82320976257324
739260.58261299133301
738437.07620620727539
737666.15972518920898
736901.7624397277832
736114.7313175201416
735288.60836410522461
734417.01886177062988
733495.6491756439209
732521.32179260253906
731476.0670280456543
730336.5748119354248
729088.3323917388916
727739.47999000549316
726321.7786750793457
724854.77015495300293
723335.39378356933594
721745.89089012145996
720068.41257667541504
718296.66064453125
716441.77626419067383
714508.40230560302734
712500.10461044311523
710417.92922019958496
708268.83567237854004
706069.62845802307129
703855.87933158874512
701672.49439811706543
699558.0809326171875
697528.92441177368164
695578.37214469909668
693687.76296997070312
691854.703369140625
690090.41670989990234
688398.4278621673584
686756.77035522460938
685132.25923919677734
683506.20533752441406
681887.16412734985352
680280.7879753112793
678677.54610633850098
677062.37364387512207
675430.17037963867188
673788.82335090637207
672152.06073188781738
670523.12073135375977
668891.82200050354004
667243.4440860748291
665565.62015914916992
663863.84603309631348
662157.64483451843262
660464.2337589263916
658788.39385986328125
657129.40564346313477
655485.54187393188477
653854.1693058013916
652236.48841285705566
650644.39984130859375
649094.31657600402832
647592.15878295898438
646134.83884620666504
644720.21677780151367
643354.35118865966797
642048.57189559936523
640805.22993278503418
639608.69038391113281
638434.60760688781738
637257.52878761291504
636061.68365287780762
634849.65271949768066
633637.15346145629883
632434.56649017333984
631238.96573829650879
630040.72864151000977
628837.13558387756348
627631.16525077819824
626417.78631591796875
625179.00980758666992
623892.49539184570312
622544.32223510742188
621136.56500625610352
619680.19330024719238
618185.04038047790527
616657.72533416748047
615106.32081031799316
613534.15332412719727
611934.30225372314453
610292.35856056213379
608593.52550888061523
606831.08029365539551
605007.85491752624512
603133.54143524169922
601220.19023513793945
599278.97789001464844
597323.18088912963867
595367.2180061340332
593421.0448169708252
591487.81864738464355
589567.99825668334961
587664.6523380279541
585787.76496505737305
583949.41291427612305
582160.78190040588379
580428.65587997436523
578753.96023941040039
577130.82224082946777
575552.07439804077148
574018.66211128234863
572541.50021553039551
571133.34821701049805
569798.67057800292969
568525.07365417480469
567287.85676383972168
566065.44424629211426
564847.13078308105469
563629.54638862609863
562406.83871078491211
561167.3111629486084
559898.64987564086914
558592.35574340820312
557245.29630661010742
555860.04876136779785
554439.51461219787598
552984.5560417175293
551496.79509735107422
549981.22239303588867
548444.57247924804688
546889.8614559173584
545311.40709495544434
543699.24468231201172
542050.09576797485352
540372.1744499206543
538680.28589057922363
536986.39529609680176
535292.91455268859863
533594.36611747741699
531885.21432685852051
530167.27655029296875
528449.2099723815918
526738.57860374450684
525037.52771186828613
523345.49465751647949
521660.8503246307373
519981.86484909057617
518310.10078620910645
516653.27994728088379
515021.6880931854248
513422.57786750793457
511859.49458122253418
510335.06618499755859
508853.1097412109375
507418.81471252441406
506036.26977348327637
504703.94939804077148
503413.95698738098145
502157.04080772399902
500927.08649063110352
459199.86183166503906
458200.61134719848633
457194.45797729492188
456180.44031524658203
455155.03900146484375
454114.47657012939453
453058.04526329040527
451988.62385177612305
450910.15054130554199
449825.91709899902344
448739.05742073059082
447652.97841835021973
446570.68136596679688
445493.83254623413086
444422.31645584106445
443353.31471633911133
442280.47734451293945
441195.09584426879883
440090.03968811035156
438963.86847114562988
437821.31749534606934
436669.75946426391602
435514.82107734680176
434357.3906135559082
433193.64792060852051
432018.51629257202148
430830.07716178894043
429630.78419303894043
428424.03305053710938
427211.14518356323242
425993.29831123352051
424775.90132141113281
423569.8636646270752
422389.04929351806641
421247.24684143066406
420155.69133758544922
419119.64559555053711
418135.61688804626465
417192.04503059387207
416273.53358459472656
415365.98069953918457
414460.55314636230469
413555.29435157775879
412653.42919921875
411759.81736946105957
410877.95945358276367
410008.78556632995605
409151.06009101867676
408302.92897415161133
407463.87331771850586
406635.64936828613281
405821.70641136169434
405025.71559715270996
404249.52584075927734
403491.69459533691406
402747.35460472106934
402009.6732234954834
401272.11196517944336
400530.56206512451172
399784.26428031921387
399035.25321960449219
398287.0007209777832
397542.95643615722656
396805.08357810974121
396072.60034942626953
395341.9451904296875
394608.506103515625
393868.72511672973633
393120.80397415161133
392363.17820930480957
391593.29269409179688
390808.38661003112793
390007.51823425292969
389191.64271354675293
388361.65801811218262
387517.66696166992188
386660.62789726257324
385793.4428768157959
384919.21181869506836
384038.88237953186035
383151.51901435852051
382256.8570499420166
381356.23763084411621
380450.49654579162598
379537.71728324890137
378613.82871437072754
377675.22732162475586
376720.6234188079834
375750.9584903717041
374768.63937950134277
373776.61444473266602
372777.43722152709961
371772.42220878601074
370762.14689445495605
369747.89259338378906
368732.16890144348145
367716.9066276550293
366700.64475631713867
365677.93982315063477
364642.56014633178711
363592.38855171203613
362531.8085880279541
361469.92327117919922
360416.4366626739502
359378.15949249267578
358357.36537933349609
357352.41496086120605
356360.56455993652344
355381.4549388885498
354418.18730354309082
353474.71650695800781
352552.53463935852051
351649.89479827880859
350763.87638473510742
349892.46332168579102
349034.6634407043457
348189.4690990447998
347355.40805053710938
346531.47103881835938
345718.5486888885498
344919.34812164306641
344135.8020191192627
343365.8394832611084
342602.80219841003418
341838.51620292663574
341067.34067344665527
340287.99918174743652
339502.33623504638672
338712.96482086181641
337922.13798141479492
337132.1091251373291
336345.53556823730469
335564.66763114929199
334789.82386779785156
334018.25574111938477
333244.51318168640137
332461.96425437927246
331664.37972259521484
330846.69181632995605
330004.88467216491699
329135.99867820739746
328238.96524810791016
327315.953125
326372.78067779541016
325417.5426197052002
324457.56871032714844
323496.38740730285645
322532.89888572692871
321563.24505233764648
320583.50120162963867
319590.80251121520996
318582.58265113830566
317555.87003707885742
316508.24665832519531
315439.84231758117676
314354.42312431335449
313258.47399711608887
312159.20323944091797
311063.07780075073242
309975.33721542358398
308899.92723274230957
307839.58333206176758
306795.85797500610352
305768.9771614074707
304757.71500587463379
303759.99482917785645
302774.39997863769531
301801.70602607727051
300845.25958251953125
299909.99149131774902
299000.62131309509277
298120.22044944763184
297269.65720367431641
296448.04758262634277
295653.51797294616699
294884.03160095214844
294137.97493171691895
293414.39067649841309
292712.41623878479004
292030.76409721374512
291367.58179664611816
290721.19796371459961
290090.96067047119141
289476.74122619628906
288877.65210342407227
288291.15073585510254
287713.19756507873535
287140.01984214782715
286569.91713905334473
286004.32034492492676
285446.80660057067871
284900.79284477233887
284367.36700630187988
283844.58557319641113
283328.69011878967285
282816.43436050415039
282306.36235809326172
281798.99541091918945
281296.10117149353027
280799.49868965148926
280309.94388961791992
279827.08166122436523
279349.96158790588379
278877.44351387023926
278408.29378318786621
277940.9272632598877
277473.0330810546875
277001.60990142822266
276523.68306732177734
276036.84214973449707
275539.0035400390625
275027.42341995239258
274498.39137840270996
273948.55989456176758
273377.16923332214355
272787.14168739318848
272183.88626861572266
271572.60767936706543
270956.28908157348633
270335.63517951965332
269710.27325439453125
269080.22612762451172
268446.43076133728027
267810.28655052185059
267173.02742767333984
266535.73726654052734
265900.07390975952148
265268.65539360046387
264644.26275253295898
264027.89244842529297
263417.30414581298828
262807.63724517822266
262194.00477027893066
261574.20955467224121
260949.81756973266602
260325.14418983459473
259705.25657272338867
259094.46440696716309
258495.86759185791016
257911.49389266967773
257342.2759895324707
256787.61508369445801
256245.08803939819336
255711.25725555419922
255183.51117706298828
254661.70087432861328
254148.35247230529785
253647.20109558105469
253161.4939022064209
252693.33897972106934
252244.06659317016602
251814.69648742675781
251406.05347442626953
251018.08040809631348
250649.25213623046875
854505.65631866455078
839826.35237693786621
833024.19879341125488
826990.13236999511719
821767.0622615814209
817283.18789863586426
813371.77565383911133
809793.4065990447998
806346.85688400268555
802848.47881317138672
799155.76351737976074
795263.9317741394043
791232.0617618560791
787121.64762878417969
783001.63387107849121
779028.24199104309082
775324.67991638183594
771891.13788223266602
768703.00847625732422
765755.08859634399414
763003.19030380249023
760365.84982490539551
757834.92500114440918
755459.06627655029297
753193.96814346313477
750994.46536827087402
748882.1432056427002
746903.92200660705566
745090.08102226257324
743456.2401294708252
742011.04560470581055
740739.00517272949219
739619.10834693908691
738625.21529579162598
737736.28950500488281
736932.12561798095703
736185.50735282897949
735461.01118278503418
734720.18647956848145
733929.25839424133301
733071.48596000671387
732142.64486122131348
731123.24270629882812
729982.06298065185547
728701.47615432739258
727293.61560249328613
725792.00818634033203
724226.83736801147461
722602.67593193054199
720910.66854286193848
719150.00664520263672
717322.50916290283203
715430.27994728088379
713475.37469673156738
711458.50527000427246
709374.55764961242676
707221.17386817932129
705009.00597953796387
702771.13373565673828
700559.2620735168457
698413.31793785095215
696353.95345687866211
694378.08158683776855
692470.04953002929688
690623.06637001037598
688845.61588859558105
687147.52983093261719
685520.43012619018555
683932.6339111328125
682354.30653190612793
680781.99978637695312
679221.32208061218262
677672.2259464263916
676126.17303085327148
674579.20149803161621
673035.19609451293945
671494.27867317199707
669951.1158332824707
668393.0157527923584
666806.92028999328613
665183.41607284545898
663527.70107269287109
661861.68932342529297
660200.87846946716309
658545.97610855102539
656891.88076782226562
655238.21686935424805
653594.5965690612793
651972.12411117553711
650377.8318042755127
648818.78238677978516
647300.29825401306152
645822.45314407348633
644383.63601493835449
642985.05514717102051
641632.36071968078613
640329.81884002685547
639067.44736289978027
637825.84225463867188
636583.56344604492188
635327.1367015838623
634058.55496406555176
632792.9978141784668
631543.96319770812988
630309.60769462585449
629077.30707931518555
627839.25715065002441
626599.66092872619629
625360.84384155273438
624110.60169410705566
622823.55718994140625
621477.58299827575684
620069.22875595092773
618611.11603927612305
617122.14842796325684
615620.53706359863281
614117.76547622680664
612610.6565113067627
611079.66829299926758
609499.39432144165039
607852.35102462768555
606134.3370246887207
604349.86549758911133
602509.01000213623047
600624.01408958435059
598707.30129814147949
596771.79017639160156
594830.0989933013916
592891.23833084106445
590960.43080139160156
589042.00386619567871
587143.45806121826172
585274.17912673950195
583440.66280555725098
581647.44840431213379
579898.80264663696289
578197.69202613830566
576543.66586875915527
574935.41477012634277
573377.3068962097168
571880.30559349060059
570455.22800254821777
569104.82051086425781
567814.6635913848877
566556.16891288757324
565304.36715698242188
564050.74599266052246
562799.14854621887207
561551.19200134277344
560299.90874099731445
559033.54655647277832
557741.9361400604248
556421.30755615234375
555072.21042823791504
553694.67310523986816
552287.67439651489258
550851.17374420166016
549388.35264205932617
547903.07629776000977
546396.20559120178223
544864.87182426452637
543306.78426551818848
541725.9476375579834
540131.2293758392334
538531.12477874755859
536928.9455738067627
535322.30329513549805
533705.1442928314209
532071.86056137084961
530422.56956100463867
528764.40444374084473
527104.98637580871582
525446.59141540527344
523786.88719367980957
522121.56588363647461
520447.98911666870117
518771.49688339233398
517107.03957557678223
515472.7214412689209
513880.18601417541504
512332.36208724975586
510826.02494049072266
509355.14906692504883
507915.8087329864502
506509.23120880126953
505138.05268859863281
503802.23867416381836
502500.34513664245605
501231.80460739135742
459296.08975219726562
458250.11703109741211
457201.34663200378418
456149.16147422790527
455089.46177291870117
454018.49551773071289
452936.78376770019531
451847.92898368835449
450755.11236572265625
449659.99780464172363
448564.38924980163574
447470.90507316589355
446381.96436309814453
445298.81500053405762
444220.68733596801758
443143.4697151184082
442059.36788177490234
440959.64660835266113
439839.14947509765625
438699.11879539489746
437546.44052886962891
436389.86507797241211
435236.05303001403809
434086.91779327392578
432938.95212936401367
431785.59824752807617
430621.91772842407227
429447.34412574768066
428263.54559135437012
427071.3438835144043
425872.1181812286377
424671.59906959533691
423480.7414722442627
422312.86468505859375
421180.67827796936035
420094.31439590454102
419058.15153503417969
418067.52654838562012
417109.81559944152832
416170.08003807067871
415237.41759490966797
414308.06654357910156
413384.07175827026367
412469.75209617614746
411568.54007148742676
410681.19039154052734
409805.371826171875
408937.14032363891602
408073.55181694030762
407214.75489044189453
406364.03610992431641
405526.69221115112305
404708.79295539855957
403915.251953125
403146.65682029724121
402397.56491661071777
401658.79263496398926
400921.93966102600098
400181.88160705566406
399436.14279174804688
398683.94866371154785
397926.69903182983398
397168.16277313232422
396412.68197631835938
395662.09426498413086
394914.13591575622559
394163.72159004211426
393405.79909706115723
392637.12957382202148
391856.01419067382812
391061.28391075134277
390252.97788619995117
389433.41997718811035
388606.02988052368164
387772.23062896728516
386930.39554214477539
386078.28544235229492
385215.70426559448242
384343.9885139465332
383463.7340087890625
382574.78782081604004
381678.26505851745605
380776.94752311706543
379872.58196449279785
378963.1128044128418
378043.67694091796875
377110.02896881103516
376160.88027000427246
375197.81557655334473
374224.02723121643066
373243.12082481384277
372257.79245567321777
371268.5437183380127
370274.1411075592041
369273.96719360351562
368269.77506828308105
367264.44248199462891
366258.55277824401855
365248.4184627532959
364228.23979759216309
363194.95552062988281
362151.50740814208984
361105.98109817504883
360067.88870429992676
359044.16399383544922
358036.93304061889648
357044.48653411865234
356064.88817596435547
355099.39978218078613
354152.51881980895996
353228.63841819763184
352328.5682430267334
351449.32250022888184
350586.7086181640625
349737.71453666687012
348901.04076957702637
348076.13919830322266
347262.44914245605469
346459.7869701385498
345669.29966735839844
344893.11137390136719
344131.95034027099609
343382.75812149047852
342638.971923828125
341893.51885795593262
341141.99450492858887
340383.41912460327148
339618.71364593505859
338849.17065620422363
338076.37614631652832
337302.95373916625977
336532.36610984802246
335767.42157745361328
335008.48008728027344
334252.66858291625977
333494.41779136657715
332726.85678100585938
331943.44405937194824
331139.14423179626465
330310.586669921875
329455.74653816223145
328574.09184646606445
327667.3482837677002
326739.90400123596191
325797.7788143157959
324846.33348846435547
323888.19035530090332
322922.91384506225586
321948.57180595397949
320963.50840950012207
319966.63517761230469
318956.3524055480957
317930.10285949707031
316885.72185325622559
315823.60529136657715
314747.51044654846191
313663.12874221801758
312575.95591735839844
311490.38971138000488
310409.97101783752441
309337.67809104919434
308275.71315002441406
307225.18518257141113
306186.05281257629395
305157.4279670715332
304138.28186798095703
303128.67804527282715
302130.74088287353516
301148.73653221130371
300188.03202819824219
299253.63145446777344
298348.89176368713379
297475.02047157287598
296631.24579048156738
295815.47439765930176
295024.95798110961914
294256.9188117980957
293508.91877365112305
292779.04950332641602
292066.01856422424316
291369.21420860290527
290688.72838973999023
290025.28753852844238
289379.83645629882812
288752.71045112609863
288142.96330070495605
287547.94103240966797
286963.98455619812012
286388.2534065246582
285820.1877613067627
285261.70125389099121
284715.28760719299316
284181.95026397705078
283660.00267601013184
283146.00126647949219
282636.64422225952148
282130.21572875976562
281626.9061107635498
281127.82758712768555
280633.46274757385254
280143.19269561767578
279655.83905029296875
279170.52308082580566
278687.13327980041504
278205.97361183166504
277726.84821701049805
277248.25124740600586
276767.53874588012695
276281.78549766540527
275788.57868957519531
275285.80888366699219
274770.63874626159668
274239.09790802001953
273687.49735450744629
273114.80828857421875
272523.77434539794922
271919.61647796630859
271307.21484756469727
270689.03799629211426
270064.94425773620605
269433.71343040466309
268794.79625511169434
268149.06648826599121
267498.09124565124512
266842.95501518249512
266184.26675415039062
265523.59927368164062
264864.79133987426758
264213.1423225402832
263572.42605400085449
262942.19417572021484
262317.82470703125
261693.47687530517578
261065.58829498291016
260434.3951473236084
259802.87838363647461
259174.80617713928223
258553.35995292663574
257941.00250625610352
257339.85158920288086
256751.74672698974609
256177.51177215576172
255616.26424407958984
255065.70517158508301
254523.5643482208252
253989.33444023132324
253464.93487358093262
252953.62251091003418
252458.28632926940918
251980.52531242370605
251521.18937683105469
251081.50495719909668
250663.48138618469238
250268.81598472595215
249897.61714363098145
249547.2252197265625
871066.9909553527832
848272.54565620422363
837615.72449493408203
828990.3392448425293
821769.86452102661133
815770.36960220336914
810742.06996917724609
806444.39986801147461
802723.07462882995605
799269.4086971282959
795881.45055961608887