/*--------------------------------*- C++ -*----------------------------------*\
  =========                 |
  \\      /  F ield         | OpenFOAM: The Open Source CFD Toolbox
   \\    /   O peration     | Website:  https://openfoam.org
    \\  /    A nd           | Version:  12
     \\/     M anipulation  |
\*---------------------------------------------------------------------------*/
FoamFile
{
    format      ascii;
    class       volScalarField;
    location    "0.0074";
    object      rho;
}
// * * * * * * * * * * * * * * * * * * * * * * * * * * * * * * * * * * * * * //

dimensions      [1 -3 0 0 0 0 0];

internalField   nonuniform List<scalar> 
75962
(
1.1486696731438661434
1.1483412630939686672
1.1507354491860815049
1.1509385926315283122
1.1516099071347154492
1.1522541686603515743
1.1521771599620473925
1.1520127439788616641
1.1516097758231640391
1.1511807331764256634
1.1505628091261805857
1.1501113036741779094
1.1507650554509032403
1.1520474833975498097
1.1524819606450975584
1.151863035320577433
1.151160620206280516
1.1509051922035260507
1.1509844397542403627
1.1514431881185460682
1.1522717099669081975
1.1528627900314991628
1.152800287207944141
1.1523974539868420131
1.1520599446113204412
1.1515759269338368131
1.1509319309069701021
1.1506849739679720912
1.1510004400455642326
1.1515736305276131901
1.1522398895771912564
1.1528816511442339099
1.1531159740892436005
1.1527172782797463491
1.1520788659355924999
1.1517307196509627421
1.1517517091125863971
1.1519424885528741775
1.1521930913211653191
1.1524815094530862503
1.1528052853258148325
1.153161298097244325
1.1535145116477438787
1.1537601028568764683
1.1538092193608613378
1.1536279416633559158
1.1532327854913353438
1.1528099625321250876
1.1526460278818473348
1.1528375304849265426
1.1531141763595607053
1.1531637589660794774
1.1529660057553807739
1.1527097781572703816
1.1525845114045532025
1.1526959316403044831
1.1529645993240351665
1.1531490968465236691
1.1530138514710115416
1.1526144667295508128
1.1522099502908529356
1.1520103880712209143
1.152035088934804552
1.152115246568992557
1.1520629556133779037
1.1518959972513456158
1.1518200530167628237
1.1519525390980633883
1.1521430767831408737
1.1521052162760621052
1.1517163146437527921
1.1511689351059546382
1.1507833328735568301
1.1507459548013685424
1.1509251325337188643
1.1510435888352725797
1.150924440759450329
1.1506344515595610112
1.1503368542076504166
1.1501234172056902239
1.1499990416582388519
1.149963780818582082
1.1500086273878868948
1.1500741474455200564
1.1500753924541908813
1.1499874165721961639
1.1498917216650967887
1.1498125415795295012
1.1496445280660998467
1.1492752242530466233
1.1487715654707237878
1.148334261328600947
1.1480976797490625163
1.1480091815650188547
1.1479662361727318576
1.1479182284712847739
1.1478959026450101799
1.1479068452640639464
1.1479397901458732179
1.1479817338204436616
1.1480578419123510514
1.1482196378037163864
1.1485153015321380998
1.1489264316422072021
1.1493157522878876264
1.149458778466676101
1.1492118946044767025
1.1486539063984924081
1.1480764345081859723
1.1477820172559280998
1.1478733173156592251
1.1482113731313108307
1.1485803324752716925
1.1488392717008966137
1.1489450372308998016
1.1489438891476309035
1.1488516575869953673
1.1487180926997022645
1.1486081519893538427
1.1485749208175453084
1.1486406511064999325
1.148773544173480321
1.1489208648208404373
1.1490126429737859137
1.1489780557490163471
1.1487927773592720992
1.1485032721417176571
1.1482326724368066007
1.1481240999120765345
1.1482518729308381911
1.1485780428654348562
1.1489704614887341627
1.149272342244143319
1.1493959524370123138
1.1493734364291847694
1.1493279784414107692
1.1493915804108791878
1.1496012591421813642
1.1498660535012330541
1.1500184857063397992
1.1499467106215019996
1.1496539709672171092
1.1492566946663052008
1.1488841613003737407
1.148625004740073674
1.1485093133893029549
1.1485322615894697496
1.1486820449369969932
1.1489237023363021439
1.1491842668163252394
1.1493838596899181859
1.1494735570634373456
1.1494852327032736294
1.1495035203963797077
1.1496155003301782305
1.1498603586737778937
1.1502079983899642368
1.1505905675932825982
1.1509175851205932783
1.1511111915489860014
1.1511175000033027072
1.1509131025298244833
1.1505071399190747172
1.1499548011873901299
1.1493449319103188344
1.1487804432881654204
1.1483605567505923428
1.148152424455542997
1.1481799263650727116
1.1484277845486110525
1.1488532208226340803
1.1493890586317379032
1.1499577000655434311
1.1504744311273569224
1.150863822692318239
1.1510750121391168932
1.1510911559363592449
1.1509343789118196
1.1506584378514048694
1.1503333983251784467
1.1500265052818341438
1.1497871254672094032
1.1496452742873719544
1.1496095035126190353
1.1496699430316019708
1.1498046980984475418
1.1499799134657124888
1.1501572814216385332
1.1585556784463086899
1.1585829740979771696
1.1586500259694536563
1.1587748711020375847
1.1589410329089073759
1.1591011789478162797
1.1592009896476191955
1.1592133307358678529
1.1591515341951759144
1.1590602823324720472
1.1589874679812892655
1.1589558016665832962
1.1589592435613826904
1.1589769697183194275
1.1589951502813160555
1.1590133579498187455
1.1590369940910196789
1.1590675672400150287
1.1591004163085583123
1.1591325033849588788
1.159166852095695921
1.159208917407069217
1.1592582005731846273
1.1593049437411808711
1.1593376475681917981
1.1593535676551061098
1.1593661792351581674
1.1593960100433728933
1.1594498047885650749
1.1595050165546807452
1.1595112189519980461
1.1594164683229970514
1.1591999805538759638
1.1588897650218417112
1.1585551075331954607
1.1582749591904883957
1.158100647923899551
1.158036017311282917
1.158043171661125248
1.1580683494710726222
1.1580719492607955967
1.1580442213177837285
1.1580001649359905613
1.1579610717066211034
1.1579372657765272248
1.1579226404232461078
1.1579010311013446799
1.1578595518489684935
1.1577996674122057463
1.1577380805665846708
1.1576972521409030215
1.1576935886506640738
1.1577286279375311739
1.1577887907947286283
1.1578503326539122398
1.157888909442799541
1.1578895804600792818
1.1578510232165015736
1.157783621473041924
1.1577022051287653159
1.1576195720275996859
1.1575439575609547393
1.1574794470435907368
1.1574290854652202754
1.1573992469768694669
1.1574000251504110715
1.1574444839677133778
1.1575458817981711945
1.1577116462964671673
1.1579368197496426873
1.1582025908178288365
1.1584784138182173674
1.158728965739069805
1.158925134075661445
1.1590534097362894528
1.1591186231168575382
1.1591390044380620594
1.1591365907918316225
1.1591277934003949568
1.1591181580838507692
1.1591037120047844589
1.1590766993829066944
1.1590324487547718491
1.15897432188531746
1.1589146171947453112
1.1588708719783999967
1.1588590504513729407
1.158886113915969851
1.1589459344467456514
1.15901934785347005
1.1590798738240934984
1.1591040631985167764
1.1590817035579052963
1.1590211349980286126
1.1589475521080281339
1.1588942581859442704
1.1588900911418356099
1.1589483340567476866
1.1590619958932313338
1.15920727128000145
1.1593544828747022191
1.1594804036435126804
1.1595750555780168778
1.1596403170867290999
1.15968213484901983
1.15970231756660902
1.1596942995058543424
1.1596460407917112967
1.1595482543908421924
1.1594033502103062716
1.1592292061595521613
1.1590547448905839101
1.1589093231662008776
1.1588114345651903125
1.1587625257355471664
1.1587488230135511991
1.1587497018871968368
1.1587489166370057436
1.158742752523141073
1.1587410336375261188
1.1587611012740008931
1.1588177678716251595
1.1589139687775051879
1.1590370303584840439
1.1591623260387402539
1.1592624701257951969
1.1593173628121056229
1.1593200578640006082
1.1592766209200937588
1.1592015060969225182
1.1591114240028776994
1.1590205896414425002
1.1589389623412560404
1.158872655160893661
1.1588256512594159453
1.158800991764463717
1.1588002050287660172
1.1588215075049945746
1.1588587905942453471
1.1589024337682751753
1.1589415256305253266
1.1589666819836448308
1.1589727074360753889
1.1589610091193913721
1.1589399053580236032
1.1589225759379497838
1.1589238435817161843
1.1589565563862500586
1.1590282472754938059
1.1591386874473912361
1.1592793873330333732
1.1594354079125066548
1.1595892459634822291
1.1597249190614591363
1.1598305861549407236
1.1598998223642418282
1.1599318835629155444
1.1599312177168958904
1.1599062264502140174
1.1598689421008099298
1.1598337197686952038
1.1598147441353827691
1.159822984105156829
1.159861744717944898
1.1599247784058575039
1.1599963409428897254
1.1600558443107613638
1.160084289500021848
1.1600702456525733286
1.1600144044468436721
1.1599283520246306267
1.1598331450034513601
1.1597504004796799215
1.1596977628776321545
1.1596830261506920756
1.1597053547200895096
1.1597577910617367092
1.1598323523531337553
1.1599204558283215949
1.1600203102032675684
1.1601305895143849689
1.1602524533687412767
1.160381952381327908
1.1605136890092853097
1.1606374503354990324
1.1607433910150368739
1.1608216878907444691
1.160868876628506019
1.1608861379857622342
1.1608835539077717591
1.1608724068243991834
1.1608660704619142567
1.1608727013217465807
1.1608947875527406701
1.1609288591672464186
1.1609645354429514175
1.1609919633654737225
1.1610046140042602492
1.1609993934619102784
1.1609763639241053035
1.1609395956341261869
1.1608951638117901428
1.1608481513615476199
1.1608016877960689595
1.1607567345753531107
1.1607140790633003746
1.1606756085984948346
1.1606460062934711441
1.1606322397587716111
1.1606427814220818817
1.1606842672669650529
1.1607573508324793288
1.1608543703715690221
1.1609595056725166007
1.1610513465336480543
1.1611086180798686485
1.1611150471410840446
1.1610631525420189725
1.1609565485350779035
1.1608091596706693327
1.1606416267322221536
1.1604771717675939069
1.1603367555236459019
1.160234613280918925
1.1601755991127697953
1.1601560111977979872
1.1601665580067652694
1.1601952249678846307
1.1602294665569510279
1.1602585625178447604
1.1602740448386839045
1.1602711728395684876
1.160248467674652062
1.1602066315141590369
1.1601475159403007442
1.1600733263890621316
1.1599864259382264287
1.1598905603359952465
1.1597914030997007462
1.1596958619533255241
1.159611173386660754
1.1595432069039419698
1.1594958888966326871
1.1594711445238368164
1.1594689147840222532
1.1594877510377492591
1.1595240674851863272
1.1595725011840791741
1.1596266991194661422
1.1596804319639917313
1.1597281723795311859
1.1597664254645696502
1.1597938452714566804
1.1598116478337376911
1.1515896954304207789
1.1522480827327319375
1.152752911061303509
1.1522711953479605196
1.1516943645568455956
1.1504767279004952663
1.1502231443894104235
1.150855067929025477
1.1509467049458586008
1.1510056329472060366
1.1510369674181830657
1.1509362579011881422
1.151566959463028228
1.1528498089873639998
1.1533301977047840658
1.1525610265575052527
1.1517371761141035336
1.1515185353688004444
1.151482513330880586
1.1517721593557415094
1.152565932465843046
1.1531811509428222529
1.1530080473085371207
1.1524468479335998605
1.1520988198697079685
1.1517164808540707455
1.151082326072800921
1.1506824999573146417
1.1508243622903719938
1.1513372435479378719
1.1520991032147269717
1.1529561785592152834
1.1534376993070856177
1.1532502034094676002
1.1527534432076911308
1.1524342406171537156
1.1523543590123668245
1.1523853642782160289
1.15249055239980569
1.1526341556619195128
1.1527622058278206296
1.1529270208405828502
1.1532284863473198921
1.1536289723243295935
1.1538787010572577607
1.1537747043897093047
1.1533922171564918724
1.1530279869282114014
1.152937643714914584
1.153093987543327259
1.1532248123693797925
1.1531198617829898634
1.1528041250889020652
1.1524592322803612898
1.1522967174808063096
1.152441385594932477
1.1527993922015180583
1.1530886945512230923
1.1530548816699250914
1.152721257384529796
1.1523248947847506418
1.1520993130095464885
1.1521110255260800237
1.1522213292808878293
1.1522287618695892242
1.1521023466870761176
1.1520256753529538596
1.1521398998688154869
1.1523276470000860527
1.1522889405177003663
1.1518608067020950081
1.1512012596023757371
1.1506721801376400549
1.1505079527141550688
1.1506388327272549787
1.1507863252459245018
1.1507587966577812466
1.1505736008871658704
1.1503332316851389017
1.1501155153136872755
1.149930129279356894
1.1497878226835644977
1.1497133059659256915
1.1497126748114914196
1.1497398411521491113
1.1497830446818144701
1.1498448940017169662
1.1498626932937361378
1.1497106299040664723
1.1493077559747661986
1.1487535467883076556
1.1482440970410114911
1.1479236933571446144
1.1477920994020776035
1.1477879991008785865
1.1478483252241786783
1.1479438176338832012
1.1480438346667640737
1.1481024843160581028
1.1481127870993088624
1.1481027670802035345
1.1481392590588630487
1.1483009231143768147
1.1486270974945860246
1.1490262575473446649
1.1492699590737014415
1.1491483803464075386
1.1486631940688334375
1.1480910593353568228
1.1477842482390394618
1.1479114201055553579
1.14836217062281154
1.1488655256566107088
1.149195714816136249
1.1492517812214111395
1.1490550086987449951
1.1487126974347410258
1.1483831120101968271
1.1481893963964588945
1.1481868857078691981
1.148352862184996992
1.1486030615426341406
1.1488364166100659691
1.148972231742241723
1.1489387667764798806
1.1487106090901835209
1.1483486359951722289
1.1480007152676801052
1.1478335306479023892
1.1479463166270416075
1.1482975648243223254
1.1487317156470695512
1.1490739025888410119
1.1492211078378362643
1.149205448658273232
1.1491604300735751565
1.1492269482631656263
1.1494453915418949563
1.1497231867740940192
1.149889079075550713
1.1498178790569348884
1.1495162101330236304
1.1491147909472880784
1.1487629556253138308
1.1485550043971575196
1.1485120359429175085
1.148623150126182102
1.1488627752124975778
1.1491717135722849807
1.1494590658302652475
1.1496359775263251812
1.1496624922231237775
1.1495805216089125533
1.1494987192022763089
1.1495165437976011535
1.1496780168848912407
1.1499717006750487247
1.1503395718127875647
1.1506921997303170002
1.1509256597608263917
1.1509622993768651167
1.1507694616424206657
1.1503797474572905468
1.1498736453529787571
1.1493419972099045978
1.1488635280474945866
1.1484931706735159729
1.1482685012295950067
1.148217516667072946
1.1483624672882866147
1.148708034550415702
1.149228271328761819
1.1498556811886888607
1.1504905319582476864
1.1510108367915421468
1.1513145550059491473
1.1513469349516876061
1.1511289671962459114
1.1507475850598729572
1.1503298582524434934
1.1499860696624626399
1.1497729276468207082
1.1497018879260663127
1.1497512722141989272
1.1498844970441757241
1.1500682890872944153
1.1502650324345404798
1.1504304689060775857
1.1505176619610111288
1.1586183838273294011
1.1586255415015047632
1.158611870990726711
1.15861352870552059
1.1586610531260310708
1.1587567680624928368
1.1588670879623084176
1.1589412784164594417
1.1589457268025418202
1.1588870010336325134
1.1588059672556514368
1.1587496361666738132
1.1587453885482394966
1.1587892007134934502
1.1588581802732487169
1.1589289678682408447
1.1589884322931138794
1.1590331162658247255
1.1590632273615775194
1.1590801994425317112
1.1590898062571970417
1.1591031414430148505
1.1591298057304515456
1.1591705469930269068
1.1592144131053052636
1.1592474973522230997
1.1592654518727321111
1.1592801715687628406
1.1593100305317556309
1.1593588198703042025
1.1594025047385598803
1.1593938625606214909
1.1592877199100428687
1.1590723342513071792
1.1587820421811005911
1.1584849447966443226
1.1582526949890774581
1.158126517074710371
1.1580999628657937528
1.1581282548863540693
1.1581546859261968585
1.1581396706670024077
1.158077072929004192
1.1579902441044891415
1.157912235926160216
1.1578647228532061852
1.1578484968123297083
1.157847083291445589
1.1578389088482279323
1.1578106292831267243
1.1577638003725712057
1.1577121158528840272
1.1576721488691603668
1.1576547949568634088
1.1576597418924396976
1.1576753094344527373
1.157684040794611624
1.1576719126222487777
1.1576356395391942389
1.1575819076086215631
1.1575203309127841678
1.1574570572496400978
1.157394578535370977
1.1573347550740538114
1.1572843092134550425
1.1572560981344133246
1.1572676954907794578
1.1573358127974002763
1.1574713290770111129
1.1576732012252739512
1.1579267967406552398
1.1582042238521337296
1.1584710742102248826
1.1586965993426476818
1.158862425568295329
1.1589654488903782248
1.1590159637133232717
1.1590324753471623609
1.1590325871577342731
1.1590264106144381184
1.1590143375523995761
1.1589907648986637057
1.1589502467641710215
1.1588919307189085028
1.1588221504493543268
1.1587528382326459653
1.1586976472647561032
1.1586677517514245572
1.1586671814797788738
1.1586906045197140624
1.1587241591005927877
1.1587494951628278805
1.1587509063751944005
1.1587222856259888903
1.1586714045613242252
1.1586185789298841797
1.1585893921573311438
1.1586050211438017055
1.1586737010095258249
1.1587868542222548029
1.1589229033695283011
1.1590569953342586551
1.1591709309730757749
1.1592579137037768433
1.1593198194158633729
1.1593601661704626693
1.1593770437025474607
1.1593611837369990347
1.1593003703313715658
1.1591881076731873623
1.1590317486550723025
1.1588541634511861922
1.1586875557102052081
1.1585617376294223835
1.1584920278765893364
1.1584735918500161933
1.158485651992200216
1.1585031032128143558
1.1585097952928435916
1.158506070263763954
1.1585078251259259829
1.1585375562757853629
1.1586118013210386923
1.1587308123534603155
1.1588756697632136561
1.1590147539918471686
1.1591163778292561393
1.1591606964341878427
1.159145379935335729
1.1590836378598174949
1.1589969142328175877
1.1589064682794261163
1.1588275201137301362
1.158767659621305901
1.1587285193374261549
1.1587088677126204939
1.1587071046909438454
1.1587219619642381563
1.1587514252449555574
1.1587914991595906766
1.1588360977703471288
1.1588778624277837892
1.158909835228350893
1.1589270808428555615
1.1589282861648675382
1.1589168618906438013
1.1589007432352274041
1.1588913657329609208
1.1589016552235027468
1.1589428781786921263
1.1590209548735146416
1.1591337948750082276
1.1592708868697279012
1.1594161285657196281
1.1595523633711222189
1.1596655423028394694
1.1597475043861116273
1.1597969044764528945
1.1598183633053511521
1.1598209966442540875
1.1598167219185091525
1.1598183208619314843
1.1598370179141015424
1.1598796200188983274
1.1599457309032767949
1.1600261643609346418
1.1601039032435798148
1.160158909785102832
1.1601742015191958135
1.1601418715613156518
1.1600657833304146571
1.1599617974074625248
1.1598525954722926912
1.1597621003924214467
1.1597083061712505359
1.159699879399130662
1.1597349681020727719
1.159804552750469897
1.1598966946212219131
1.16000168464016995
1.1601134159710591032
1.1602298939741229056
1.1603488273090498684
1.160468709840116297
1.1605826358068216386
1.160682066190114492
1.1607576604433793577
1.1608034231468140618
1.1608181547170115522
1.1608083411757970094
1.1607832633484707063
1.1607574297602536451
1.1607414401316173969
1.1607461223675694661
1.1607699655447283327
1.1608075316143362521
1.1608505794479324624
1.1608915750743880047
1.1609226549559450437
1.1609410207478891852
1.1609485098384646484
1.1609478773161885368
1.1609404251779884554
1.1609263315785238735
1.1609048363539651305
1.1608748259343368847
1.1608363282371803038
1.1607928656008121848
1.1607519581332896852
1.1607239480942146415
1.160719418342419651
1.1607454486354475964
1.1608028276254005462
1.1608830362630562227
1.160969929471393991
1.161043264685483356
1.1610832694671273657
1.161076467067337914
1.1610191898776920372
1.1609178410352460897
1.1607871410279608781
1.1606461825120530929
1.1605142876935332641
1.1604078839524150091
1.1603374657615677101
1.1603054866193152073
1.1603066562581869636
1.1603305490373960751
1.160364479866382359
1.1603972280562757646
1.1604195723574817212
1.1604260896250111479
1.1604138315680063709
1.1603832053995266627
1.160337132950816974
1.1602797004166023331
1.160214174841229573
1.1601433060104930917
1.1600697771073509301
1.1599958194805615186
1.1599244624965534545
1.1598586096375720356
1.1598008529775694075
1.1597533835657116708
1.159717685968327805
1.1596948835840947822
1.1596858854859248833
1.1596910055774025672
1.1597095104962633627
1.1597393534877860066
1.1597763612681228906
1.1598162812376802133
1.1598542359573129623
1.1598870029497103662
1.15991237674051062
1.1523318390044603454
1.1538313741155439285
1.1531457540073046797
1.1522212666645064161
1.1510088052956726212
1.1504617897802966731
1.1512070920310506494
1.1515127882731091002
1.1512296831286985554
1.151645385083434947
1.1521613814938935771
1.1520744650629466399
1.1522693781486654796
1.153166087192274869
1.1537143958337914285
1.153315590779748101
1.1528455152830257013
1.1527194722505895719
1.1523937124319418857
1.1521194555284739458
1.1526944618780397001
1.1536158157046210171
1.1537249625427548061
1.1531391990400243763
1.1526589911562901136
1.1522359972651021742
1.1515247816244444934
1.1509145497901760447
1.1509270059870779779
1.1515408759063150423
1.1524533912584413731
1.1533585648028483739
1.1538946703826769014
1.1538740089460151061
1.1535146451438564874
1.1531477081891650105
1.152915312835452788
1.1528446377940340106
1.1528962135069500405
1.1529581786015525857
1.152943256793719673
1.1529325870773310392
1.1531123878168232366
1.1534934532525564777
1.1538146542092757585
1.1538204070748392382
1.1535968627595578617
1.1533882230927268164
1.1533162244896879578
1.1532674664773041595
1.1531090122296607792
1.1527981074245898796
1.1524333284477852324
1.1521465137119715205
1.1520721999111331879
1.152288443459499323
1.1527370728537005284
1.153148713818647586
1.1532324994459055567
1.1529479276976886126
1.1524953217194799926
1.1521319188150711543
1.1520347614319046414
1.1521486286981048597
1.1522652921143419213
1.152241094242272057
1.1521463182266480363
1.1521354115230391102
1.1522009422712329307
1.1521191305363807089
1.1517038678862059342
1.1510369011084835567
1.1504555821466253551
1.1502260706948093105
1.1503535692052671013
1.1506125759719372237
1.1507814228405215395
1.1507410149519274878
1.1505034777747438213
1.1501562152454374299
1.1497995730281700411
1.1495299423013465301
1.1493933972799006415
1.1493994050789173578
1.149495245653172848
1.149623929825223545
1.1497050248972668918
1.149658087424413111
1.1494212655129425471
1.1490060723521875463
1.1485245250785700577
1.1481117005113992136
1.1478659829254744817
1.1478175603539475524
1.1479236424343055578
1.1480902076955592506
1.1482239782236467462
1.1482701199443445805
1.1482220923922381584
1.1481309093693974344
1.1480650722397724994
1.1480847539816096958
1.1482320156450538384
1.148528310273220665
1.1488910279491826305
1.1491179407754290587
1.1489962570410436893
1.1485073085782966373
1.1479356323135823104
1.1476610863409895114
1.1478812662273634171
1.148467265805567461
1.1490775970785354065
1.1494030425635983761
1.1493357087621909329
1.1489333760421172048
1.148418602356638063
1.1480070218346607458
1.1478381303470699404
1.1479263486522419679
1.1481820850192947514
1.1484821372210809454
1.1487212017072812031
1.1488347061202823784
1.1487860195310561906
1.1485548043709361554
1.1481987169203693444
1.1478579477762216321
1.1476788735896967797
1.1477477271398162095
1.1480354918058643943
1.1484128321296205311
1.1487404485914405328
1.1489334434059703671
1.1490061839519645215
1.1490476211386027039
1.1491553590106990956
1.1493602061327512498
1.1495756102805438914
1.1496658537854382853
1.1495390350416612169
1.1492369106932298628
1.1488897755685616442
1.1486390493203968433
1.1485486308499561758
1.1486124492319473855
1.1487994976203812492
1.1490598055139642497
1.1493378585058802166
1.1495719589695558849
1.149694360838482865
1.1496877975392580939
1.1495887060560139314
1.1494846484723049151
1.1494570144127780331
1.1495566999524926555
1.1497989846426865945
1.1501478833402687396
1.15051649268712608
1.1507897756937588429
1.1508611132638761898
1.1506885139464411161
1.1503179945797150641
1.1498427132317317056
1.1493629374568694601
1.1489458304501787289
1.1486170344380388642
1.1483909316456508698
1.1482914879867383018
1.1483677803473266721
1.1486574340528485916
1.1491682108612895075
1.149840558507464694
1.1505557716928016543
1.1511574161399740213
1.1515034380162898486
1.1515232859563988566
1.1512480471115669189
1.1507975125025866614
1.1503363844306147001
1.1499944520595659636
1.149832959826799339
1.1498438731714750727
1.1499815996007269892
1.1501921801178718319
1.1504287901990062348
1.1506386367630352385
1.1507637221907127678
1.1507564655487609873
1.1586796833071588697
1.1586850246451898538
1.1586385319350291923
1.1585763818673786574
1.1585420865689746162
1.1585573393694914568
1.15860718154968656
1.1586520905676200854
1.1586546636350154582
1.1586073175640696498
1.1585365389940180947
1.1584839900937435875
1.1584834729541075848
1.1585450861573556303
1.1586550861523565725
1.1587864394405862356
1.1589115225777377738
1.1590093601271835855
1.1590683299658779415
1.1590887274836716436
1.1590830382558834355
1.1590709911126688691
1.1590685210589173337
1.1590807131132836449
1.1591015327967240101
1.1591217614280311388
1.1591380293459365713
1.1591567196685934604
1.1591888795400171475
1.1592326220435364981
1.1592635821110348626
1.1592428117228221751
1.159137341091701412
1.1589445030810874293
1.1586990850160074906
1.1584588321166313651
1.1582797674130895782
1.1581891071964633966
1.1581728003926838877
1.1581882221160000324
1.1581867027820256233
1.1581371085394271958
1.1580401075382387166
1.1579244236397048251
1.1578278680012079604
1.1577766496337940083
1.1577729073177343011
1.1577959057828437484
1.1578144436681192531
1.1578024106309949826
1.1577500977384747038
1.1576668884538239279
1.1575747478896987186
1.1574964299560399628
1.1574445172896268286
1.157417764990308795
1.1574043318954121418
1.1573904811288655559
1.1573692366480228255
1.1573408659667334675
1.1573090641861438765
1.15727520891554847
1.1572384115530640614
1.1571994371939702262
1.1571666495861925306
1.1571576330164921043
1.1571948901156896561
1.1572969156310095595
1.1574692667586374828
1.1577000232552003833
1.1579617744614645325
1.1582192929088728217
1.1584413228992544997
1.1586092011955133607
1.1587205853887876383
1.1587858810390752051
1.1588223839233466883
1.1588451366695460276
1.158861961329911594
1.1588718764288659102
1.1588674906153917377
1.1588415881539912977
1.1587917254079960205
1.1587229327783898913
1.1586456762914387753
1.158571371834307584
1.158509634198121141
1.1584653608524233537
1.1584382187902182437
1.1584237163738646537
1.1584137470538089509
1.158399476848072096
1.1583749729002381645
1.1583396459287793601
1.1583003138000778076
1.1582711458237535673
1.1582685217727384241
1.1583041239984883664
1.1583797898490220124
1.1584857849104952532
1.1586037152714694365
1.1587143563733486307
1.158805390442356309
1.1588740776031429824
1.1589240678716707933
1.1589586354128063039
1.1589741938878406202
1.1589594864992820433
1.1589015539045246506
1.1587951126644082667
1.1586495337539981509
1.1584891994372661372
1.1583464584866689506
1.1582494415584805303
1.1582107194770467906
1.1582219809110103625
1.1582591814608016456
1.1582956739784828759
1.1583157101522454369
1.1583217170252866346
1.1583322953825796464
1.1583716055705253201
1.1584555939921976631
1.1585820809269060661
1.1587289336523429739
1.1588620130905233907
1.1589489493704532297
1.158971519431997832
1.1589315960499888547
1.1588486412185228236
1.1587505237596074092
1.1586629342071381732
1.1586022599359548924
1.1585734727144547662
1.1585723719786300556
1.1585900678666165575
1.1586177544722557897
1.1586496565291652949
1.1586834776189314233
1.1587190002590097571
1.1587563228625077372
1.1587944566555563597
1.1588306756454229696
1.1588608956979888909
1.1588808620950483697
1.1588880792425331201
1.1588837879983304724
1.1588743739775342334
1.1588709666440264456
1.1588866861075211023
1.1589323972829521647
1.1590124588961105978
1.1591223652142641498
1.1592498978536698306
1.1593793070550173496
1.1594961339951814772
1.1595907233779754186
1.1596600037658943982
1.1597073535228088481
1.1597408739130550259
1.159771117349432723
1.1598086219368661798
1.1598615104335454618
1.1599333539597387333
1.1600210518352036537
1.1601143060247609551
1.1601969006221934944
1.1602506132341317002
1.1602609651973536664
1.1602221088349973233
1.1601394051419340325
1.1600288684850275089
1.159913441075695939
1.1598171211367420685
1.1597590453320465453
1.159749375791868431
1.159787938582463207
1.1598664367522353302
1.1599714415184469996
1.1600899797452959294
1.1602113510520764006
1.1603280735907695043
1.1604357860585894358
1.1605311895544538903
1.1606095450949538428
1.1606669809652419012
1.1606988315311921323
1.1607039198313522377
1.1606853617682419966
1.1606501426364790319
1.1606094471021635162
1.1605740404592155279
1.1605555435187204782
1.1605592123312837849
1.160585145144742869
1.1606272998185180878
1.1606796297484949232
1.1607337170958653694
1.1607844856351992036
1.1608301939072764863
1.1608703154434938387
1.1609044020948153797
1.1609307993098674228
1.1609463037995000345
1.1609474010503268993
1.1609316228832466944
1.1608996613485402793
1.160856385261771262
1.1608111016561675211
1.1607757586723441712
1.160761029487330287
1.1607735331641511056
1.1608131105083803192
1.16087131933969534
1.1609333251126210396
1.1609805301832420987
1.1609976400438626332
1.1609758095171960335
1.1609143571863054234
1.1608214029865979722
1.1607117030901912269
1.1606023124654800682
1.160508423071488826
1.1604410486707530392
1.1604059700204427674
1.1604027360442050743
1.1604248019328744501
1.160461767487872109
1.1605013596348081606
1.160532814312639438
1.160548459169431279
1.1605443698726438662
1.1605203578732381509
1.1604790571804879384
1.1604255476684384174
1.160366268526852096
1.1603070294970583287
1.1602517149552842302
1.1602014667442308582
1.1601560851893271131
1.1601138019397205792
1.1600729546542558612
1.1600319321503180792
1.1599898940000525904
1.1599476029917663578
1.1599065251365383578
1.1598696556324405993
1.1598407957174199368
1.1598238279462418365
1.1598207659741892606
1.1598319405242571989
1.1598545961442159324
1.1598851472159421583
1.1599189012646944352
1.1599528061198121076
1.1599849332750673536
1.1518474060677064141
1.1508220200648344722
1.1529180155414775477
1.1534397851825768377
1.1517657844889495067
1.1512078813867572258
1.1519441932658551764
1.1517659311073114026