/*--------------------------------*- C++ -*----------------------------------*\
  =========                 |
  \\      /  F ield         | OpenFOAM: The Open Source CFD Toolbox
   \\    /   O peration     | Website:  https://openfoam.org
    \\  /    A nd           | Version:  12
     \\/     M anipulation  |
\*---------------------------------------------------------------------------*/
FoamFile
{
    format      ascii;
    class       volScalarField;
    location    "0.0074";
    object      rho_0;
}
// * * * * * * * * * * * * * * * * * * * * * * * * * * * * * * * * * * * * * //

dimensions      [1 -3 0 0 0 0 0];

internalField   nonuniform List<scalar> 
75962
(
1.1485170219213975962
1.1483751395506889281
1.1507686827751224534
1.1509509244661755289
1.1516464967397919139
1.1522657770244535413
1.1521755009406768888
1.1520073655145035563
1.1515995060959585139
1.1511646702187685598
1.1505398353848375059
1.1501080096783320439
1.1507939338579498134
1.1520709605429226841
1.1524701704891708864
1.1518339649367448363
1.1511428314686094065
1.1509049771060875234
1.1509942147177318894
1.151458918050781044
1.1522793115366627426
1.1528477632945728359
1.1527712567211907402
1.152375877571687468
1.1520483621945691866
1.1515612019635124152
1.1509176908573779397
1.1506805654604796985
1.1510019870994914193
1.151576832476087997
1.1522476612572223331
1.1528903440605835495
1.1531140820690439774
1.1527048891276476805
1.1520693897375804404
1.1517306964162150607
1.1517562061972257403
1.1519461099602377185
1.1521954572387846927
1.1524838853556365059
1.152809716724473077
1.1531694803113154979
1.1535263054553270834
1.1537721363155346577
1.1538173439555416966
1.1536288038840658565
1.1532271411362611246
1.1528058140239478835
1.1526523061695508332
1.1528531831203723268
1.1531290511176286451
1.1531707612563435461
1.1529659207324618464
1.1527058755813983648
1.1525806896052472883
1.1526933594004455941
1.1529609577685515642
1.1531397150525422024
1.1529992513407050225
1.1526026610564124031
1.1522085181578720636
1.1520205993643322095
1.1520507021945078918
1.1521263763087163934
1.152064858950490045
1.1518935737370761263
1.1518216040148336887
1.1519607462960883559
1.1521519696772624108
1.1521077430882191717
1.1517118155655499123
1.1511631537834852157
1.1507818041289190614
1.1507475608432877756
1.1509228780681453053
1.1510321649594930093
1.1509061695867068842
1.1506177956877439161
1.1503278763965967268
1.1501228423580136528
1.1500040232092307857
1.1499707698564207714
1.1500140371149407681
1.150075246438372556
1.1500718181359286252
1.1499829627435096402
1.1498915232484725468
1.1498166273265149062
1.1496475754081907361
1.149273532361041239
1.1487664839501721126
1.1483288367591664159
1.1480914598309399643
1.148000259741980944
1.1479545930627559347
1.1479084614616641424
1.1478922581472497111
1.1479106489726036422
1.1479488987224970575
1.147992861967064071
1.1480682615629378418
1.1482294300967816891
1.1485258484342706353
1.148938416490879133
1.1493270404883639824
1.1494653043392868419
1.1492119812262444611
1.1486510279749657659
1.1480762843634917392
1.1477877768954023452
1.1478830227164413813
1.1482205249642449818
1.1485863122828501304
1.1488433087920686404
1.1489490840641207736
1.1489476551243638092
1.1488531944436399801
1.1487158925844689339
1.148602640415943954
1.1485683748853516839
1.1486356390006533523
1.1487717381753093093
1.1489227187944253128
1.1490162695427985629
1.1489804889172150482
1.1487920265752624704
1.1485001864325035115
1.1482304826781952745
1.1481264302531002386
1.1482600244516207866
1.1485897015887036599
1.1489808346981575937
1.1492768925083234333
1.1493937357240422426
1.1493672706144759665
1.1493230957715860896
1.1493919235050547023
1.1496065616611814697
1.1498718372802358978
1.1500193876868798348
1.1499404980404539511
1.1496427857942943529
1.1492447357741635283
1.1488752057746891566
1.148621095452498686
1.1485110030680880655
1.1485393881099088542
1.1486936983935844836
1.1489376918424936136
1.1491972010539015514
1.1493928265187938198
1.1494776996254867374
1.1494860711034555756
1.1495039095217942648
1.1496175297318993458
1.1498643211916903528
1.1502130311192824141
1.1505956106951731321
1.1509218345830638519
1.1511142259465390048
1.1511192639163319029
1.1509132609653831558
1.1505053221733914093
1.1499510315799088556
1.1493398629931579347
1.1487752682871961163
1.1483564741763574446
1.1481501215584464237
1.1481793865426810353
1.1484288016539991872
1.1488553727878541011
1.1493921354394309731
1.1499616890436787919
1.1504792241065016078
1.1508690844920281826
1.1510803196889667355
1.1510959357471164388
1.1509382388786137952
1.1506610404184134389
1.1503344561884636388
1.1500256681826372951
1.1497841890342528348
1.1496404246682123684
1.1496034376198123184
1.1496638488991683946
1.1497998277557848201
1.1499773140853546405
1.1501572968116140494
1.1585576776151265133
1.1585855539413973947
1.1586543116620842131
1.1587808568168238565
1.1589473916182504443
1.1591058031301653131
1.1592022324853761273
1.1592110165606228644
1.1591470115524509232
1.1590556165561480828
1.1589841258123796397
1.158954135508384331
1.1589586243656835318
1.1589766935666439007
1.1589950649644755742
1.1590137759067600243
1.1590382331046329423
1.1590696390375183622
1.1591031368606803387
1.1591358185200486552
1.1591708483687381825
1.1592135985150973099
1.1592632145235339802
1.1593097151278939361
1.1593417702996129393
1.1593572237821692106
1.1593701387430619398
1.1594009471569393099
1.159455506346443121
1.159510012438941251
1.1595133354256741409
1.159414122192361063
1.1591932601628498478
1.1588806600557430837
1.1585466913969728608
1.1582699216166862932
1.1581001101658598973
1.1580392544425768264
1.1580482698761911386
1.1580733815786727892
1.1580759318537761082
1.1580472883428112318
1.1580030190596013462
1.1579642236015865731
1.157940593844972943
1.1579254691335696403
1.1579026173594546556
1.1578596513899568343
1.1577987799294662263
1.1577372123730351738
1.1576973815935205359
1.1576951670560280405
1.1577313748667008575
1.1577918272197913474
1.1578524539905004076
1.1578890432155097834
1.1578871506449290862
1.1578460686929983314
1.1577766646455345256
1.1576939509987600463
1.1576106828528829329
1.1575349405396253566
1.1574706567114738665
1.1574208839966317885
1.1573921071600352661
1.1573945437282149307
1.157441334764850227
1.1575456340596113058
1.1577144484438628425
1.1579421963684741748
1.1582094381946548278
1.1584851935604236761
1.158734137398656161
1.1589276696232899688
1.1590530965125267482
1.1591160036366379149
1.1591350126905952678
1.1591320819589845392
1.1591231921243645431
1.1591134033746690601
1.1590984777986546028
1.1590707142754832493
1.1590257589070573907
1.1589673937415938543
1.1589082510755666089
1.1588659429978633852
1.1588561673740793712
1.158885367132044486
1.1589468009669114945
1.1590208181511927332
1.1590808206432952066
1.1591037173324547638
1.1590799995228679986
1.1590187975574794965
1.1589458629950708524
1.1588945689109226844
1.1588932793870512228
1.1589544462478724718
1.1590702161693109407
1.1592162459756298887
1.1593628753668350218
1.159487358623426223
1.1595803569052014481
1.1596441810225575075
1.1596848224591143062
1.1597038129027898989
1.1596942425502561047
1.1596439754744676254
1.1595440207236613617
1.1593973960289480907
1.1592225804608722317
1.1590487454253568522
1.1589049852330173263
1.1588091362411161445
1.1587619170191456597
1.1587490822033204019
1.1587500132752814874
1.158748928705930048
1.1587427666959260186
1.1587418356593501834
1.158763536758679491
1.1588222580948712714
1.1589201992789712747
1.159043969208695124
1.1591685608075747993
1.1592667062654515853
1.1593188336827768836
1.1593186826880832463
1.1592728974873629522
1.1591962567995062194
1.1591055100301148606
1.1590147186863000162
1.158933611268026409
1.1588680884104665125
1.1588219790669929132
1.1587982061410377899
1.1587981697620775012
1.158819943069657965
1.1588573039656859809
1.1589005960722080779
1.1589389747243830087
1.1589632091870323283
1.1589683362263185629
1.158956048326877708
1.1589348954704079553
1.1589181516418378681
1.1589205541422880064
1.1589547118900240807
1.1590278302114678244
1.1591393582153708408
1.1592805611229917151
1.1594363803912992594
1.1595893401233530184
1.1597235928208016187
1.1598274908151828821
1.1598948213139823604
1.1599250437805677105
1.1599228204801197428
1.1598967965023889715
1.1598592122046746944
1.1598245397714437299
1.1598068857992442915
1.1598169298104050728
1.1598574841953508407
1.1599217264722074816
1.1599934629092769622
1.1600519719243229666
1.1600785091826117945
1.1600622295255504923
1.1600044779171501119
1.1599173992186564419
1.1598223015512010292
1.1597407091891813735
1.1596899312919966007
1.1596772948273332826
1.1597015066729157162
1.1597554474490940901
1.1598311765455580069
1.1599201986568048461
1.1600210454953818751
1.1601323297793768585
1.1602551062433819062
1.160385293087549563
1.1605172076792722446
1.1606404867871651376
1.1607452365589221444
1.1608218729024517568
1.1608673232238828632
1.1608832139561169328
1.1608799023070572876
1.1608687109062520992
1.1608629872714724129
1.1608705338422553588
1.1608936066672550513
1.1609282701306435914
1.1609639375449072318
1.1609909367570914185
1.1610029813183515568
1.1609971462087158578
1.1609736581232583674
1.1609367345830379215
1.1608924729746308291
1.1608458432787756021
1.1607997937430263313
1.1607551348784588274
1.160712667793882158
1.1606744114114209143
1.1606452674580454154
1.1606323905188020706
1.1606442810711530278
1.160687382909148857
1.1607619589188435949
1.1608599342754535311
1.1609650958971604595
1.1610558677012132733
1.161111077337829256
1.161114818305041485
1.1610601260235626775
1.1609511732381552207
1.1608023258224469121
1.160634464521427045
1.1604708324367747352
1.1603321647066113798
1.1602323543954666807
1.1601758275524272079
1.1601584811497260841
1.1601707018576397079
1.1602003469098951527
1.160234904386007404
1.160263858664117409
1.1602788951544360518
1.160275404684938394
1.1602519473254080395
1.1602092419559957293
1.1601491924066933414
1.1600740425180748883
1.1599862511680014698
1.1598896902032798106
1.1597901476703558199
1.1596946127372087521
1.1596103820505601067
1.1595433145405902309
1.1594972336776441235
1.1594738808460187673
1.1594730137529050129
1.1594930066945301483
1.1595301661887957856
1.1595790579928029196
1.1596333249291006506
1.1596867719461070312
1.1597339310798353562
1.1597713914147609326
1.1597979296827285456
1.1598149623915334772
1.1516761780960831363
1.1522605186114247555
1.1527497404907258716
1.1522600896522223746
1.1516630043342825918
1.1504379284839656439
1.1502259253273030559
1.1508664765045195644
1.1509515868921345039
1.1510148325160720617
1.1510396628137473662
1.1509447346345791363
1.151597809816903073
1.1528738464690366783
1.1533133149257139838
1.1525229356183654961
1.1517180314317385648
1.1515177457573939623
1.1514864190445779357
1.151781841461630318
1.1525693447468281505
1.1531601069641643775
1.1529709735001136828
1.152421486430572406
1.1520904111717344964
1.151706232361636939
1.1510673747957587132
1.1506730775267104416
1.1508216188505968613
1.1513407675343902969
1.1521125139060959253
1.1529733187650972326
1.1534439447159372527
1.1532443548212805151
1.1527476986651541413
1.1524339033869277493
1.1523552312517657548
1.1523847850827326766
1.152489185463083432
1.1526318133469779514
1.1527605286875068913
1.1529314482227144278
1.1532424573811119739
1.1536483386854796684
1.1538927902261333358
1.1537774799144493443
1.1533883131321971405
1.1530262321586262075
1.152943484432707999
1.1531043521565866872
1.1532326059810986685
1.1531213393051105154
1.1528010035800448918
1.1524551920853967069
1.1522954428301233065
1.1524441035945054423
1.1528019356838805631
1.1530850290140148839
1.1530453994104088444
1.1527125587841260401
1.152324883160073199
1.1521104889521867065
1.1521286050567391968
1.1522356033766234518
1.1522337125771309196
1.1521015186920149365
1.1520275209522961024
1.1521480308231366596
1.1523366909987338147
1.1522910370938495017
1.1518543233818123728
1.1511919739526983442
1.1506669203304256133
1.1505075549392038692
1.1506372454234377045
1.1507779398847712837
1.1507454006919999312
1.1505616276037116119
1.1503272476988151141
1.1501157401279638037
1.1499336973149700825
1.1497917597447926408
1.149716111191372736
1.1497133222902005123
1.1497388387464311243
1.1497834340391817065
1.1498487983445537797
1.149868059819478594
1.149713157434106181
1.1493050492790783945
1.1487471523044716637
1.148236884856608464
1.1479161147133316589
1.1477835246330383434
1.1477791824370529028
1.1478420940156628394
1.1479429343729277146
1.1480486396032012486
1.1481109506789730634
1.1481214074696790561
1.1481092322345525236
1.1481435752034470088
1.148305868671001484
1.1486354039128721105
1.1490371720327368088
1.149278695920826765
1.1491511748521261449
1.1486618580618277452
1.1480915838855196842
1.147791295297620584
1.1479241757045233197
1.1483755833360236309
1.1488748642688757506
1.1491992144882570148
1.1492507077338993682
1.1490506807569227377
1.1487066741555522764
1.1483766298831106223
1.1481835328001566143
1.148182572817701752
1.1483506934542349054
1.1486031855844873739
1.1488386886046142443
1.1489749961597288674
1.1489390551235947324
1.14870659469634262
1.148341753553018485
1.1479950501830915588
1.1478333757705183604
1.1479534519263698833
1.1483097350417958982
1.1487434220357259917
1.149080306688188502
1.1492206517747460826
1.1492010436583177668
1.1491571161280718094
1.1492286426428006685
1.1494518781475171476
1.1497298234454411681
1.149890517111149979
1.1498119469839689355
1.1495052776557856955
1.1491034756562075181
1.1487553094239078
1.148552785085564798
1.1485156280949593288
1.148632015921686067
1.1488756291475472615
1.1491857132467973024
1.1494703940370059048
1.1496419228881464836
1.1496629623871235104
1.1495776669280828308
1.1494960370568347852
1.1495164133061308576
1.1496810205128251692
1.1499771750636547107
1.1503461635769387517
1.150698202019689198
1.1509295567451105491
1.150963260712975833
1.1507675073538257138
1.1503760022337417013
1.1498692907109202554
1.149337831504973817
1.1488599566305359723
1.1484903157832524467
1.1482663131442687465
1.1482164238095347031
1.1483632309364604218
1.1487114153258921601
1.1492348510263945549
1.1498651322583355316
1.1505016402085375127
1.1510214223604262607
1.1513225039133894168
1.1513509777061061712
1.1511293581839572298
1.1507458342819838482
1.150327911930320246
1.1499847945759300583
1.1497719746508523464
1.1497004467965181718
1.1497488691957962192
1.1498815263334929426
1.1500657489126016042
1.1502637855017410207
1.1504306795431937793
1.1505188816615226077
1.1586216853404842642
1.1586274101743221365
1.1586131626612266032
1.1586153969871770819
1.1586641005784532599
1.158760361358515123
1.1588695521193936866
1.1589410100983819074
1.1589423946969077406
1.1588818961574061106
1.1588011840359433435
1.158746860393059297
1.158745148343294451
1.1587908542190379357
1.158860709588934057
1.1589316200028718651
1.1589909322685001403
1.1590354715923076867
1.1590655025291709546
1.1590825014366987755
1.1590924187543933943
1.1591064197033453809
1.159133897843287242
1.1591751780068115796
1.1592189977639735243
1.1592516141863395962
1.1592692736271430487
1.1592844127006345367
1.1593152240857620416
1.1593645649750174975
1.1594072750123627369
1.1593956405856205016
1.1592852468665946208
1.1590660843646336531
1.1587741897004479874
1.1584784546003532579
1.1582499379924691141
1.1581281799166012192
1.1581048972682503884
1.1581342640145719791
1.1581597040127142861
1.1581427253240934583
1.1580785466500296277
1.1579913151269631832
1.157913958161415735
1.1578674267484641014
1.1578516967901613111
1.1578498475160845516
1.1578404481431234796
1.1578107339488088456
1.1577629003948268771
1.1577109795772124734
1.1576714419443803195
1.1576548150069687626
1.1576602122479091594
1.157675477655726981
1.1576830187861772981
1.1576690895351564592
1.1576309292335342782
1.1575756074576528665
1.1575128571101866992
1.1574487584420818376
1.1573857806997591702
1.1573258715453971224
1.1572759648619872497
1.1572490963219854709
1.1572628951362819993
1.1573338990550601224
1.1574726011666556236
1.157677382117986431
1.1579329903994322049
1.1582110109997374447
1.1584769405024064604
1.1587003759484375554
1.1588635997760712293
1.1589641700142303549
1.1590129178209458427
1.1590285307485610478
1.1590283832850181156
1.1590221360684653806
1.1590097746270746626
1.1589855830653790214
1.1589442849672264568
1.1588853569044332836
1.1588154705577675685
1.1587467270387326046
1.1586927461171177001
1.1586644649273027952
1.1586655299394474916
1.1586902208730134323
1.1587243956971404746
1.1587496637527203713
1.1587505672986895267
1.1587214806731624961
1.1586707252276804425
1.1586189695610158434
1.1585917789167841097
1.1586099181974733874
1.1586809426399957701
1.1587956041392166728
1.1589319824115613677
1.15906532929472883
1.1591778962588117352
1.1592633882913720988
1.1593239714565122256
1.1593631144253644383
1.1593786198500855011
1.1593609657567045534
1.1592979656180377734
1.1591835416757012567
1.1590257021274656957
1.1588478767196606078
1.1586824195242702018
1.1585587349970190019
1.158491319863511837
1.1584745042014101823
1.1584870669074249783
1.1585040746074477536
1.158510051410554853
1.1585061431451371128
1.1585087709661405775
1.1585403973834462743
1.1586169549194966777
1.1587377626874362235
1.1588830665703262479
1.159020912052895369
1.1591199106031282451
1.1591609635857946792
1.1591425902697847228
1.1590786335970304499
1.1589907932017189385
1.1589002200993021585
1.1588218139613690738
1.1587628125147351188
1.1587245821086586961
1.1587057428942115767
1.158704633260100314
1.1587199506222769507
1.1587496380184010292
1.1587896645397233186
1.1588339376210290421
1.1588751396622039014
1.1589064080199351636
1.1589229336782869151
1.1589235625304594723
1.1589118689228652404
1.1588959138280219285
1.1588871781463303545
1.1588985196663119659
1.158941016365051313
1.1590203201019029233
1.1591340561054763736
1.1592714911891399687
1.1594164266781268324
1.1595517541927917726
1.1596635992031532059
1.1597440352856045465
1.1597919573995478792
1.1598122118399827318
1.1598141319974413221
1.1598098044303102316
1.159812059384648153
1.1598319933982152996
1.1598760980773712426
1.1599435189383286993
1.160024567944110796
1.1601018627805639305
1.1601553100129766705
1.1601682399645267818
1.1601333693164950223
1.1600552574275964091
1.1599503264248507417
1.1598414448608789229
1.1597524071173110904
1.1597007718527094777
1.1596946971203643262
1.1597318345587828148
1.1598029555962707793
1.1598960697223115179
1.1600017533376443257
1.1601140739058575235
1.1602310246015477002
1.1603504442599377189
1.1604705540965123411
1.1605842298453032946
1.1606828738019372427
1.1607571314141051921
1.1608013354258506222
1.1608146217908923425
1.1608038474144790619
1.1607784789802133574
1.1607530375174397452
1.1607380157901288076
1.1607439418898717332
1.1607687926437766368
1.1608069880348570457
1.1608502665405275867
1.1608910776642746843
1.1609217116044683316
1.1609397577212967612
1.1609471896651375467
1.160946670014688431
1.1609393858086654028
1.1609254014523242571
1.1609038423832735987
1.1608735501084810338
1.1608346742755459857
1.1607909754020799831
1.1607502586273497069
1.1607230197529678772
1.1607198451799145555
1.1607475461791549876
1.1608064566239302273
1.1608875970878678174
1.1609744909992771866
1.1610467661998524758
1.1610848041085621851
1.1610755567653474607
1.1610158622416821839
1.1609126305244708011
1.160780922978131402
1.1606399695742948275
1.1605090281026348986
1.1604042975703836582
1.1603359387962479676
1.1603060387542643017
1.1603089887566122584
1.1603341283756007929
1.1603686701158062444
1.1604014346833879667
1.160423386331618234
1.1604293401963616805
1.1604165065186136108
1.1603853679241471486
1.1603388453888674459
1.1602809705889181036
1.1602149844592799521
1.1601436527104171947
1.1600697101209884732
1.1599954465076767196
1.1599239323374079813
1.1598581121426136953
1.1598006032442838009
1.1597536284799916384
1.1597186342438710049
1.1596966412117124534
1.1596884661543056527
1.1596943491150992767
1.159713478350971938
1.1597437424048333554
1.1597809296579975058
1.1598206886436763785
1.1598582125830032563
1.1598902683766270094
1.1599148713707174707
1.1525290192466253192
1.1538308734626785412
1.153107889189580737
1.1521824924006178748
1.1509728171085418236
1.1504677697250595969
1.1512346909746320467
1.1515197590859902466
1.1512413614495735636
1.1516730853009695679
1.1521745772847025169
1.1520754508855435283
1.1522823094406982047
1.1531805426754717647
1.1537013583450210774
1.1532898627927135049
1.1528370012963897739
1.1527198692357976118
1.1523865641558921347
1.1521169844326064613
1.15270265885470935
1.1536089920643683993
1.153695534685033719
1.1531142066470880803
1.1526508905547252493
1.1522261753326290545
1.1515043840165961608
1.1508964926931368744
1.1509217187432925211
1.1515483135999222686
1.1524705899401326281
1.1533781694332083667
1.1539062454623150167
1.1538753100205700886
1.1535115794182553284
1.1531442290883091584
1.1529112560328771409
1.1528401521463209622
1.1528906205346427516
1.15295058626318081
1.1529359959758895826
1.1529330143346017135
1.1531260352538572622
1.1535149458323090688
1.153831871050430502
1.1538263197085167899
1.1535954693523653436
1.1533860008714327261
1.1533153267326770042
1.1532670070387589512
1.1531073189145171209
1.152795892815541956
1.1524320810062751441
1.1521475530584412983
1.1520766254286434194
1.1522964728333411344
1.1527457691402172024
1.1531521947481055967
1.1532285195093572305
1.1529422708814043297
1.152494540513427701
1.1521408003406139464
1.1520516296261458233
1.1521649669170004326
1.1522732512652134051
1.1522405296643263295
1.1521444443578059413
1.1521387189082232805
1.1522079779165395053
1.1521223338841046768
1.1516988992391448132
1.1510272526809122162
1.1504483106718048635
1.1502243794810833588
1.1503540912607135294
1.1506113689767312191
1.150777298993641784
1.1507356056553093016
1.150498941240166495
1.1501535722051046129
1.1497989125747380967
1.1495301547394383146
1.1493940428311513191
1.1494000155678745223
1.1494960716566557934
1.1496261486644177019
1.1497084634914163104
1.1496611754684533668
1.1494222859747704746
1.149003985131124006
1.1485199421731673297
1.148105425986188477
1.147859089079284578
1.1478109580244413301
1.1479189662110615977
1.1480878817973747541
1.1482249044879142552
1.1482741827147391334
1.1482279988978907337
1.1481362732501787516
1.1480679896160377318
1.1480850407239602262
1.1482325832860695858
1.1485328139818893334
1.1488995430305686263
1.1491259768612949177
1.1489989212513553873
1.1485052440693341858
1.1479354115180095963
1.1476688403809298666
1.1478968525369632747
1.1484842222900091269
1.1490885138708866187
1.149404294741905197
1.1493286940074232128
1.1489224386905356745
1.148407898974934449
1.1479993836106099359
1.1478340811644049957
1.1479249801347377602
1.1481819428648250003
1.1484829385308463756
1.1487228374455444868
1.1488364399440822439
1.1487853370940894759
1.148549718143049736
1.1481903935139383677
1.1478502564143517883
1.147675921130397958
1.1477514883594073236
1.1480446104015415987
1.148423179158524654
1.148748099679525847
1.1489366676112353627
1.1490062920223338416
1.1490478359096667482
1.1491583972489445298
1.1493658095148111542
1.1495802305356459527
1.149665479024643
1.1495328159618949382
1.1492274700260483034
1.1488814346853466475
1.1486350820476374235
1.1485497651552292186
1.1486181333620493206
1.1488085476767091464
1.1490708461068284141
1.1493487839992053701
1.1495801429584162623
1.1496978034188645168
1.1496865450415323373
1.1495849122840688938
1.1494811024143938294
1.1494558615971195437
1.1495594440868752706
1.1498055047363742176
1.1501567103476149079
1.1505249619706665598
1.150795136511150174
1.1508615698172866004
1.1506845698636414266
1.1503119160745836069
1.1498370534483932648
1.149359072271324278
1.1489434264515292483
1.1486150542016606568
1.1483888604979510806
1.1482901972902699317
1.148368728105617631
1.1486627032215659394
1.1491787817327587806
1.149855588762817904
1.1505725095404062408
1.1511721188132417737
1.1515127479611717565
1.1515259725025297488
1.1512452143845934849
1.1507924709170886945
1.150332422366399765
1.1499932635743181919
1.149834301007623294
1.149846248301896523
1.1499836253216186854
1.1501934991091042892
1.1504296432592258093
1.1506390308364453645
1.1507635766070474226
1.150755177425768716
1.1586829164274887738
1.158685548101075824
1.158637052748767049
1.1585744364867074374
1.1585410704117766745
1.1585575049233942657
1.1586075714220369637
1.1586512684428076359
1.1586518939544521167
1.1586032081360218005
1.1585326392984016675
1.1584819515226696396
1.1584841638381662143
1.158548335529514306
1.158659962519747566
1.1587917913792233904
1.1589164023325508879
1.1590131666511400699
1.1590709007924213658
1.1590903688255453918
1.1590844306045391399
1.1590728359637259004
1.1590711978439280916
1.159084153735932432
1.159105391426413334
1.1591257852958074537
1.1591422738238152945
1.1591615615278410001
1.1591945152096247984
1.1592384295474835731
1.1592681418964103646
1.1592445309220698046
1.1591354376144940019
1.1589397104845340358
1.1586934274699816072
1.1584547722335505338
1.1582791037624040609
1.1581920623218826538
1.1581780812538400305
1.1581938021663580329
1.1581908044159552329
1.1581390286952750746
1.1580404455502713024
1.1579245732875167452
1.157829119597815426
1.1577794855069782898
1.1577768014789029394
1.1577996318003025422
1.157816699128412008
1.1578024264773794094
1.1577479156382148862
1.1576633025167195612
1.1575708912112472326
1.157493186099965321
1.1574421746226375429
1.1574159633981941919
1.1574023455357409507
1.1573876532122064908
1.1573652448453608521
1.157335710957785313
1.1573028792767343642
1.1572681455583950783
1.1572306683116320158
1.1571914453113194554
1.1571591748326657267
1.1571517155829773582
1.1571915276155892993
1.1572967046475712838
1.157472099220481665
1.1577050667316046706
1.157967638209404182
1.1582245029223201538
1.1584447612936810135
1.1586103942332706129
1.1587197051958244565
1.158783558474180353
1.1588193834628615075
1.15884201214449023
1.1588589046082737877
1.1588686684289948303
1.1588637205731702196
1.1588369532290412334
1.1587862396841379642
1.1587169680313487152
1.1586397667230881048
1.1585660356071643129
1.1585052315086337149
1.1584619999543563917
1.1584358203316225122
1.1584220748886391306
1.1584126100610081522
1.1583986826867993525
1.158374516058824355
1.1583397161790118801
1.1583013288266637009
1.1582736503597164113
1.1582729344741025113
1.1583105129879609496
1.1583877594980909187
1.1584945276648039858
1.1586122640263001315
1.1587219464136344627
1.1588116767745166857
1.1588791162772118515
1.1589280902397596229
1.15896172766891703
1.1589761000269873659
1.158959702323877794
1.1588996767714410119
1.1587912215406988015
1.1586443687361771548
1.158484031832004657
1.1583426535976970584
1.1582479047564140373
1.1582114971561134897
1.1582242442917136671
1.1582616829398417746
1.1582974023860250767
1.1583164068959361792
1.1583219952919678875
1.1583333085144360552
1.1583744105211015718
1.1584605597747250627
1.158588588588304491
1.1587355251823783231
1.1588669523544148365
1.1589508918867406084
1.1589699793854282284
1.1589270469971242328
1.1588422418722670315
1.1587436348562181188
1.1586566732518863709
1.1585972500814478714
1.1585698123230130374
1.1585697707279547508
1.1585880635498750912
1.1586159151727202232
1.1586476907185558893
1.1586812490920181951
1.1587164849197009175
1.1587535493994975955
1.1587914440415088002
1.1588274077509834736
1.158857318756221888
1.1588769153629214781
1.1588837655417190131
1.1588792524836695197
1.1588699337218555385
1.15886704838982868
1.1588836943189724238
1.1589305696367482312
1.1590117606883363344
1.1591224813634355417
1.1592503202324946354
1.1593794729136925881
1.1594955735439218536
1.1595891691807780344
1.1596574260157455072
1.1597039517302409894
1.1597370399583375455
1.1597673652022848501
1.1598054831642050644
1.1598593758770261442
1.1599323161220327361
1.1600208117787935702
1.1601141619660637616
1.1601958844951247851
1.1602477304560956384
1.1602555290062201987
1.1602139973511842452
1.1601291750667950264
1.1600175990796051106
1.1599024449109269774
1.1598075632925901601
1.1597517056839368177
1.1597445002480759602
1.159785292331580786
1.1598654411137314657
1.1599714196777495268
1.1600903408849170262
1.1602117103502500584
1.1603282329667679029
1.1604355785214561791
1.1605304653178991625
1.1606080830475058452
1.1606645195909168766
1.1606952216465267202
1.1606991830729360693
1.1606798120600367863
1.1606442379637320617
1.1606038423057245534
1.160569277872920857
1.1605520411200571651
1.1605570014762487396
1.160584018219948943
1.1606269803177466926
1.1606796953227451752
1.160733797423562752
1.1607844981533221862
1.1608301925396304899
1.1608704061557784115
1.1609046455729530312
1.1609310976845901298
1.1609463985760470894
1.1609469931839615509
1.1609304951408183637
1.1608977717251294237
1.1608539782158411313
1.1608087152467503333
1.1607740364953802459
1.160760531328155265
1.1607745407847829267
1.1608154766827663007
1.1608744641197097369
1.1609363704253470306
1.1609825730788116971
1.1609979970183990083
1.1609741512488935822
1.160910825588056472
1.1608165457883476979
1.1607063383428426473
1.1605973111157035227
1.1605045222598642241
1.1604387488287706276
1.1604054523939690835
1.1604038696366270056
1.1604272106207222937
1.160464939683534924
1.1605047249505651141
1.1605358408580739304
1.1605508041355616644
1.1605459232042185658
1.1605212320211053534
1.1604794690292552506
1.1604257578446619537
1.160366463304418394
1.1603073053632879663
1.1602520521749950522
1.1602017860855593501
1.1601562879725084709
1.1601138097581960018
1.1600726992302483609
1.1600313949492475629
1.159989138931888375
1.1599467761750004158
1.1599058162307758213
1.1598692890203132766
1.1598409642995046731
1.1598246846132311827
1.1598223524373356685
1.1598341540130812088
1.1598571889034714477
1.1598878770757938828
1.1599214033108560251
1.1599548812630986472
1.1599864724555850604
1.1517912718065603794
1.1508150037794682152
1.1529547696002377943
1.1534068518621209964
1.1517199839328637889
1.1512134988711848482
1.1519561201289005847
1.1517566105638457064