/*--------------------------------*- C++ -*----------------------------------*\
  =========                 |
  \\      /  F ield         | OpenFOAM: The Open Source CFD Toolbox
   \\    /   O peration     | Website:  https://openfoam.org
    \\  /    A nd           | Version:  12
     \\/     M anipulation  |
\*---------------------------------------------------------------------------*/
FoamFile
{
    format      ascii;
    class       volScalarField;
    location    "0.0155";
    object      k;
}
// * * * * * * * * * * * * * * * * * * * * * * * * * * * * * * * * * * * * * //

dimensions      [0 2 -2 0 0 0 0];

internalField   nonuniform List<scalar> 
106891
(
0.032155157182510669955
0.032145882557635188648
0.032128585972115777936
0.032090615970376212829
0.03199090399521309358
0.031728559992506039089
0.031294337890476489616
0.030873416260399678263
0.030429577825941585278
0.030008554695270521495
0.029631404263549793177
0.020029600725759641455
0.020315933852325825798
0.020546397610965414643
0.020714923342438337772
0.020820396632766174222
0.020870452384873762475
0.020883881112020739879
0.0208810408708470438
0.02085705569212436758
0.020756087280829262076
0.020592560131759141129
0.020476745298625961822
0.020412279802916565019
0.020388071545735700352
0.020385905037298365089
0.020406207428393555864
0.020514980138532163539
0.020873922815058648661
0.021352422326494844423
0.021782576710409284892
0.022160988052919203262
0.022480208160494029312
0.022738696795195321998
0.022940435825166218681
0.023096567253408143566
0.023217789287970681117
0.023314898119332152365
0.023393404435727516155
0.02345294145858355106
0.023494284908699890335
0.023516013124905005283
0.023524299373212168018
0.023524176201815370779
0.023514324135959954742
0.023464710098241060854
0.023282786956038518944
0.022991818083461859623
0.022769916276311419345
0.033483375799135503548
0.03360037027142946664
0.033680623037492980754
0.033732984608499369528
0.033762669927947838722
0.033777090658327499351
0.033783303657323203451
0.033784182459378253593
0.033782834524979536706
0.033778759050870514613
0.033769064653710066659
0.033744975887495351485
0.033680951471089237703
0.033493813378741625619
0.033089542337379297676
0.032626339022004118007
0.032173370067560817798
0.031742159755495602536
0.031321792095977657455
0.031004914293402227599
0.021451521581153754764
0.021620469692999372963
0.021745987579816404567
0.021824913476787059091
0.021862034783983796959
0.021872281517804823686
0.021870058841725135285
0.021854699517298389888
0.021791013686115537351
0.021658315943089433836
0.02155246840728206395
0.021484863658902120243
0.021453785239230527271
0.021445041593675280567
0.021451005574320832631
0.021501625372598975883
0.021707344287941576777
0.022120023419073767817
0.022511138270652417126
0.022870000652995776946
0.02319540936479530524
0.023485701843395850874
0.023739523871743110212
0.023958066013427467555
0.024144582802926660425
0.024297852799563399856
0.02441934236116221138
0.024506253054421434784
0.024561736176020268485
0.024588009735845649251
0.0245964968412126124
0.024595379816982669563
0.02457658295000885243
0.024492221282874475363
0.024237085652208646691
0.023954024929496477159
0.035101535778249794151
0.03523131605087331808
0.035321964557797964901
0.035381600539228931501
0.03541708761086599655
0.035435047883585188422
0.035442726375775703007
0.03544466228456803758
0.035443784954653757835
0.035440859040149770565
0.035433609945192866275
0.03541522347226531281
0.035366551649442190541
0.035227512793457461948
0.034848719702715524882
0.034326885322504371856
0.033808956534361521429
0.033330886393998365724
0.032847543889289905483
0.032496050687961360037
0.02257798426306668188
0.022764643369782650018
0.022908386467712080203
0.023000444440833763687
0.023040812035256649087
0.023049016552195343566
0.023043149766155231889
0.02300880151448604638
0.022878890424728983571
0.022680860269705879761
0.022533414793106946311
0.022435743324046259622
0.022380613107736563316
0.022357384325757016091
0.022351209441167634029
0.022358444959641968208
0.022412187184346531177
0.022620502895144316974
0.023050142028265153266
0.023472075680439550421
0.02387367868334778695
0.0242492616579604095
0.024594401789923885093
0.024906306010566009457
0.025183093824387096926
0.025420201987718996778
0.025614004718093278529
0.025757613856870108238
0.02585107251967427161
0.025897036426211803711
0.025911618914905315547
0.025910397403644598591
0.025881242986459065958
0.025746982676430590214
0.025437842125746304434
0.025183609245445565811
0.037055622086936169934
0.037137285452016367826
0.037187041504745318998
0.037213099854766971963
0.037224420086964971066
0.037227878010495284167
0.037227788819495150063
0.037226310690090476385
0.037222418490474008801
0.037213575329618775456
0.037192835856706477071
0.037139709186949233788
0.036988083205351011962
0.036564103786333602975
0.035963615360711791158
0.035393848893846079073
0.034869686659203431855
0.03437348829157611807
0.034038292332662638262
0.023817225398274854964
0.024142715697373362538
0.024385035445641824875
0.024532609629624096276
0.024597100252414783733
0.024611424959074538338
0.024605387812294654548
0.024565077181730274325
0.024404100022116802932
0.024112870058822802322
0.02387950907625020075
0.023717602096810837947
0.023623144677731456459
0.023580686334468605597
0.0235707978157365175
0.023576709461599711093
0.023621521521393410575
0.023789396492478308981
0.024218478861039928474
0.024689036281110906396
0.025134528479403932949
0.02555070508168880497
0.02593222826002752196
0.026271611723776289171
0.02656426716726718873
0.02680516095570572091
0.026988514081232675007
0.027113364249664907712
0.027184918686089899059
0.027214550387494526595
0.02722096532416383094
0.027211755200225323098
0.027149963606588424503
0.026933524148237030643
0.03869547962161570126
0.038859638982822394815
0.038968493800356496237
0.039033868137308441737
0.039067731859091146818
0.039081537265036894735
0.039084813747433944098
0.039084764182923663334
0.03908265191180469722
0.039076820948372670284
0.039065724266551915544
0.0390435878376378942
0.038993322248132213093
0.038858825664333164485
0.038465809215481698569
0.03784112332357030678
0.037231398323657904914
0.036684487545696094213
0.036168730124990354502
0.03583746213009128545
0.02496125752611702206
0.025198668178556999503
0.0253905845829926341
0.025523491486822685176
0.02559711452799888487
0.025622592582276091516
0.025624317667858675235
0.025612400053411185641
0.025550111524624250642
0.025349811399180143673
0.025127112678007133134
0.024972054649771056878
0.024883649284474788216
0.024846426323390673196
0.024839350250223525551
0.024848980244247202004
0.024914155913965146949
0.025167650649504987731
0.025749083779436746783
0.02631528241328657744
0.026812986940538258845
0.027240203146732484829
0.027595232693156463571
0.027878481814388518523
0.028096372172159125163
0.028253216346821288102
0.028357983078428152662
0.028419112617990911762
0.028446560757800925384
0.02845396660241545847
0.028450284921496048901
0.028415505409678507021
0.028273806025709009859
0.040951456338252277545
0.041020274066306892935
0.04105246196833271799
0.041063143608202158641
0.041065630034464846443
0.041064571311616518412
0.04105624352412245992
0.041044749808686734061
0.04103558913750730841
0.041024792904247403547
0.041005447244600416734
0.040964825600681056827
0.040866266041705422152
0.040585930357737595719
0.040009490597248037469
0.039383163577613962414
0.038829596639812911929
0.038240523093437964186
0.037868855828896312576
0.026296377764739149729
0.026384611712296592023
0.026435135234988693664
0.026453659901146429206
0.026455699286473195048
0.026447682889475673806
0.026403145745418368784
0.026268542873922329228
0.026134996270743966057
0.026049690203745475697
0.026012136487872254687
0.026005287824221005877
0.026019326376331020773
0.02610621433909551467
0.026428172185484589268
0.026967443068972640763
0.027467851863486162506
0.027916988457236339288
0.028313901217410644001
0.028658150827872742872
0.028957761330380756004
0.029221169438892257569
0.029448237088447792864
0.029639197391560047345
0.029786599060697260127
0.029889367062343130677
0.029949011282806265594
0.029973741706500706822
0.029977645964416984453
0.029970538555048734097
0.029926693055719644915
0.029760509414490130681
0.042898593768443148144
0.042936723047355261629
0.042951165197818809427
0.042955336678670810735
0.042954827943663495549
0.042947227047729331917
0.04293429064682120766
0.042924776180228801925
0.042916185372047374602
0.042903913979795121891
0.04287898448202529661
0.042823474480598089364
0.042679774720749852346
0.042279912902757926796
0.041708287306535224426
0.041118609929990362906
0.040609443259848831964
0.040050804273977974601
0.039734061996454031473
0.02799237543860962768
0.02805299354145928542
0.028068466056427866101
0.028065703477508020108
0.028036638058887012465
0.027910356468387076401
0.027691427728127170765
0.027533968750078883364
0.027444633078010424038
0.027413759429406745621
0.027413363987965753965
0.027451693907658239469
0.027638550871371361795
0.028169756120754719381
0.028729031469644377567
0.02918616295854237902
0.029553286168963799341
0.029844168708561675391
0.030086257264714456883
0.030304902255483965462
0.030519475359138487081
0.030741029618497867082
0.030956162788545099618
0.031151599078642712437
0.031308438359289751662
0.031417331616445408338
0.031477804123607296127
0.031497671029660098685
0.03149621531349342668
0.031476443513389157358
0.044876363811247446667
0.044874817894155670517
0.044864039355538891385
0.044841134925608074069
0.044826930619093749431
0.044819530535205175104
0.044813759653625447055
0.044802996538764343348
0.044780930077905546638
0.044734374304072524464
0.044626880827200877955
0.04433608842571756109
0.0438239743453299746
0.043282795527299050553
0.042744596751017584213
0.042279039272966105478
0.041812103549602450125
0.041570903332585638912
0.029595649831836254307
0.029731234264371714238
0.029785389723316246097
0.029792092993561163083
0.029778151815816757131
0.029702035575867168082
0.029493082383516576461
0.02931142803225660412
0.029203009883833126736
0.029157655965811352106
0.029153201331554377818
0.029170927995325338783
0.029257651761383594163
0.029543479003599340538
0.029954007502788603662
0.030327426407091157001
0.03066960472642625557
0.030981564287257130907
0.031273966632066538263
0.031562306471657392004
0.03185689821893625262
0.032166265681756636696
0.032472075741159664442
0.032747171705606030467
0.032959564596457449626
0.033094392767033520286
0.033158730436112851536
0.033172399508223496256
0.045990298274609188456
0.045853532869461526011
0.045772581128076840484
0.045734093335661932245
0.045727112640377681752
0.045733461459795024528
0.045771054182065978866
0.045884466931698120185
0.045979216905407689631
0.046020121197869967578
0.046024459797146970164
0.0460124672195744433
0.045947320616934510251
0.045704853389337281311
0.04511019657935840671
0.044570093111585711021
0.044033761673410012905
0.043763359981281405031
0.030437139032721580861
0.030623734404480854737
0.030708599835708658143
0.030727495608770777347
0.030722101732851926637
0.030684515323273413995
0.030576604728161389107
0.030493742041687369598
0.030461254655584472234
0.030462680331434392744
0.030504381613517317362
0.030697635497975248736
0.031241077733238267755
0.031767087185336488619
0.032134477894273844045
0.032357256165042334872
0.032471200983345292757
0.032520034575904820107
0.032549408848210469036
0.032598633075296611084
0.03271361793030062165
0.03295251786216656098
0.033246754033517858518
0.033557455823164980546
0.033833333562364176217
0.034034098282036122363
0.03414374075645090767
0.045974095777268471352
0.045854385066989460096
0.045800604705075527445
0.045792652062730455909
0.045802413319521534385
0.04586063237047016683
0.046080577359851944419
0.046419480678178588751
0.046675126125990305803
0.046838977270659776231
0.046923728655863486403
0.046949931656417163983
0.046947546781795038151
0.046918542261790596726
0.046794644928438676457
0.046401142958811154859
0.04614298671733917806
0.028832481727652105319
0.029660213950516135795
0.030440931510679013899
0.031033552880049091599
0.031463378226682499339
0.031767808396417067385
0.031996432310452377346
0.032206385294385166118
0.032432292195087607245
0.032683473751793416795
0.032947424235743608123
0.033199025342958841944
0.033412065181286212945
0.033562470909661662466
0.033638991879016248709
0.033654972084220788342
0.033641662951473451371
0.033551073212685508795
0.033191795751005594151
0.032656601740061096117
0.03228118010126057591
0.032075141842685089832
0.032001122792116511173
0.031997953514034740974
0.032044434968252266671
0.032278022175161832918
0.03299652467999882044
0.042425228877944594352
0.042271985057036186306
0.042225378114243601602
0.042227903513670429769
0.042275456219568706417
0.042488886426101525606
0.043222858566672649194
0.044336605069759164877
0.045300129760804504209
0.046083173638932439786
0.046679702308548648437
0.047110847220432405802
0.047388767872503755052
0.047584023654750826071
0.047659402537726672233
0.047739602089276328423
0.022954230761142762479
0.023201959147844248427
0.023967444710271186559
0.025014411157766393984
0.02597512385267292459
0.026826092586701027337
0.027543157496349130603
0.028114028191606944829
0.02853449995194089206
0.028817087614814478752
0.02897867376982749682
0.029046424139114564861
0.029058533427975884872
0.02904614260315416599
0.028967481085806223023
0.028669676245163151773
0.027990753784284901073
0.027345363967717240677
0.026811864859493453328
0.026411693804144698722
0.026148511479312293998
0.026008861498592109746
0.025961334054668789434
0.025959319607279422726
0.025991748409985315077
0.02614555614909535447
0.0266826050976043741
0.027692370944269163735
0.035749117040616229524
0.035685825697418606384
0.035668193156777099062
0.03567062598389335315
0.035692616129252535684
0.035784049700852540998
0.036100106877883376966
0.036840706781099796796
0.037640852301930753654
0.038357337465514430852
0.039095507083420744099
0.03965988987955507139
0.040267359176136982568
0.040619622002524301274
0.041105781348800170261
0.022264470512652990986
0.022616742791479998304
0.023137792550633858729
0.023649119525332579217
0.024139211792275478558
0.024586304805680705976
0.024967887888390726675
0.025271458414332401837
0.025488463686241424194
0.025626813406148554048
0.025700199082244704063
0.025726752814690129895
0.025730410857270156338
0.025725394951843991165
0.025700516694024806014
0.025610675411308316679
0.025416940242171781605
0.025243016405416977832
0.025110494330546344333
0.025027508434736483317
0.024990009166504147803
0.024982651941988280597
0.024994486498696590754
0.025070386553060659829
0.025355199349137512443
0.025930203126309857298
0.026474414254143541214
0.034583403242643605269
0.034570929871758748764
0.034574463486190448736
0.034600169349232740013
0.034705194224464289143
0.035047239128300392008
0.035529565521863003263
0.035981888091524937001
0.036369698151865699487
0.036749508958571874828
0.037023432168639111572
0.037318567383329406817
0.03747739398087151369
0.03769750433569594994
0.021931729843668267693
0.022271654069854682906
0.022599426308521904788
0.022918236990207528636
0.023226734368407622733
0.02352135136203024543
0.023794721975870663372
0.024038656380397569606
0.024248046267443285062
0.024412566934713868932
0.024530032776973284547
0.024600435048806268412
0.02463014004604066956
0.02463798440157900782
0.024634198779524829614
0.024601208628609240459
0.024465752750747967598
0.024261628925285751157
0.024114575212968950707
0.024032381567557648677
0.024002554885780940513
0.02400108918309765485
0.024024976100084294989
0.024141138050751353994
0.02451441208608477404
0.02498566001998023603
0.03310279196131011431
0.033108094936091479743
0.033143486462472303289
0.033284281625458253528
0.033659257833611712363
0.034028923756630309605
0.034373867634852034447
0.034638955953804895227
0.034899279537614104341
0.035066772095604131776
0.035265544971698446763
0.035346831605312850622
0.035511724703579938822
0.021734017999392882259
0.021988108755621467438
0.022230083850475187979
0.022463179826451389748
0.02268342950993816956
0.02288306474916492958
0.023055444717488146611
0.023190789853354612515
0.023287093937837149982
0.023346114138310114505
0.023372432080695712542
0.023381409523582055016
0.023381222882575981165
0.023367521037452057553
0.02329856368361752153
0.023166161082592524184
0.023060393306601957575
0.022993103184423002022
0.022961938298034133277
0.022955741628260705606
0.02296495242197896941
0.0230248341353375581
0.023245777930666657041
0.023620887655364485036
0.023968648353547047924
0.031992263431529797957
0.032018362581937374889
0.032128174914814879026
0.032433079606853973398
0.032729103674864631901
0.033008156245621804448
0.033206318029296202909
0.033415223472157841444
0.033539445622050391427
0.033707010811904435099
0.033779840406640143646
0.033938992040041561504
0.021148682718559592281
0.021415363338042656127
0.02165649653072916625
0.021863964554869060042
0.022034424729942957144
0.022168697919559669091
0.022270568499056165451
0.022348308769123585021
0.022403611965606844841
0.022441333957770048108
0.022462140117517213206
0.022471366475496180187
0.022475112882593364927
0.022472648060015969207
0.022450819204633383486
0.022406576442372868468
0.022377163947508053182
0.022365269456393790937
0.022366621470745598477
0.022393599746055755512
0.022515662691588042565
0.022823515352941907419
0.023137308086898081272
0.023417242471589383435
0.02048498556280000174
0.020682362850568982576
0.02088099669531676833
0.021083882125175371774
0.021287666480820224141
0.021487593170785128371
0.021674122439395600292
0.021833817087686908237
0.021953441528915970671
0.022029936649259812542
0.02206578442889046282
0.022075946829907020647
0.022073373867061065606
0.022041914615849617087
0.021922427643912927725
0.021778595932559190879
0.021693899280420446407
0.021661738792550455646
0.021660969867789061499
0.021687875611378040763
0.021826018373088455077
0.022261693080725619698
0.022746299484723793427
0.020226703188245445664
0.020423171588486374595
0.020609216683968818729
0.020776508765147604085
0.020916266586059131111
0.021019843186741056507
0.021088531762823575777
0.021123289111801547141
0.021134560472427486172
0.02113444522270968573
0.021116041465160374085
0.021031605453524313681
0.020859871072245905754
0.020723249789906375562
0.020637848686520045977
0.020599668493790058987
0.020592625214874361178
0.020601589719677033258
0.020659564660338459313
0.020889595171850218469
0.021369623731453693538
0.020075452221394396446
0.02008637506516550153
0.020089053672599523764
0.020088430270551137918
0.020082055810965976361
0.02005747089109861242
0.019992681751113405841
0.019918400457323012093
0.019853384239877383544
0.019808331603209973493
0.019785528010973472274
0.019780398843482434323
0.019785715721501177106
0.01982263205209252796
0.01996904232378023461
0.020293102089655495196
0.020608044760050601291
0.019487025659755227713
0.019473111735005054629
0.01941662828327346893
0.019328556420603049126
0.0192662914635341187
0.019233880557631116703
0.019225169292434059892
0.01922851758335241551
0.019256672881176186557
0.019377154700882307653
0.019710324110748779491
0.020066025593698799678
0.020368152224317120913
0.018687017914239014565
0.018661440974913443003
0.018590694505276283977
0.018526120466855481445
0.018487732399273808237
0.018472820401175177318
0.01847259685301162746
0.018486412984303045998
0.018560410388004131704
0.018832356703369235867
0.019269029304895230609
0.019638595006561686968
0.01266496911379496465
0.012178525524339534405
0.01186949335686098006
0.011752029537306814266
0.011740269074020474871
0.01177747635361928516
0.011981921856191955419
0.012412761728010413692
0.012702349507943423365
0.012840082701484139063
0.012878736755209245837
0.012878443275069895516
0.012860161090657715871
0.012834589941967424614
0.012829180998025517188
0.012835010425666983427
0.012871603921262533832
0.01300958792013678228
0.013470377425910977018
0.014188756618827855563
0.030200826318969319767
0.029618429115367505416
0.028337603725008833622
0.027492047550996618482
0.02712292649436899919
0.027052892438656082202
0.027089136751651227142
0.027333786326498247382
0.027798788746938658117
0.028044493308380959856
0.028112069943630017821
0.028107544101935388881
0.028054164493065875813
0.027992306417398166163
0.027981199625900173705
0.027994022297113764497
0.028055631868200026774
0.028245760202459477967
0.028819187821259965865
0.0301594976624791275
0.031567798109033450016
0.032797248905115719553
0.095684238936062440684
0.095484737860435847656
0.094578920746322889257
0.093261887551349217929
0.092690336359941255528
0.092649254282017395878
0.092818317850695872262
0.0935961886734114068
0.09549614955556737228
0.097027590095316501584
0.097989787182035339996
0.098563346314497549128
0.09890115355968034927
0.099165025777053036893
0.099573782399969529289
0.1004382920112902311
0.10249114689089237895
0.10539217108486795271
0.10840667748868949849
0.111209854971858077
0.11357151359457370865
0.11552747813211583505
0.11712128022446260944
0.11842528483283883134
0.11940323504223995799
0.12006766827797096808
0.47810447331134264815
0.4774981964481337382
0.47649101816421474132
0.47629089601528362685
0.47673311015673658364
0.47891778733344469998
0.48615920331553269529
0.49874703604061321194
0.50989000993472299861
0.51833241309103916805
0.52378447007664086232
0.5270903255822676492
0.52980015268287683483
0.53356182545030184095
0.53953009728601841744
0.54805472643578534431
0.55865059021045904153
0.57037991288228351294
0.58218256868040141327
0.5932163691392552396
0.60304876767693305073
0.61166099870886359025
0.6191789267096003968
0.62578866316883097198
0.63142911033454618419
0.63605290225740140908
0.63946844179373518724
0.64178256413125422952
2.0220663280813719886
2.022108314711481114
2.0228528437449191379
2.0261655839025998205
2.0357239311761743394
2.048831473034402606
2.0624707224313114651
2.0753121182317140203
2.0863574966217353079
2.0953655082954378841
2.1030193284469245185
2.1105112667809375893
2.1191233094033758988
2.1296492026858371283
2.142057549577311093
2.1555709106128371211
2.1689148564450317913
2.1807911527688035314
2.1903344456530815521
2.1973452013199663568
2.2021503229437096039
2.2054417646243229534
2.2079810092146234801
2.2102081771841897151
2.2123056918977557217
2.2141510752017907748
2.2157466959878746593
2.2170353076906552658
2.2183146675720499807
2.2200724452632498718
4.4025249228294862647
4.3925414148959118776
4.3838043185768569288
4.3758624533432746162
4.3680863651108881029
4.3598191104740529056
4.3506253532561363073
4.3405790334684066778
4.330223132206564074
4.3203133873807875176
4.3115117176600774584
4.3040972139115529771
4.2978228116719705554
4.2920017865089139519
4.2856782577836698422
4.2779096096219220158
4.2680622530396936654
4.2559603326085824193
4.2419577552803646725
4.2268077258000715801
4.2113808168551445377
4.1964276483956144403
4.1824210766538518769
4.1695258382121753726
4.1576219229106543551
4.1465373402331033859
4.1360847891528615961
4.126308677995915275
4.1173585439203073122
4.1093793862896879077
4.1022695164107787491
4.0955294089215126263
6.1221478906448947299
6.0929388194310281079
6.0636776435891563963
6.0346472547971901079
6.0061190674112259202
5.9781517108233312996
5.9506032695553034984
5.9233511427901950341
5.8964680844804231441
5.8701613711112905492
5.8444927072623027442
5.8193122946997046796
5.7944039423192510441
5.769597360522702445
5.7447531397878144332
5.7197382552546232048
5.694372951979439712
5.6686301309864131071
5.6427133230181016899
5.6170200224879458517
5.5919784736607915931
5.5679050528582436641
5.5448843330146528885
5.5227926468790036196
5.5012848319424794141
5.4799689278662029324
5.4585918140534914755
5.4371958990384250399
5.4159502309960085853
5.3949749222770551071
5.3741622949823604216
5.3532248390155583451
5.33188479616438471
10.456028558216926783
10.354123690981536399
10.252704870409310445
10.153441599151575403
10.05766694279873974
9.9649661619923772804
7.1270522228025274813
7.0903305710413784269
7.0532217289544458794
7.0162091989064911957
6.9797077328555561238
6.9437471567009509954
6.9080645503530977436
6.8725393677368398215
6.8374133106305068353
6.8030914080522624232
6.7698103277819274837
6.7374894790946049383
6.7058267085936975604
6.6745525917501611346
6.6434691961371328262
6.6123744423199362075
6.5811580457364051711
6.5497754585149321471
6.5183812193765335863
6.4873390759186850829
6.4570513364479280582
6.4277565388460278228
6.3994899681541062009
6.372017412363698341
6.344899975061497166
6.3177357144051207172
6.290376614017259449
6.2630394108250184715
6.2360999829070715705
6.2097544847019099379
6.183828951092224635
6.1578959823186236733
6.1316933604687342552
6.1052993843575658062
10.311101388113847577
10.212023430807745328
10.113807078550605567
10.019091312356930956
9.9288007932223365515
9.8406319187417548022
9.7511622170908633933
7.0020831940082191025
6.9579274235097274826
6.9141441223104314062
6.872235777959933678
6.8325687727847199682
6.7947829162050616958
6.758561438207579819
6.7241040191910110835
6.6918278344091115528
6.6615817828069685547
6.6324160098206901282
6.6030736424030331833
6.5726489675651018629
6.5408129939394079599
6.5076404216559522453
6.4734147536463870765
6.4387137319264313717
6.404545007817449509
6.372155987500202734
6.3425129336453629492
6.3158037899880010713
6.2913504228325010104
6.2678763865398030575
6.2440118829780297816
6.2188754385441331607
6.1923633063458964898
6.1651332844313317949
6.1380144426385054857
6.1114109629992192652
6.0850712156988562285
6.0585009154762277106
6.0315841005860502122
6.0049657782562091413
5.9796781728903720676
5.9564766301931717507
0.00031642481402641619778
0.00033006878842867020882
0.00034477513858596368695
0.0003549027684801974304
0.00036077067864460920805
0.00036327592707410772885
0.00036374865586452826988
0.00036332533044219797284
0.0003603105354320344008
0.00034951041514400519759
0.00033409471519042847594
0.00011015294900005243581
0.00010537963586346136701
0.00010331958013458143752
0.00010293344292289147753
0.00010313635611613038243
0.00010433399994439409718
0.00010573649822628030596
0.0001061230921726445713
0.00010602361183740911734
0.0001051082510334193094
0.00010125544746629079195
9.4388747065139545832e-05
8.9335473351809379793e-05
8.6350306366039875972e-05
8.5092647898856572063e-05
8.4902732036769304144e-05
8.5239121941968704153e-05
8.7345170235981627223e-05
9.5702535158185384639e-05
0.00010944293093561817105
0.00011923144232362592541
0.00012454753755184350432
0.00012635154065566094441
0.00012641758832571028514
0.00012523769102228807693
0.00012180898248058784892
0.00012008982620271158731
0.00011993846288234005846
0.00012088749301823501175
0.00012613968570673278848
0.00014099396151372189673
0.00015355224339846227006
0.00016022221050481676901
0.00016233754390884306889
0.00016229681800790948885
0.00016031471795048763199
0.00037026284810668449055
0.00036847865256238362388
0.00036035536161512291128
0.00034263834253297847064
0.00032815789006019431204
0.00031823871216225054241
0.0003125534456194235507
0.0003101696273589278326
0.00030976189336983495472
0.00031029293380179851685
0.00031377103376352871765
0.00032687767934114675319
0.00034508379229613689006
0.0003586323457163036253
0.0003674830138704738799
0.0003721487996443664987
0.00037379667461613126514
0.00037386368665352922398
0.00037273127914658074839
0.00036740869576279796454
0.00035283821669647241022
0.00011079975297403013991
0.00010749099043149506723
0.00010656218066158245565
0.00010664535023297731038
0.00010774587817883992866
0.00011100588342164989151
0.00011320180017768153647
0.00011381257535884295364
0.00011371429040057186473
0.00011263630193749599867
0.00010824821062347894196
0.00010231043283831930556
9.8653139422487097325e-05
9.707908568452898099e-05
9.6843661643771706995e-05
9.7307793497124068214e-05
0.0001001661640313253771
0.00011050954414771329301
0.00012366518733277956756
0.00013253342973328210768
0.00013718118029722059406
0.00013864336792634309966
0.0001385780438974677873
0.00013678895773455325012
0.00012954175259295575419
0.00012170406019262999982
0.00011771700801882873592
0.00011659559953618586498
0.0001167565583700637459
0.00011871807809345712691
0.00012686574924332649208
0.00013803006334193448565
0.00014497309153213016491
0.00014794780515419469796
0.00014846386629350179546
0.00014795736202256301638
0.00036387427712209808889
0.00036290030891269862848
0.00035771393215361922159
0.00034321383429439342606
0.00032960775857616655309
0.00032016396610699094727
0.00031456477228200134836
0.00031207393393013760363
0.00031153391732447008756
0.00031187489719941487599
0.00031448689095710610384
0.00032524946234093355269
0.00034373447270241128419
0.00035835400159971392362
0.00036860281066775253678
0.00037473799694127534225
0.0003775884249805852729
0.00037832497711884658731
0.00037814359775061132541
0.00037618386788428411936
0.00036971422435517825242
0.00011256312189361823185
0.00011226146594737726784
0.00011279867394794545153
0.00011594963077887727532
0.00012216856929972398031
0.00012585165853779789968
0.0001270847606694828786
0.00012709016804106194561
0.00012614085931658941108
0.00012178024792114600441
0.00011350486153962416347
0.00010758487573803501847
0.00010428865669222104327
0.00010305284717563074231
0.00010296327547266302834
0.00010359803759089324115
0.00010700003858964794181
0.00011295871649635996227
0.00011662134066514981022
0.00011809468290397246392
0.00011828489133108240929
0.00011783425550904767321
0.00011526020845671023111
0.00011114910050063627161
0.00010908332170806381972
0.00010861103062270481892
0.00010893200675928694382
0.00011137063983260731947
0.00012020027164457919365
0.00013033918653984098777
0.00013678093244424486511
0.00013978992193793346585
0.00014048003487801972631
0.00014018088967118367758
0.00037045966221895335058
0.00036610877413847649296
0.00035288720906524403704
0.00033979955454716285947
0.0003309925865905412822
0.00032604475243557640802
0.00032405040366568940539
0.00032377348483220651882
0.00032441082541122121712
0.00032827202346663461813