/*--------------------------------*- C++ -*----------------------------------*\
  =========                 |
  \\      /  F ield         | OpenFOAM: The Open Source CFD Toolbox
   \\    /   O peration     | Website:  https://openfoam.org
    \\  /    A nd           | Version:  12
     \\/     M anipulation  |
\*---------------------------------------------------------------------------*/
FoamFile
{
    format      ascii;
    class       volScalarField;
    location    "0.0155";
    object      k_0;
}
// * * * * * * * * * * * * * * * * * * * * * * * * * * * * * * * * * * * * * //

dimensions      [0 2 -2 0 0 0 0];

internalField   nonuniform List<scalar> 
106891
(
0.032155097870116958192
0.032145820413074011057
0.032128478140299211729
0.032090326545926493862
0.031989952099081397918
0.031726154726323708977
0.031291597830720566109
0.030870614396760500536
0.030426729956410783484
0.030005880857501183306
0.029629069092030588944
0.020030322303172008042
0.020316456850159429065
0.020546703987437409111
0.020714993036271819871
0.020820229056495678788
0.02087009973608784999
0.020883443610355583581
0.020880584802239129938
0.020856466000271085826
0.020755029790211997759
0.020591586638535858134
0.020475967109852333259
0.020411674579965222859
0.020387584967298682387
0.020385473223025238343
0.020405979175770246753
0.020515469374322924806
0.020875724469020678215
0.021354103110949748667
0.021784056102265678123
0.022162228830469407614
0.022481174458534612659
0.022739374631686792849
0.022940845771843663276
0.023096765117182151139
0.023217845107917724212
0.023314874869592539658
0.023393327975843626609
0.023452811987902263957
0.023494086556514841985
0.023515742624563382851
0.023523977463443930536
0.023523836677601869805
0.023513905911723687742
0.023463985340394913348
0.023281207850324562442
0.022990325317541512873
0.02276874114445397862
0.033484326219534281399
0.033601049245211886407
0.033681084628364367506
0.033733267258750095074
0.033762810320747731196
0.033777136674335080102
0.033783293945463609143
0.033784151930918278339
0.033782795905081881849
0.033778718169574985242
0.033769000284327638228
0.033744792705034422353
0.033680361843921889642
0.033491848088455920818
0.033086668252614997998
0.032623382039816586908
0.032170496281202241862
0.03173935869234450341
0.031319333274291268066
0.031002877683895199018
0.021451720388188807997
0.021620528252034001276
0.021745886487879485804
0.021824639076663859133
0.021861619408616719124
0.021871801265904707717
0.021869569181819176196
0.02185415055813038146
0.021790138702638725543
0.021657416961131735478
0.021551706731549075124
0.021484230973311268381
0.021453246884003587813
0.021444555052783829951
0.021450600196509364559
0.021501612926935045889
0.021708527288269753586
0.022121415328893747482
0.022512442264431324623
0.022871175751978972679
0.023196427951574508791
0.0234865335019573164
0.023740153570893898077
0.023958508129939545123
0.024144864106155877748
0.024298006440833071901
0.024419389031318527311
0.02450619960556365759
0.02456158574959579205
0.02458777416811423755
0.024596204375004270676
0.024595053180890030786
0.024576090257784229814
0.024491202323998002149
0.024235315858721663551
0.023952535629612973361
0.03510258876821775037
0.035232078594136462257
0.035322491260909208433
0.035381933627360855066
0.035417267654854117653
0.03543512071810262648
0.035442735925300596078
0.035444645528782223187
0.035443760125305499853
0.035440833118889333853
0.035433567146157314565
0.035415089833926029217
0.035366113305469154549
0.035226077330881955252
0.034845468645725921619
0.034323494033106694001
0.033805691233441820254
0.033327709263431086473
0.032844759731234400568
0.03249376167345398303
0.022578230347604186234
0.02276477058563551592
0.022908333224460567662
0.023000178305964503328
0.023040366468435654473
0.023048494755310233728
0.023042590572947333621
0.023008069480827560843
0.022877636257691357641
0.022679731500627922647
0.022532501774815687223
0.022434997091754844967
0.022379984176847732974
0.022356832041867991806
0.022350707009110064305
0.02235804677967613216
0.022412204686496586814
0.022621712055192633867
0.023051675644970560236
0.023473542520697474739
0.023875034702742659043
0.024250458422843533535
0.024595408973045844447
0.02490711627542040521
0.025183716304010159148
0.025420654990309585197
0.025614296119866555856
0.02575774603544175867
0.025851048865679137484
0.025896874173509932399
0.025911362801483508317
0.025910081173094266088
0.025880650841760163144
0.0257455310511402434
0.025436093174173515785
0.025182261650242138834
0.037056330437563012037
0.037137747832972238526
0.037187311761197716642
0.037213230736329094839
0.037224462739144509316
0.037227872728879035646
0.037227766448501634078
0.037226273915279779747
0.037222370179696789849
0.037213494509233224772
0.037192649527508427065
0.037139188239437764816
0.036986467617812657238
0.036560330543053215502
0.035959748510192540705
0.035390224071067476197
0.034866292464640541438
0.034370711743860526965
0.034036139044472620008
0.023818164481720256742
0.02414335894263973728
0.024385299134484915429
0.024532494513023552635
0.024596709199895955278
0.024610919918964829778
0.024604841830727506441
0.024564304117852774761
0.024402523838284003593
0.024111317404132661529
0.023878218838175827021
0.023716583886405278453
0.023622364481235520045
0.023580089043914075758
0.023570315481846012412
0.023576336939269706972
0.023621498900939057186
0.023790312493203298605
0.024220311585957401967
0.024690691542452174179
0.025136026209453751767
0.025552003388326572503
0.025933301677685326875
0.026272455017577821257
0.026564898862783441896
0.026805595733999220548
0.026988763602371200478
0.027113441363971119147
0.027184837164716372376
0.027214337677970094898
0.027220662547802303155
0.027211305907997574566
0.027149030608409372572
0.026931781395264291906
0.038696799452407518172
0.038860565551340466028
0.038969097966068171057
0.039034221477880021167
0.039067905819155895886
0.039081597573611188967
0.03908481484431734071
0.039084741632541962486
0.039082595474975535821
0.039076729688761101256
0.039065589051316920721
0.039043352510739502692
0.038992796992696407421
0.038857369208477252065
0.038461996854019332714
0.037836998365621300755
0.03722752855240894776
0.036680927904902231595
0.036165890810738593464
0.035835311445624920546
0.024961755962140209919
0.025199006362537270526
0.025390700426448909593
0.02552336389464075761
0.025596775218071160518
0.025622119781874255068
0.025623812572837738333
0.02561180636368746294
0.025549139951703797591
0.02534824432486366616
0.025125799654350230994
0.024971025954787059303
0.024882877438711033941
0.024845842748549062939
0.024838872752641336095
0.024848640119081003702
0.024914299427150267408
0.025169239506357150155
0.025751411923023166672
0.026317245633981838776
0.026814598671790926959
0.027241440494987150672
0.027596098326717690558
0.027879011678009768538
0.028096625369175336207
0.028253257236248857653
0.028357875227541001067
0.028418901768715865153
0.028446277899397097444
0.028453634566492622127
0.028449879153777706681
0.028414792128364792234
0.028272309582387290111
0.040952128130600472244
0.041020653409674305567
0.041052655588277899013
0.041063236180422339749
0.041065675277839247537
0.041064574916022569817
0.041056151602729532013
0.04104465161085912861
0.041035473518103202095
0.041024632437096593407
0.041005191530893339569
0.040964356732657761229
0.04086517781799407778
0.040582797399716950826
0.040005413338560051606
0.039379209731221109791
0.038825776140726055152
0.038237317568180974325
0.037866339696852185925
0.026296240394014711722
0.026384305402887837932
0.026434695026464838374
0.026453142811518386146
0.026455169416482449823
0.026447090927344041322
0.026402270699206042276
0.026267328603748248822
0.026133980226103314254
0.02604888236257331402
0.026011508609353178184
0.026004762036518073998
0.026018967634553344381
0.026106467421249286709
0.026429981374150059853
0.026969348211940889076
0.027469562307970755988
0.027918442791605217052
0.028315081363152007354
0.028659067920907572297
0.028958461105400352953
0.029221688272273341896
0.029448595700869242137
0.029639394169058679712
0.029786623183945721421
0.029889224955949516421
0.029948721854594243658
0.029973347159192125638
0.029977199954644415114
0.029970006079084437339
0.029925848497064398007
0.029758853667755338912
0.042899013900212758232
0.042936959289470666423
0.042951306858866340754
0.042955436332618057715
0.042954901080463910035
0.042947195765714166193
0.04293423953636090612
0.042924699427299435606
0.042916060662893759647
0.042903703491082655075
0.04287862835218949481
0.042822796054405552757
0.042678138485693239979
0.042276236849723994315
0.041704379323120127632
0.041114935862841213432
0.040605899914572592124
0.040047922352572713767
0.039731776763468194813
0.027992153363669697308
0.028052537374002463333
0.028067900769817199363
0.028065108384719952145
0.028035840824512919117
0.027908898631690135655
0.027690039141199822292
0.027532848415587826696
0.027443792182051469225
0.027413141091593186405
0.027412857582562715625
0.027451572920755670099
0.027639604818752817189
0.028172087477292662161
0.028730843740359314487
0.029187512488154085388
0.029554209836219130086
0.029844759802913060909
0.030086653847522851907
0.030305239885803587907
0.030519850474682357067
0.030741451737139199873
0.030956560424551353428
0.031151877169546433877
0.031308506478058349687
0.031417152216213238558
0.03147739859507265453
0.031497119820513938548
0.031495618784437719173
0.031475715157297926017
0.044876450840774642637
0.044874895941267305133
0.044864037586883412367
0.044841150051787237452
0.044826986978895637381
0.044819579405913877179
0.044813742538710836516
0.044802865066084204826
0.044780635662481707571
0.04473379550130136828
0.044625636424172977768
0.04433304377933596635
0.043820368578520105252
0.043279141089185714508
0.042741241003555051348
0.042275968762574868409
0.041809820335698993921
0.041569084205656997577
0.029595815438482303561
0.029730998650227168784
0.029784872328398763475
0.029791462034539365616
0.029777389222481222275
0.02970078899095778685
0.029491472147499406264
0.029310182742483158885
0.029202109523513555822
0.02915704918405764845
0.029152756734151321488
0.029170679855185125545
0.029257910272648030708
0.029544776517457505688
0.029955166399177519249
0.030328356552591959061
0.030670351438946894668
0.030982196763788386745
0.031274590806974256196
0.031563005873535970869
0.031857714093178973735
0.032167145660252430273
0.032472876526027594224
0.032747717919291180477
0.032959725193811365007
0.033094162432388128658
0.033158203147105255737
0.033171750512386591336
0.045989285345037392294
0.045852960509884695128
0.045772383060854814063
0.045734170705189862438
0.045727322602638974247
0.045733755261334885223
0.045771670081160849286
0.045885363835052907222
0.045979658413659488247
0.046020187511786679602
0.046024346979470671937
0.046012168548886303587
0.045946419964085417897
0.045701983383344885192
0.045106063517745216551
0.044566569870836077183
0.044031190565052703845
0.043761351391803496313
0.030437470802741707632
0.030623594727821064343
0.030708092603136390858
0.030726812922786898158
0.030721348193773131974
0.030683527208114097506
0.030575478808247933543
0.0304929261872198612
0.030460706579005403238
0.030462279266099453329
0.030504341366205219716
0.030698715519789903511
0.031243240510666486776
0.031768395314358086057
0.032135013507896381668
0.032357188933316051449
0.032470773256777933635
0.032519485272065828951
0.032548942200908113909
0.032598388005432063497
0.032713892921410775427
0.032953191841833553988
0.033247537846780257642
0.033558141815858290313
0.033833710773040405473
0.034034074286155409361
0.034143350279609567532
0.045973180343736680387
0.045854037996436204649
0.045800672048559198934
0.045792915022591605678
0.04580281815911556309
0.045861570614421885705
0.04608293425322653597
0.046421531095674054002
0.046676508792252727198
0.046839724804390074631
0.046923982623594845398
0.046949907884782135503
0.046947441123148483944
0.046918164585395452648
0.046793254290472360846
0.046398637136631129541
0.046141186191023739194
0.028834189893689247258
0.029663324174736580702
0.030443084341727426334
0.031034963376862428897
0.031464195164239712466
0.031768213392279004426
0.031996654626704652824
0.032206644139552542683
0.032432707892915149661
0.032684051462528382337
0.032948062696736925281
0.033199552415071470479
0.033412296902427848777
0.033562278375491451377
0.03363838836684567013
0.033654140857975460566
0.033640682845961236702
0.033549513663824470644
0.033188655226115165719
0.032653858995632716045
0.032279195159173192098
0.032073850628212920155
0.032000313163949356543
0.031997320536106620137
0.032044215775985568362
0.032279240059374214589
0.032999769263498034133
0.042423979770610437123
0.042271642985681985583
0.042225557379272256331
0.042228255163735739508
0.042276338275136035594
0.04249160638906836901
0.043230131082215336735
0.044343560330265471836
0.045305917192707004237
0.046087690468346313721
0.046683029997430285085
0.047113130177248906116
0.047390312271060761051
0.047584959096105890197
0.047660025889035249891
0.0477400474536001998
0.022954182954317992743
0.023203206667345203928
0.023971313897729870646
0.025018107237841837737
0.025978389699908451677
0.026828803228997846753
0.027545216403865386418
0.028115401375565604591
0.028535227535828846385
0.028817256891867527174
0.02897838457422741501
0.029045796468604893198
0.029057724254816490878
0.029045169793128908925
0.028965978755432920944
0.028666553888261739336
0.027986872290403790736
0.027342044162897653076
0.026809135899837365641
0.026409590766021354136
0.0261470051863527779
0.026007864302420503899
0.025960681901178964126
0.025958816958887492854
0.02599156980207855544
0.026146315083320409434
0.026686075559297920551
0.027696260170927737565
0.035748672991139339439
0.035685766593982433392
0.035668321073659491061
0.035670806666517777817
0.035692988127223455874
0.035785156536445546227
0.036103695349155202898
0.036846131185091147986
0.037645858243354653194
0.038362157989281157888
0.039099862391785818183
0.03966385633830609575
0.040270680065967900951
0.040622587970429169246
0.041107617062841328437
0.022264730879259491542
0.022618370847225253983
0.023139523713016699885
0.023650808237881706247
0.024140750113083857264
0.024587556160476885248
0.024968758003049065092
0.02527191751655338825
0.0254885412534721148
0.02562658267995375147
0.025699740072345062664
0.025726157710947172158
0.025729777491098858311
0.025724741923558329393
0.025699757108482428059
0.025609470597735623648
0.025415594295631331601
0.025241815402128570806
0.025109457925207866874
0.025026654616448259366
0.024989323242204503767
0.024982081671484142327
0.024994086613037664463
0.025070547192364726896
0.025356969573887857411
0.025932254065172931357
0.026476260663350011798
0.034583362661077546307
0.034571029324463507792
0.034574609100768337322
0.034600536520753601144
0.034706419615244149535
0.035050368435160496328
0.035532613559615157384
0.035984629579464799676
0.036372215819877887211
0.036751677451503483862
0.037025351135817986814
0.037320142001770757745
0.037478751903949836244
0.037698368427000521208
0.021932777179295814829
0.022272656473262281845
0.022600418876159527465
0.022919180100132757055
0.023227576746171298139
0.023522047334996090684
0.023795241288846261107
0.024038997389472925581
0.024248210562671901336
0.024412557212152762032
0.024529860939883772059
0.024600120821823414502
0.024629739147294112123
0.024637558478687024421
0.024633737877149588374
0.024600483416935117753
0.024464342444853529046
0.024260294644244246448
0.024113483534709344303
0.024031557755293756623
0.02400194608737948182
0.024000587801695998091
0.024024719607989651615
0.024141605929433433003
0.024516139987217903939
0.024987129374052296366
0.03310286344717042889
0.033108225211952529987
0.033143935321039395825
0.03328589388717290154
0.033661978417846794009
0.034031239095035747955
0.034375846758876602016
0.034640671058422195516
0.034900692971777502738
0.035068002609575904538
0.035266514038197069314
0.035347699964638171211
0.035512362406891116728
0.021734754334669530162
0.021988818996555057478
0.0222307460654855224
0.022463749234624463824
0.022683850693191075915
0.02288330463427507705
0.023055496273456266287
0.023190669507858165804
0.023286838594229017363
0.023345761936246697821
0.02337203462751752045
0.023381010799211541379
0.023380835364002712506
0.023367010342587198751
0.023297594819492905421
0.023165147081006667168
0.023059476725403781072
0.022992331657412490298
0.022961313120116639414
0.022955214196129291454
0.022964548914347598929
0.023024854817417870351
0.023246859306437935716
0.023622012048670110868
0.023969653723395208805
0.031992337847030143105
0.032018682683891214191
0.032129423535171106052
0.032435292412839690501
0.032730955604909704737
0.033009698954597488374
0.033207644614265445504
0.033416324724788039335
0.03354042510236483754
0.033707835537425283323
0.03378060161442945214
0.033939615557518794386
0.021149514036218019369
0.021416099219830168898
0.021657061120372887025
0.02186430919630168862
0.022034546786411871727
0.022168634914794062979
0.022270385251996274723
0.022348062181188028258
0.022403339650181288562
0.022441052281661596352
0.022461846362482121298
0.02247105457507632062
0.022474759834626704957
0.022472211873645165509
0.022450157828590409925
0.022405892316511070994
0.022376544149017466717
0.022364735841193982696
0.022366153820709933769
0.022393369254494137344
0.022516168092230566533
0.022824562156790666884
0.023138133087194572707
0.023417937149345476738
0.020485469136812942126
0.020682810215500904705
0.020881412632522425299
0.021084272970441839123
0.021288035602982643274
0.021487936728509304113
0.021674415024838095817
0.021834015576040647494
0.021953508013150799943
0.022029850768377625542
0.022065549913447991132
0.022075594574452697683
0.022072917634367441447
0.022041160412338747093
0.021921206561669407537
0.021777590872288355578
0.021693174005340636751
0.021661223932107072365
0.021660528857197720864
0.021687661037279735293
0.021826658474609433869
0.0222636157116677183
0.022747711306342979082
0.020227133255698494935
0.02042354388397394499
0.020609522198472451926
0.020776727127548959284
0.020916374784101358225
0.021019831755088574238
0.021088399870199347336
0.021123040548856757831
0.021134216477790190164
0.021134034981797160391
0.021115423005451373212
0.021030448946663764936
0.020858699393335299738
0.020722298349384746935
0.020637143240324125337
0.020599151622146309737
0.020592188724973151809
0.020601232085479953549
0.020659590619904327768
0.020890946149961925338
0.021371242106518435061
0.020075138043803134047
0.020086023064547955247
0.020088699481273442765
0.020088073216777146274
0.02008163803904864167
0.020056886476472579606
0.019991912410855450927
0.019917649644415634513
0.019852704846736134864
0.019807764455886479882
0.019785065137321648093
0.019779989432857778692
0.019785356273139136779
0.019822520130657175774
0.019969770046209627673
0.020294179546223322513
0.020608995200596714331
0.019486639659651281559
0.019472599484659479374
0.019415832440294353983
0.01932781053480199171
0.019265681328849860315
0.019233402477732839536
0.019224766230916817689
0.019228153849359060079
0.019256501548536652385
0.019377695491174035808
0.019711663904284339177
0.020067098678236704873
0.020369006813785062171
0.01868658150439217111
0.018660831670172565999
0.018589956265057040047
0.018525511178599789186
0.018487243333476757051
0.018472414432137203993
0.018472211212088220783
0.018486138373373438987
0.018560613952131425897
0.018833839715838952139
0.019270462001241321637
0.019639708947128142053
0.012662910551548734947
0.01217635205451179925
0.011868284801201790454
0.011751450304358757037
0.011739923053445764506
0.011777445487961285195
0.011983112743652020796
0.012413943380175852804
0.012702890941997118865
0.012840096456906232095
0.012878455405140404322
0.012878077668634933806
0.012859681338070931902
0.012834195989410804653
0.012828863683805822107
0.012834769486828450161
0.012871604704584557397
0.013010311666789387691
0.013472964761573957143
0.014191305702821926937
0.030198829884879575813
0.02961333320971184721
0.02833250976898665438
0.027489179870908386077
0.027121687952535281779
0.027052387831972089099
0.027089041455969253142
0.027335224822422305585
0.027799927073194185406
0.028044843842734690914
0.028111908141278355022
0.028107190779852801038
0.028053531875740712193
0.027991896490501086414
0.027980952254295841236
0.027993903420326142484
0.02805583587753240557
0.028246814447563488304
0.028822970054273571588
0.030165511863158574885
0.031573223397756859654
0.032801823285592307533
0.095677776355597599078
0.09547797473128193102
0.094569505586164975819
0.093255318990517060973
0.092687195626254881287
0.092647573340487593407
0.092817913897765766396
0.093599851676654924337
0.095501911790092611221
0.097031063458632230145
0.097991691915502665555
0.098564209383706427592
0.098901360720329886678
0.099165205104332077024
0.099574929634130726619
0.10044224310864874328
0.10250046183509900488
0.10540265129925247001
0.10841680623239448311
0.11121866225767668146
0.11357883782715190446
0.11553356256066339702
0.11712614558083012106
0.11842856331763933209
0.1194045055029396285
0.1200670494023139967
0.4780648652013986255
0.47746062641059311416
0.4764602485112708341
0.4762665094580764702
0.47671590072734032484
0.47891450797332874023
0.48618644433947449945
0.49877680096898424633
0.50991170299422550194
0.51834344648097863129
0.52378644826217402031
0.52708786234548066219
0.52979890243179916798
0.53356659749979029606
0.53954363815276373817
0.54807713897221499444
0.55867931627471123512
0.57041096168458493842
0.58221206309249562416
0.59324201820197319801
0.60307030550327367369
0.61167923337632024161
0.61919433610215268704
0.62580023946911544908
0.63143501100672705384
0.63605173742265186387
0.63946066110050192588
0.64177076648015873861
2.0219933978656841056
2.022041804092779671
2.0227999778921925689
2.0261379957924074979
2.0357307372974320359
2.0488475443829501366
2.0624904009247746473
2.0753292483618266395
2.0863692995005806985
2.095373497437754029
2.1030278706556222446
2.1105254548413969751
2.119146275295017201
2.1296804521830705603
2.142093265691639381
2.1556057540413897655
2.1689439841335271808
2.1808114823052267006
2.1903455751528788653
2.1973491170795029781
2.2021509214887289296
2.2054428306810862637
2.207984546716398544
2.2102129154070393469
2.21230794875596537
2.2141476883864976699
2.2157377384305423362
2.2170241620032480334
2.2183063716051574232
2.220071023839837121
4.402505803796316286
4.3925213376304386159
4.3837859567512520442
4.3758493558583850813
4.3680789925921210681
4.3598137149963251957
4.3506172905660465133
4.3405678045133599952
4.3302138195646779906
4.3203128328151780835
4.3115238577545733634
4.3041211193449404604
4.2978543633729318074
4.2920348884213046503
4.2857057595501579783
4.2779246851645877925
4.2680607310490961126
4.2559423347586049502
4.2419285188989812596
4.2267757794905955748
4.2113545773417122575
4.1964131636120125535
4.1824197513473428955
4.1695343328880669631
4.1576330923955504559
4.1465444463491110128
4.1360854323879276961
4.1263072208232793869
4.1173617825071628928
4.1093907075130600148
4.1022863962387843273
4.0955444559754710099
6.1221637771055190669
6.0929330273744541913
6.0636581696896802995
6.0346256887796627666
6.0061015004093301073
5.9781355516242520309
5.9505829163416583683
5.9233263947164802588
5.8964463511271985041
5.8701513727704810464
5.8444963748411895565
5.819325312972588371
5.7944201464012845548
5.7696121124762607124
5.7447621257048799848
5.7197368107425301531
5.6943570708218826937
5.6685997716669822566
5.6426744904331451735
5.6169832292242816152
5.5919536121135742235
5.5678973544197383205
5.5448929283259946743
5.5228098985699416446
5.501300054219765201
5.4799728468950181792
5.4585846321246949131
5.4371849335252466773
5.4159440995945171693
5.3949753659138943718
5.3741625469168807783
5.3532138617636304545
5.3318578310296764755
10.456067845315715203
10.354117663243405545
10.252692183058950803
10.153472512028844932
10.057754473637078974
9.9650702110154938396
7.127100784860431304
7.0903413272738031736
7.0532072464877417772
7.0161859418247685127
6.979683889017477938
6.9437193431861707893
6.9080257077771820562
6.8724927942992630747
6.8373720355749272315
6.8030671116159817657
6.7698053514760037075
6.7374960427261978424
6.7058356521411850437
6.674558713735692983
6.6434689978730903093
6.6123630855795854089
6.5811306145475469975
6.5497313754728239132
6.518328082954918834
6.487289934724053353
6.4570177373718316005
6.4277440178859119868
6.3994959788256631228
6.3720307837159984032
6.3449067289009013493
6.317728063955692086
6.2903568213830540756
6.2630189029809724133
6.2360889588994616872
6.2097517722366788462
6.1838224385142313011
6.1578721862610334981
6.1316491600203857359
6.1052452768936467109
10.31139413655510495
10.212241800114957968
10.11402875298180426
10.019401863157275656
9.9291925493311303796
9.8410048019758686877
9.7514152581275332921
7.001754115044097837
6.9575407946211687005
6.9137659686213712718
6.8719030041005231269
6.8322850646297048627
6.7945386492537709344
6.7583583351033498232
6.7239577121024218798
6.6917462628636821265
6.6615486146913243104
6.6323937375935200222
6.6030247981954612868
6.5725513040653291696
6.5406597093711553725
6.5074331679364165737
6.4731634444004635398
6.4384416785699594143
6.404287589863472796
6.3719499619602704144
6.3423780106228750952
6.3157330895056578157
6.2913139747051776141
6.2678340280095010684
6.2439288091156521787
6.2187375960913264805
6.1921822868660472139
6.1649355065527222663
6.1378216158843192929
6.1112233988391766459
6.0848737413722018275
6.0582811427505864899
6.0313547224052275197
6.0047607833336673622
5.9795337908366388291
5.9564063782869069996
0.00031647543953506240746
0.0003301796760130684379
0.00034485604096549135437
0.00035495363889290226138
0.00036079604040224457157
0.00036328360788670315765
0.0003637484198814476999
0.00036331829981704798563
0.00036027168192307920929
0.00034940575025188655607
0.00033401430765675769931
0.00011012422078219873459
0.00010536454290273057329
0.00010331423274977856409
0.00010293242121809112412
0.00010313744249724189042
0.00010433990878641179753
0.00010573826349133910892
0.00010612141802633813644
0.0001060201990199996768
0.00010509856407292816644
0.00010122633472662306993
9.4362104157718693499e-05
8.9317839956408110044e-05
8.6341381964749467411e-05
8.5090210874957266686e-05
8.4903312035922826767e-05
8.524310777876332795e-05
8.7363088334597053066e-05
9.5761158972193299258e-05
0.00010949481565074774085
0.00011926400985547911922
0.00012456214350717962768
0.00012635445840302988031
0.00012641644209479259518
0.00012522588249372468392
0.00012179444522403325233
0.0001200856196666890411
0.00011993861141885211455
0.00012089653995958842372
0.00012618283521353238787
0.00014106426766544359164
0.00015359311787252011251
0.00016023858770478551926
0.00016233847486028942604
0.00016229275633920713594
0.00016029392194172981893
0.00037025476772462831854
0.00036844861456955665599
0.0003602535672596278828
0.00034252324475767974071
0.00032807423275459037144
0.00031818538570468652294
0.00031252604974778828203
0.00031016029238877456742
0.00030976054650525773051
0.00031029974203610789785
0.00031381323944411001906
0.00032700154641181704675
0.00034518785912431324903
0.00035870499200909964797
0.0003675260891312718799
0.00037216819218668191135
0.00037380106182123904032
0.00037386308552789747611
0.00037271557525896510882
0.00036734424644349400121
0.00035275279663833333018
0.00011077802891911566667
0.00010748183744075856722
0.00010656020260598801316
0.00010664581309123177431
0.00010775414067834412164
0.0001110181093847289899
0.0001132051779463583434
0.00011381046757437213396
0.00011370965043820491583
0.00011262384467572059913
0.00010821830891551515667
0.00010228802160811047693
9.8641212875013047187e-05
9.707545808229093231e-05
9.6844045602759534254e-05
9.7312959379680359726e-05
0.00010019009972513980911
0.00011057165501335782551
0.00012371287054372626861
0.00013256163279185502793
0.00013719282280616411471
0.00013864489515021501597
0.00013857597303647842474
0.00013677201888722569762
0.00012949896861653206054
0.00012167702600265186211
0.00011770546171540894665
0.00011659345696216998056
0.00011675857782799157298
0.00011873527289760232341
0.00012691836684643331029
0.00013806955335057558834
0.0001449931261985256954
0.00014795264873756184838
0.00014846180674617809477
0.00014794977033701005808
0.00036386776683067543299
0.00036288064128326639329
0.00035764587644201132786
0.00034310324083332998822
0.00032952837155745905552
0.00032011202110794303088
0.00031453665165244237356
0.00031206309745144373505
0.00031153148258136368698
0.00031187867278292813467
0.00031451841026497440439
0.00032536373113033092812
0.0003438427143702358366
0.00035843478800505707092
0.00036865552507896811197
0.00037476647320420044315
0.00037759943736505622788
0.00037832704234363307393
0.00037814122611609478483
0.00037615927236885055148
0.00036965871945667070231
0.00011255796794092666989
0.00011226090165794592394
0.00011280305346730806575
0.00011597335285214764253
0.00012218790440430885003
0.00012585900035689019248
0.00012708298926136004509
0.00012708499486979374306
0.00012612752056346624168
0.00012174336622207384206
0.0001134713271517241392
0.00010756345793263935877
0.00010427845269752926362
0.00010305027599038989552
0.00010296361275200912266
0.00010360384107040237448
0.00010702450853475750051
0.0001129780952458354985
0.00011663043837425472933
0.00011809620522272302719
0.00011828354703458159253
0.00011782895772672566815
0.00011524081822569847344
0.00011113495298543113877
0.00010907751648098550177
0.00010861007435220919575
0.00010893519288639168664
0.0001113913667066870341
0.00012025162920376547646
0.00013037601707959560449
0.00013680110238467265999
0.00013979651542832846438
0.00014047943090887116103
0.00014017585955387521206
0.000370442847310922124
0.00036605043437435455349
0.00035278131380529526191
0.00033972423629326405081
0.00033094518332829327102
0.00032602054918062458623
0.00032404209426784941163
0.0003237718770942669402
0.00032441836593819829183