/*--------------------------------*- C++ -*----------------------------------*\
  =========                 |
  \\      /  F ield         | OpenFOAM: The Open Source CFD Toolbox
   \\    /   O peration     | Website:  https://openfoam.org
    \\  /    A nd           | Version:  12
     \\/     M anipulation  |
\*---------------------------------------------------------------------------*/
FoamFile
{
    format      ascii;
    class       volScalarField;
    location    "0.0155";
    object      nut;
}
// * * * * * * * * * * * * * * * * * * * * * * * * * * * * * * * * * * * * * //

dimensions      [0 2 -1 0 0 0 0];

internalField   nonuniform List<scalar> 
106891
(
1.0307664649580184949e-05
1.0299022475341326632e-05
1.0289102691927655243e-05
1.0275881542209181892e-05
1.0252781108293566357e-05
1.0203565976694723983e-05
1.0126469207197752706e-05
1.0051152763375550129e-05
9.9717150514230305206e-06
9.8956152777561810454e-06
9.826406961217424679e-06
1.02875504820468004e-05
1.0353628909415182524e-05
1.0404959902848754893e-05
1.0440290878514102372e-05
1.0459569249524765212e-05
1.0464864235377539025e-05
1.0460962369538804071e-05
1.0452988490356407834e-05
1.0439730020423520945e-05
1.0407199458744051962e-05
1.0358924603641979432e-05
1.0322581764934669925e-05
1.0299164399495668997e-05
1.0285908943375641323e-05
1.02782213434431339e-05
1.0276198455866894152e-05
1.0296396339940053853e-05
1.0378870770449780757e-05
1.0489867678881412317e-05
1.0587646371937367145e-05
1.0671801236949038453e-05
1.0740925369077311197e-05
1.0795000999927219763e-05
1.0835254099704406028e-05
1.0864515245679677073e-05
1.0885426118203519232e-05
1.0900593125671784184e-05
1.0911349072832033857e-05
1.0917639799468020789e-05
1.0919671768579345027e-05
1.0917135041125441768e-05
1.0911477237573516652e-05
1.0903872906165559879e-05
1.0894020443137228599e-05
1.0874965776052125991e-05
1.0825205543678860927e-05
1.0749881902947831539e-05
1.0690453270433711858e-05
1.0859592761007100324e-05
1.0870995579391706077e-05
1.0876413557767233663e-05
1.0877307472503642427e-05
1.0874537098858779097e-05
1.0869307469836763673e-05
1.0862759879523216738e-05
1.0855359105353123441e-05
1.0847605875048375263e-05
1.0839420556196064792e-05
1.0830340328077107161e-05
1.081896002083914486e-05
1.080118730787719477e-05
1.0763660384901758301e-05
1.0691076454924236126e-05
1.0608612692891122961e-05
1.0527398570214997181e-05
1.0449352785487090107e-05
1.0372724025600936026e-05
1.031295579859769201e-05
1.0915723102827999796e-05
1.095101536134741139e-05
1.0975132206457242258e-05
1.0987397198263610456e-05
1.0989102306099192701e-05
1.0984045832166685515e-05
1.097586193298863377e-05
1.0964389275669054129e-05
1.0940800772735954078e-05
1.0899864576806865652e-05
1.0865648086311077868e-05
1.0841061154591720875e-05
1.082569592719085146e-05
1.0815974960947743561e-05
1.0809968323848726399e-05
1.0815201259585927238e-05
1.0859271070208150543e-05
1.095439721956026726e-05
1.1043145345539459872e-05
1.1123091650594525075e-05
1.1194167852377754003e-05
1.1256177481427920894e-05
1.1308982435847354372e-05
1.1353029667335428138e-05
1.1389223450278241311e-05
1.1417383160366589986e-05
1.1437944271294742454e-05
1.1450325114117844861e-05
1.145532088000071635e-05
1.145348846454607895e-05
1.1447511535319034222e-05
1.1439303823071520814e-05
1.1426992561655125396e-05
1.1399443457782255316e-05
1.1332040736424866276e-05
1.1257852223425781696e-05
1.1408045352066128772e-05
1.1421180095482615996e-05
1.1427923869729295759e-05
1.1429625944958419367e-05
1.1427416844942963416e-05
1.142237793124046481e-05
1.1415684072860624921e-05
1.1408069765114673438e-05
1.1400008108259304199e-05
1.1391622915099313475e-05
1.1382549491493885356e-05
1.1371695112314452467e-05
1.1355988370813510925e-05
1.1325775221686190552e-05
1.1256897920314819946e-05
1.1164541194790777821e-05
1.1072302215095297082e-05
1.098610754451775989e-05
1.0898587917320607304e-05
1.0832593334026710351e-05
1.1489874928394123153e-05
1.1529262052444247473e-05
1.1557574518922430942e-05
1.1572732974962585752e-05
1.157484211272645272e-05
1.1568864963440587108e-05
1.1559361343891435983e-05
1.1542723281330641535e-05
1.1502099794849797082e-05
1.1444261699946189096e-05
1.1399082353139963395e-05
1.1366453609936688946e-05
1.1344597943527138709e-05
1.1330836739909178455e-05
1.1321406042126915431e-05
1.1315376703692344394e-05
1.1321102085313320619e-05
1.1365697177773872707e-05
1.1465160067952652901e-05
1.156158655025228548e-05
1.165197985758087453e-05
1.1735123909597763755e-05
1.1810136531615620444e-05
1.1876536644931530486e-05
1.1934055733683409951e-05
1.1981781216793467262e-05
1.20190182890562415e-05
1.2044296391512841356e-05
1.2057749854335540651e-05
1.2060085520395211959e-05
1.2055104913111747711e-05
1.204645115899592424e-05
1.2031312823755449141e-05
1.199173412578999535e-05
1.1911249484577717892e-05
1.184334935108497662e-05
1.2017741550314145352e-05
1.2022623593516840258e-05
1.2022321936404747943e-05
1.201818348046654382e-05
1.2011665873167049186e-05
1.200388373745006264e-05
1.1995535130017944314e-05
1.1986968710140144103e-05
1.1978019985796832159e-05
1.1968281762150628666e-05
1.1956639075992069108e-05
1.193980101961598693e-05
1.1907130666263087543e-05
1.1830471122408968388e-05
1.1724777559258274295e-05
1.1623454046993623995e-05
1.152905459881175839e-05
1.1438783598002760133e-05
1.1374970758514638111e-05
1.209945830879790748e-05
1.217339659150266515e-05
1.2225841838533218516e-05
1.2254266429713281167e-05
1.2261843438003961875e-05
1.2256897589818334577e-05
1.2246885337666660743e-05
1.2228353298298699699e-05
1.2179758470600285643e-05
1.2098460130231342781e-05
1.2031415037834963504e-05
1.198223319853759462e-05
1.1950046626905843592e-05
1.1931013370465653607e-05
1.1920229576271673487e-05
1.1913447107055850848e-05
1.1916484323105803046e-05
1.1950450875188579994e-05
1.2049370996989644097e-05
1.215741889739551621e-05
1.2258096897050394723e-05
1.2350583897024550715e-05
1.2433812963216833638e-05
1.2506222111556564237e-05
1.2566955161348321545e-05
1.261504262271837558e-05
1.2649325443655626614e-05
1.2669747223887965705e-05
1.2677646326192324849e-05
1.2675746970530854559e-05
1.266843908165124415e-05
1.2657501590721925746e-05
1.2634344237701870722e-05
1.2575146054535259261e-05
1.2608888812770399507e-05
1.2626833260628535626e-05
1.2635727210923405057e-05
1.2637541466275505924e-05
1.2634244120978744926e-05
1.2627702768195589342e-05
1.2619464372137221859e-05
1.261069474363591116e-05
1.2601598669801888542e-05
1.2591910006853280417e-05
1.258138075135415008e-05
1.2569082936900964812e-05
1.2552268438008927032e-05
1.2521902029380145815e-05
1.2449768301780982907e-05
1.2339688856388109661e-05
1.2231373825995141454e-05
1.2132775479986491628e-05
1.2038820243305645586e-05
1.1975241752849877255e-05
1.2708749914934440377e-05
1.276017891345108939e-05
1.2799785350096001281e-05
1.282433177830883589e-05
1.2833897781714625981e-05
1.2831368348781897425e-05
1.2822891232298586778e-05
1.2811008185896794625e-05
1.278653692608673258e-05
1.272747551187567061e-05
1.2662648869203642636e-05
1.2614753706043279472e-05
1.2583661865484243179e-05
1.2565516279103907741e-05
1.2555003935741903929e-05
1.2548718863783232041e-05
1.255644098961428788e-05
1.2611396388035664423e-05
1.2747384763318621626e-05
1.2877827068078951211e-05
1.299001152166852489e-05
1.3083998200133661627e-05
1.315984280675157767e-05
1.3218025882996419052e-05
1.3260366525314886758e-05
1.328809484185283863e-05
1.3303466118545773713e-05
1.3308550645107639621e-05
1.3305731495254128456e-05
1.3298224098391226694e-05
1.3288131442035916113e-05
1.3270786568547171045e-05
1.322846570924983287e-05
1.3299306633763664266e-05
1.3301235092690976068e-05
1.3297214089155406938e-05
1.32897105182255719e-05
1.3280885606194603132e-05
1.3271493671060745313e-05
1.3260934491848432485e-05
1.3249872446129471712e-05
1.3239195466181001288e-05
1.3228263073056221208e-05
1.3215961591324552828e-05
1.3200242606429312743e-05
1.3175199611274510719e-05
1.3120815975747403924e-05
1.301826084539553357e-05
1.2906994488512148054e-05
1.2807065517641458809e-05
1.2700723770977540231e-05
1.263007754307686989e-05
1.3374119335993870272e-05
1.3387236921458364164e-05
1.3390744719230907617e-05
1.3386135356177372482e-05
1.3377357046535370838e-05
1.3366043716027954828e-05
1.334551279386751557e-05
1.3302209631983788306e-05
1.3259140852362294829e-05
1.3228293162149716903e-05
1.3209576930144378119e-05
1.3198667721784146313e-05
1.319306354565562907e-05
1.3205898236131084289e-05
1.3277855169443952699e-05
1.3403327068109183816e-05
1.3517719959028747726e-05
1.3618326652770522398e-05
1.3705272866198957375e-05
1.3778764551282527792e-05
1.3840986847464166809e-05
1.3894141797659833993e-05
1.3938336585828560923e-05
1.3973747244999021571e-05
1.3998725274536217913e-05
1.4013117278843674384e-05
1.4017352954367775833e-05
1.4013402984104745975e-05
1.4004585547954506087e-05
1.3993203111114225863e-05
1.3973255359789708366e-05
1.3924729850344839317e-05
1.3965777254630094305e-05
1.3962281752526840102e-05
1.3954934149965694744e-05
1.3945922482315596628e-05
1.3936157370296434237e-05
1.3925249357950799877e-05
1.3913485168156655618e-05
1.3902284437256508734e-05
1.3891241869100409221e-05
1.3879612463822513945e-05
1.3865945727502183865e-05
1.3847346752236746283e-05
1.3814495937940625449e-05
1.3740084151396346791e-05
1.3637409940124762159e-05
1.3531261783194908538e-05
1.3437886498615452083e-05
1.3335872613879947958e-05
1.327381213657522754e-05
1.4147663838775636951e-05
1.415314080894987278e-05
1.4147214158590147074e-05
1.4136696078416879192e-05
1.4119564100462362349e-05
1.4077948761472845648e-05
1.4012890528827860002e-05
1.3963292306885139729e-05
1.3930942612621846581e-05
1.3913437905717183031e-05
1.3903677592855289398e-05
1.39037343972052163e-05
1.3941287712828460201e-05
1.4064851981415519625e-05
1.4193924202748618813e-05
1.4296471321832934808e-05
1.4376117450975886854e-05
1.4436663461788075752e-05
1.448503465385113644e-05
1.4527479346338409641e-05
1.4568697352977174142e-05
1.4611330388277425196e-05
1.4652188054173298867e-05
1.468816228441049103e-05
1.4714867624153029003e-05
1.4730200944095414925e-05
1.4734133629934661054e-05
1.4728549483406141844e-05
1.4717983403820303538e-05
1.4703147643504831658e-05
1.4645359571880252293e-05
1.4634939288883569349e-05
1.4623021844601284599e-05
1.4609138522976863829e-05
1.4596683027596787959e-05
1.4585344589592610294e-05
1.4574279686493142323e-05
1.4562411761411920912e-05
1.4548717044507796813e-05
1.4531056556889209306e-05
1.4503510802667855131e-05
1.4446143688449483681e-05
1.4352497834702863486e-05
1.4253700460486467094e-05
1.415497006741317584e-05
1.4067899753935708692e-05
1.3980286941423497588e-05
1.3930226382314814444e-05
1.4915108631325013535e-05
1.493885517099782094e-05
1.4942073131094345595e-05
1.4933379034674209429e-05
1.4919518850527340297e-05
1.4890093380383146121e-05
1.4827323502556091767e-05
1.4771327822073153843e-05
1.473374748216283715e-05
1.4712080244636506344e-05
1.4700742618975117811e-05
1.4695001591645549504e-05
1.4706611324491460308e-05
1.4768013009980901387e-05
1.4859940898887832552e-05
1.4941897763951708932e-05
1.5015522113152477492e-05
1.5081216904201309275e-05
1.5141697520420565958e-05
1.5200777950721366358e-05
1.5260949648105052805e-05
1.5324224457284364053e-05
1.5386207128072998764e-05
1.5440516156990979809e-05
1.5479752597811455338e-05
1.5500612432080740528e-05
1.5504899764211324531e-05
1.5497328043895654357e-05
1.5211553914488814751e-05
1.5178373512211553115e-05
1.5154440362185304337e-05
1.5137550500873406305e-05
1.512588605957894938e-05
1.5116433515367782916e-05
1.5112145484437182445e-05
1.512035126143704721e-05
1.5125445914618460642e-05
1.5121666218108256374e-05
1.5111879613525546411e-05
1.509941989943299063e-05
1.5078250851382325078e-05
1.502797263612647239e-05
1.4919523817091062337e-05
1.4819642928834846931e-05
1.4719980324424655605e-05
1.4664526054403639803e-05
1.5508222403095652968e-05
1.5544886236036050217e-05
1.5555602883813909046e-05
1.5549584523024698667e-05
1.5537424630314939847e-05
1.5517136271308392857e-05
1.5479072575442900711e-05
1.5447351708224931561e-05
1.5428401568682683281e-05
1.5418050497058815559e-05
1.5417888003463084781e-05
1.5455910817691061431e-05
1.558129360052891435e-05
1.5701009327772293042e-05
1.5780576499794088022e-05
1.5824188627966842769e-05
1.5841020289948808027e-05
1.5841920897241366901e-05
1.5838070089333516948e-05
1.5839036855926729282e-05
1.5855930366035066664e-05
1.5902672314028015147e-05
1.5962422436292337662e-05
1.6025701717871014909e-05
1.6080268773319405249e-05
1.611671029368340414e-05
1.6131442032479740239e-05
1.55935390391960116e-05
1.5562411594479759236e-05
1.5542484153628990002e-05
1.5530344592232381967e-05
1.5521215952678895207e-05
1.55202941104838213e-05
1.5546665345715317334e-05
1.5592896623495057257e-05
1.5624919112544111073e-05
1.5641453079833347249e-05
1.5644728058822859721e-05
1.5638230498353790344e-05
1.5626976041214267428e-05
1.561130168717704409e-05
1.5579851225973566223e-05
1.5503435043019357073e-05
1.5449513653434629896e-05
1.5497156242881402919e-05
1.5707117962360010678e-05
1.5901449025080185415e-05
1.6044339696854244438e-05
1.6143851029296544381e-05
1.6210501843857792878e-05
1.6257433166641377381e-05
1.6299360231016248219e-05
1.6345068870971686921e-05
1.6396849259903900555e-05
1.6451496153677962496e-05
1.6502726416097828588e-05
1.6544096695061869087e-05
1.6569779524920755302e-05
1.6577140533494564363e-05
1.656956539060057236e-05
1.6554786888416745462e-05
1.6521004206803559082e-05
1.6420900700277767705e-05
1.6276666377822196941e-05
1.6171601654100236777e-05
1.6108718533588269278e-05
1.6078949650179664814e-05
1.6066990445855090384e-05
1.6067492641787627767e-05
1.6114751958520493982e-05
1.6281808200286448549e-05
1.5358465149377966531e-05
1.5320057931430342756e-05
1.530097926740970135e-05
1.5290813105266627117e-05
1.5288797837778743183e-05
1.5316700763155552249e-05
1.5437702341451000509e-05
1.5624477553509318652e-05
1.5782375662134726405e-05
1.5907143920215390946e-05
1.5998653254275087363e-05
1.6061208166526372358e-05
1.6097329319867479655e-05
1.6119258817657985342e-05
1.612082081538878696e-05
1.6123176866157774921e-05
1.2037372629010381094e-05
1.2093751170260637806e-05
1.2283098475297805614e-05
1.2539799001291496931e-05
1.2769462396695893317e-05
1.2967936533589067614e-05
1.3130987752621688913e-05
1.3257158182514884248e-05
1.3346653944403367523e-05
1.3403267251590620786e-05
1.3431460937380311155e-05
1.3437816446258040175e-05
1.343128547403424224e-05
1.3419098269587611692e-05
1.3391611247443745806e-05
1.3313346290563028801e-05
1.3145632832301330765e-05
1.2984176838449485835e-05
1.2847967970152646478e-05
1.2742875147840166213e-05
1.2670424154784287298e-05
1.2627771234265972665e-05
1.2607468857376457859e-05
1.2598226750559272753e-05
1.2597340900080194746e-05
1.2625786571596030809e-05
1.2745943312540636359e-05
1.2975864602868743099e-05
1.2264676017079862715e-05
1.2245306563013027873e-05
1.2233781200449439988e-05
1.2225704264999187075e-05
1.2220981258597566452e-05
1.2228128627173108601e-05
1.2273484113403295006e-05
1.2390132890310197707e-05
1.2515265832264183636e-05
1.2625045381679869739e-05
1.2737098669668510303e-05
1.2819798724346504753e-05
1.290863721841890403e-05
1.295597576443291588e-05
1.3024228553648958831e-05
1.1620985014826901781e-05
1.1704426850889254895e-05
1.1830264385648755162e-05
1.1951965857558654021e-05
1.2066790286815192075e-05
1.216956962972740158e-05
1.2255128199667009753e-05
1.2320844475067413155e-05
1.2365039812278635919e-05
1.2389944457896378933e-05
1.239905728949226503e-05
1.2396848006918442393e-05
1.2389121635854942032e-05
1.2379313136483159882e-05
1.236473511765300457e-05
1.2334534741335519012e-05
1.2279261754799337657e-05
1.2228680965472079202e-05
1.2188071351067167363e-05
1.2159466812694090667e-05
1.2141918067722465058e-05
1.2131701772111643499e-05
1.2126149915990869885e-05
1.2136115628878015811e-05
1.2196383504960711658e-05
1.2325339292256714708e-05
1.2445360201557203935e-05
1.1824797365741292242e-05
1.1814456300300399817e-05
1.1806856944570381899e-05
1.1803044795388734209e-05
1.181273739772901714e-05
1.1862564382845197753e-05
1.1935620225680088375e-05
1.2003015982155296562e-05
1.2059147999024483094e-05
1.2113535428491137993e-05
1.2150155847728694582e-05
1.2190018331862742732e-05
1.2207449487996817859e-05
1.223474467210184829e-05
1.1306016676408239997e-05
1.1385386569349291994e-05
1.1460897242803723078e-05
1.1533440544155933773e-05
1.1602744301124558285e-05
1.1667992635523821688e-05
1.1727452854615289207e-05
1.177922831790188758e-05
1.1822205054064854757e-05
1.1854007620282958592e-05
1.1874242378515328017e-05
1.1883013917763022489e-05
1.1881930818000439919e-05
1.1875571901715431864e-05
1.1866415008735164274e-05
1.1850233312069191778e-05
1.180935932004587847e-05
1.1751827025688769886e-05
1.1708023547722322107e-05
1.1679938373402454091e-05
1.1664583824383898062e-05
1.1656129256944613174e-05
1.1653831335447429037e-05
1.1673860053424106842e-05
1.1755597850028828109e-05
1.1859810764887807437e-05
1.1340405336695397708e-05
1.1333439432236864806e-05
1.1331622405571354132e-05
1.1347781360427902566e-05
1.1403600654002973519e-05
1.1458089386285333076e-05
1.1508021535296519613e-05
1.1544290035197549377e-05
1.1579543271803568086e-05
1.1599238047384245802e-05
1.1623990129613190114e-05
1.1629299218202237697e-05
1.164830004164327533e-05
1.1032644174955023281e-05
1.108924312579929852e-05
1.1142352256900768569e-05
1.119284056256439603e-05
1.1239770027366868769e-05
1.1281283903155353085e-05
1.1315833603543719093e-05
1.1341119791724132743e-05
1.1356753037587445353e-05
1.1363240622769362647e-05
1.1361749789073735992e-05
1.1356041703666827077e-05
1.1348111966188135575e-05
1.1336909743450774963e-05
1.1312310284207049288e-05
1.127228958623565703e-05
1.1238719270538809821e-05
1.1214518430487459936e-05
1.1199134859025238603e-05
1.1189849163087647299e-05
1.1184323237140882034e-05
1.1191120113027600461e-05
1.1236879168784841848e-05
1.1319314907677294489e-05
1.1394418698770400581e-05
1.0928364488254326071e-05
1.0925230631362550289e-05
1.0936351217851487052e-05
1.0980494076841901887e-05
1.1022832565658808693e-05
1.1062038220222354909e-05
1.1087490218374398753e-05
1.1114589821307670835e-05
1.1127498940077506633e-05
1.1147516108427391632e-05
1.1151804617217167198e-05
1.1170283404960396401e-05
1.0668114877110254095e-05
1.0727712179810217544e-05
1.0780449172682148894e-05
1.082444355903264995e-05
1.0859012872817219744e-05
1.0884486604255490377e-05
1.0901891987569940111e-05
1.0913320795917763928e-05
1.091922908717752683e-05
1.092083027796024752e-05
1.091830585714522348e-05
1.0912965899083721186e-05
1.090629811083775646e-05
1.0898128278864921629e-05
1.0885271191153350222e-05
1.0866990218307811115e-05
1.0852315532337631e-05
1.084189818980309185e-05
1.0834698184909195826e-05
1.0833703525529307613e-05
1.085564729438342441e-05
1.0922020631930324004e-05
1.0989210836354023867e-05
1.104781349735866304e-05
1.0292011818998429267e-05
1.0334295804573259106e-05
1.0376593195383320399e-05
1.041964289931868431e-05
1.0462607681842250401e-05
1.0504325364113602847e-05
1.0542495074817165708e-05
1.0573915760395042709e-05
1.0595481196398680201e-05
1.0606555527719853859e-05
1.0607811605221078945e-05
1.0602887391229613113e-05
1.059490838331149849e-05
1.0580004943309435708e-05
1.0543963701622352069e-05
1.0502021060945150011e-05
1.0474302752198797422e-05
1.0459269104172670749e-05
1.0451821776069949502e-05
1.0451049868716612347e-05
1.0477002273342036887e-05
1.057370627620353734e-05
1.0680753443431472731e-05
1.0017971344496646622e-05
1.0059518510807147448e-05
1.0098217267511030434e-05
1.0132080235702653142e-05
1.0159042694259571264e-05
1.0177094422191586813e-05
1.018663175553795921e-05
1.0187944562297644813e-05
1.0183587009911989355e-05
1.0176488848138124063e-05
1.0164994658575618157e-05
1.0137607706911253225e-05
1.0089123659814839821e-05
1.0049048281315174145e-05
1.0021358083143251885e-05
1.0005132652680950541e-05
9.9964767406531418475e-06
9.9917103513999972771e-06
9.9988123624544048435e-06
1.0047342665796922057e-05
1.0155071995634702678e-05
9.7629581002148274643e-06
9.7588334828605852303e-06
9.7527081908814522204e-06
9.7457857144167575641e-06
9.737473947841161301e-06
9.7247551603723823865e-06
9.7022951896631112474e-06
9.6775306149847143143e-06
9.6550152663847037244e-06
9.6373583192480734419e-06
9.6251220814932894593e-06
9.6171925912600729182e-06
9.6118069652386546982e-06
9.6140900223488670416e-06
9.6428299920437371618e-06
9.7140084766156823283e-06
9.7823009403899586649e-06
9.4092077599930397581e-06
9.399317593132163105e-06
9.3791594962767709301e-06
9.3513667413463055051e-06
9.3298102159941036107e-06
9.3154871400203604942e-06
9.3069111183245098451e-06
9.3012592318082687145e-06
9.3016038659329771006e-06
9.3241785969200805266e-06
9.3974674434500277348e-06
9.4753005549076083384e-06
9.5397390782807837934e-06
9.0320576915291315713e-06
9.0196078614611980455e-06
8.9962443431925805299e-06
8.974371512233209343e-06
8.958844366965706385e-06
8.9490130134143158747e-06
8.9427456467163041437e-06
8.9398780504991407912e-06
8.9515331271180825014e-06
9.0106130201259469965e-06
9.1081523840095515216e-06
9.1886972614521444095e-06
5.4635810254642449649e-06
5.353909707887210531e-06
5.2818753146527356733e-06
5.2520258860966887631e-06
5.2457526998999533116e-06
5.2504106811146525246e-06
5.292108778357321682e-06
5.3826742415343467002e-06
5.4413202059033210643e-06
5.4669428223729009901e-06
5.4713641574092322528e-06
5.4675031182965591958e-06
5.4598275523627018454e-06
5.4506097288588944668e-06
5.4456775350618060304e-06
5.4431328539489251707e-06
5.4471021798281867571e-06
5.472418789355809508e-06
5.5646237378653966993e-06
5.7071128244593949852e-06
8.2817939748085111682e-06
8.19585727251615707e-06
8.0111212403435517093e-06
7.8852170616002357784e-06
7.8266650828280654757e-06
7.8111269480361949672e-06
7.810930845225201515e-06
7.8406753927834206097e-06
7.9015970754818291383e-06
7.9309298604941319772e-06
7.9349663477477990652e-06
7.9288188207817735951e-06
7.9157866417991559077e-06
7.9015650329407826312e-06
7.8945123557870871563e-06
7.8908386420198249118e-06
7.8940323986026903424e-06
7.9152361763378924355e-06
7.989626540034986535e-06
8.1676295056809672005e-06
8.3503463548510137125e-06
8.5054915787477944323e-06
1.4480265843847547899e-05
1.4455119240884821852e-05
1.4376403123221096468e-05
1.4266043122412825028e-05
1.4212387099420199888e-05
1.419937174944699862e-05
1.4202453592480687993e-05
1.4251939857986980502e-05
1.4385872143581217961e-05
1.4490696309559072318e-05
1.4552258687223433898e-05
1.4584652494022174615e-05
1.4599480795398437144e-05
1.4608793958844107401e-05
1.4628707904248147717e-05
1.4681873984714189016e-05
1.482085901489646201e-05
1.5018713815863631952e-05
1.5221412309833953213e-05
1.5406249857445600206e-05
1.5558165012115549795e-05
1.5680672333286960332e-05
1.57775042347078426e-05
1.5854077822482542579e-05
1.590835156884464144e-05
1.594147632473906658e-05
3.1772941579530998677e-05
3.1730743994925586201e-05
3.1675254534267887111e-05
3.1646614811927478207e-05
3.1639320327149008532e-05
3.1689715337167661765e-05
3.190622892589117202e-05
3.2294216445063043974e-05
3.263031047710655987e-05
3.2876494575409653657e-05
3.3026001545352155883e-05
3.3107057059519327303e-05
3.3169006319691298455e-05
3.3263440194686057498e-05
3.3425737114905056135e-05
3.3665377248761347152e-05
3.3965656987438977204e-05
3.429654457520013843e-05
3.4625513353590486551e-05
3.492782576135168484e-05
3.5191645371915606028e-05
3.5417435927278049905e-05
3.5609688316963970225e-05
3.5774395272926572576e-05
3.5910307364545091034e-05
3.6016525012953523968e-05
3.608802493404666636e-05
3.612816299611536756e-05
6.4140657604928579135e-05
6.4096790509022273066e-05
6.4064079183177987872e-05
6.4071999450642354518e-05
6.4178360377254358988e-05
6.4339941507973182717e-05
6.4508925216681493875e-05
6.4664509517075181291e-05
6.4791346686883191262e-05
6.488598556676503982e-05
6.4959251056462009302e-05
6.5029674649094880369e-05
6.5116976120480036345e-05
6.5233174457530700824e-05
6.5377515334609750584e-05
6.5537876817348592029e-05
6.5694774945592219161e-05
6.5828655105912422738e-05
6.5926728838145589695e-05
6.5986306876034039252e-05
6.6012552374004695001e-05
6.6016000318592076034e-05
6.6008132319692131777e-05
6.5995562562563110046e-05
6.5981028302429157073e-05
6.5962712024089905694e-05
6.5940661562794911283e-05
6.5914037739202624758e-05
6.5887276139347581805e-05
6.5867611953713409091e-05
9.2902266651175247026e-05
9.2732442249108122364e-05
9.2575850811812333721e-05
9.242773913295067366e-05
9.2281463577492588786e-05
9.2130084094963293306e-05
9.1968995303950013811e-05
9.1798968198277130386e-05
9.1625734751965166587e-05
9.1457289177264127085e-05
9.1300646186188497947e-05
9.1158772512595352992e-05
9.1029058880564119385e-05
9.0904234326508604868e-05
9.0774175886290824392e-05
9.0628898483206766969e-05
9.046167793096365848e-05
9.0270618653668347918e-05
9.005942491570101318e-05
8.9836042688414731862e-05
8.9609693232856605554e-05
8.9388360105890831298e-05
8.9177099759102742595e-05
8.8977698533242627387e-05
8.8788904413691349389e-05
8.8608902465817099216e-05
8.8435706625360956264e-05
8.826980294980356172e-05
8.8112801765028540553e-05
8.7966265104576709679e-05
8.7829112762309949087e-05
8.7696001434067500247e-05
0.00010746458415021136997
0.00010713348427807115504
0.0001068017183933822671
0.00010647177616486383012
0.00010614606282907829442
0.00010582511619349366672
0.00010550769929949686745
0.00010519273837740439022
0.00010488089004276859764
0.00010457401316376804107
0.00010427267910474556254
0.00010397557254417387528
0.00010368077597268282098
0.00010338677181852330722
0.00010309231074020085877
0.00010279619342288545203
0.00010249679272999120418
0.00010219384725984366621
0.00010188917571082371197
0.00010158636212277614129
0.00010128929175666862787
0.00010100085869835321575
0.00010072186715738464923
0.00010045122981952718272
0.00010018583486985310435
9.9922127125952773185e-05
9.9657800811148728316e-05
9.9393239678812646807e-05
9.912998838296476628e-05
9.8869150979522413963e-05
9.8609747138019140586e-05
9.834913969544218813e-05
9.8084767831702914225e-05
0.00014302866545494658575
0.00014223115840707856563
0.00014143460034668188735
0.0001406505529409031376
0.00013988843063473247645
0.00013914559233359612297
0.00011373823391959688258
0.00011336607705395922673
0.00011299052114983730187
0.00011261542365138775264
0.00011224411900700773082
0.00011187686620690811916
0.00011151156318098761375
0.00011114724317226889973
0.00011078586688474574031
0.0001104307352400237419
0.0001100838038468425744
0.00010974445700124543833
0.00010941026599147725483
0.00010907905258557951708
0.00010874920907466731313
0.00010841908313331931346
0.00010808776529268027111
0.00010775488065839828222
0.00010742169212975254545
0.00010709119798824256271
0.00010676673558337531234
0.0001064503076206799588
0.00010614224263720287915
0.00010584063135322873349
0.00010554184978618118599
0.0001052425604571968396
0.00010494152453514018683
0.00010464054287133335043
0.00010434275835602546266
0.00010404982645529369282
0.00010376030654168496236
0.00010347062039945038349
0.00010317855932598099186
0.00010288477090091465024
0.00013942219751256453909
0.00013865440229028383966
0.00013789021890558446478
0.0001371477422470155391
0.00013643357543787423022
0.00013573214816455102965
0.00013501990126023270659
0.0001105867764548670645
0.00011016100250723471305
0.00010973761395890919447
0.00010932857597523550422
0.00010893690650439177598
0.00010855983944549979449
0.00010819492720093469768
0.00010784384022741632032
0.00010751000423844926472
0.00010719228978986350561
0.00010688311747094684221
0.00010657238134180167821
0.0001062527515460404598
0.00010592151879559446063
0.00010557922601609223505
0.00010522811319012456666
0.0001048728309767127956
0.00010452157398158994333
0.00010418456101294603657
0.0001038697806148093151
0.00010357888105305275666
0.00010330639460096597399
0.00010304189694620551889
0.00010277414228036944107
0.00010249585352900081412
0.00010220613096015670378
0.00010191036001042650446
0.00010161537412706672439
0.00010132452551324241323
0.00010103574162078568109
0.00010074492006779336582
0.0001004510841349600574
0.00010015959725313856182
9.9879089194406889349e-05
9.9615921267681757797e-05
1.022516274604782911e-06
1.0436035759505499017e-06
1.0658587789916142756e-06
1.0806492492621856096e-06
1.0887898057090472879e-06
1.0918050679131454898e-06
1.0917566886794528585e-06
1.0903636582838331825e-06
1.085076547092139973e-06
1.0679485339804556213e-06
1.0434062471445308618e-06
7.6238135109824343934e-07
7.4516236700625316146e-07
7.3733058624125574267e-07
7.3544051280708060431e-07
7.3565392883537529349e-07
7.3939917653046914564e-07
7.4383543266781927329e-07
7.446766135709821742e-07
7.4381071693301800589e-07
7.4007870073994790821e-07
7.2588373641916218033e-07
7.0035195416489506906e-07
6.8087372082274203037e-07
6.6893652385840901658e-07
6.6358621169686771191e-07
6.6238506820609226826e-07
6.6323517555797053534e-07
6.7091249839978920064e-07
7.0178894477933936495e-07
7.4995814407622027704e-07
7.8223444102634875985e-07
7.9892769122795939268e-07
8.0413421120720719872e-07
8.03785903701354438e-07
7.9947065577425946814e-07
7.8790349364626885345e-07
7.8178051763403595043e-07
7.8074523313950343358e-07
7.8328381774175780221e-07
7.9956303483462189153e-07
8.4474466710362915528e-07
8.8095079508929234297e-07
8.9925589868073064386e-07
9.0454418888113319358e-07
9.0380277764642531196e-07
8.9764317570017978724e-07
1.1427615587175323933e-06
1.1392134060479922138e-06
1.1258039849784072631e-06
1.0970176992209108282e-06
1.0728412075751453249e-06
1.0557689659011749635e-06
1.0455694852054568902e-06
1.0408514590377417283e-06
1.0394449246238902338e-06
1.0396132296266895981e-06
1.044697717122148088e-06
1.0655534048588361088e-06
1.094065279826351979e-06
1.1145615327550569163e-06
1.127447487485573486e-06
1.133794553367363578e-06
1.1355130730278627899e-06
1.1348264006220105668e-06
1.1323197312227125377e-06
1.123425396614392301e-06
1.100159613220065299e-06
7.8449983255852853893e-07
7.7216099198442099842e-07
7.6828391758526230119e-07
7.6805005004510394331e-07