/*--------------------------------*- C++ -*----------------------------------*\
  =========                 |
  \\      /  F ield         | OpenFOAM: The Open Source CFD Toolbox
   \\    /   O peration     | Website:  https://openfoam.org
    \\  /    A nd           | Version:  12
     \\/     M anipulation  |
\*---------------------------------------------------------------------------*/
FoamFile
{
    format      ascii;
    class       volScalarField;
    location    "0.0155";
    object      p;
}
// * * * * * * * * * * * * * * * * * * * * * * * * * * * * * * * * * * * * * //

dimensions      [1 -1 -2 0 0 0 0];

internalField   nonuniform List<scalar> 
106891
(
99414.208038185577607
99415.383578464417951
99420.817443835534505
99430.937670225684997
99445.462575164172449
99463.327980721747736
99482.770265607352485
99501.695613933072309
99517.967584338854067
99529.796592786471592
99535.835541110995109
99286.481336400582222
99254.376548281303258
99230.735943958323332
99216.399964823038317
99207.983635487646097
99202.822720504613244
99200.596396560431458
99202.739267670331174
99210.556315531852306
99222.590639459434897
99233.808003248952446
99238.295060836418997
99232.394817796288407
99216.564760466033476
99195.620503840676975
99176.19440571909945
99163.710738361987751
99160.56267307777307
99166.120511988890939
99178.500743714146665
99195.330351870972663
99213.183233547286363
99227.004508877798798
99232.681529580033384
99229.815035373176215
99221.869354870999814
99215.425953302983544
99214.969971761238412
99221.352444967691554
99231.8755156108964
99243.332229420862859
99254.660160595958587
99266.994203269496211
99282.752621976076625
99300.143338979250984
99315.814248057256918
99324.962317237615935
99324.797369874024298
99421.597911730292253
99426.222721319572884
99430.197275707570952
99432.757798469348927
99433.451159252974321
99432.206689973783796
99429.431686412004638
99425.992888114938978
99423.056614731031004
99421.902180497389054
99423.667080045532202
99429.090587460144889
99438.326697888071067
99450.898129835652071
99465.794781007760321
99481.618918521242449
99496.757986468233867
99509.519459007264231
99518.534796202569851
99522.96061777540308
99256.348869169203681
99232.867411204642849
99218.91880590650544
99211.190152025868883
99205.236018404597417
99200.537711628639954
99199.153109494858654
99204.204303732010885
99216.265450585648068
99231.446125453701825
99243.067144865519367
99244.770032996326336
99234.633279985500849
99215.984253018148593
99195.021559105429333
99178.541066171543207
99171.149400710884947
99174.365022219979437
99187.176476287611877
99206.513992542953929
99227.096512976160739
99242.098827739057015
99246.452212340605911
99239.044310576486168
99224.237453413647017
99209.665732009292697
99202.29105631710263
99205.288575817088713
99217.875204916446819
99236.967687668235158
99258.955507301681791
99281.610201587216579
99302.404984258842887
99319.170438433036907
99329.430374099567416
99331.605881439390942
99419.301642555146827
99425.326699941419065
99430.714433817425743
99434.659844377529225
99436.624176127617829
99436.479629717621719
99434.627442434895784
99431.962292564145173
99429.650904406997142
99428.909659932207433
99430.6909724247962
99435.46581262323889
99443.126887118909508
99453.087575680154259
99464.398148505628342
99475.867727855889825
99486.316009162561386
99494.671823177312035
99500.170016287229373
99502.485339322462096
99261.908919149034773
99241.121953508918523
99227.642262156878132
99219.667007216368802
99212.887908118311316
99206.841856294675381
99204.07277908771357
99207.545879590223194
99218.864509366700076
99234.863852709924686
99249.207807771585067
99255.194044095551362
99249.39897291084344
99233.68098975950852
99213.780384348414373
99196.401324941893108
99187.141489853223902
99188.969349845094257
99201.744268799317069
99222.016831523971632
99243.376985595299629
99258.678361701386166
99261.938233617867809
99252.009222836539266
99232.802069209545152
99212.167675400676671
99198.213126193397329
99196.681190917966887
99209.442656153492862
99233.602716562323621
99263.550922602575156
99293.226111283554928
99316.713775018797605
99330.465377342814463
99333.671137466473738
99328.687989628801006
99419.132468770985724
99425.782924628350884
99431.267945868443348
99435.008952415621025
99436.758192674606107
99436.70154694779194
99435.429416660859715
99433.840469086368103
99432.928754261258291
99433.586300327559002
99436.316805482711061
99441.102803530506208
99447.509987345649279
99454.717032289379858
99461.748539130247082
99467.777459174671094
99472.201836859065224
99474.667994061819627
99475.271650728303939
99255.939136128683458
99243.696954330065637
99233.988420708570629
99226.329610069282353
99220.49233639058366
99218.958139550042688
99223.506140053883428
99234.539174079400254
99248.395587015416822
99259.691852852527518
99264.016915370535571
99258.790329215858947
99245.277898706466658
99228.047188483760692
99213.026673895394197
99205.357214969946654
99208.240160373883555
99221.280759350105654
99240.700052599437186
99260.697357079436188
99274.657188210621825
99277.345489744155202
99267.464346683380427
99247.411678176285932
99224.372228661188274
99206.798564674565569
99201.508871389713022
99212.32054196196259
99237.431466807465767
99269.831090649415273
99300.492931498927646
99321.47054224339081
99329.287159676547162
99325.632227865455206
99399.603784853316029
99406.564349613152444
99413.862666219152743
99420.780191940822988
99426.537304210520233
99430.652626451614196
99432.890263646593667
99433.305218241177499
99432.395928884841851
99430.885667463648133
99429.543268733119476
99428.896904038731009
99429.33813589590136
99430.895192206662614
99433.244594280520687
99435.855361682246439
99438.192678091028938
99439.849852378349169
99440.616418472884106
99440.800838623486925
99276.933408171142219
99266.556192696807557
99255.387235448710271
99246.420307056221645
99242.265758777779411
99243.928571966709569
99251.701880185602931
99262.008392576084589
99271.094038788301987
99275.200855152055738
99272.278347800645861
99262.574118071221164
99249.14465159230167
99236.067897862230893
99226.974922038658406
99225.14193762432842
99231.879406846826896
99245.589853448924259
99262.908843293625978
99279.429415407284978
99289.858746176352724
99290.619583790525212
99281.473067797487602
99264.368380901491037
99244.622506472354871
99228.965156684280373
99223.288140479911817
99231.239923326749704
99251.809627701120917
99277.726594681473216
99300.547333808615804
99312.911567184739397
99313.80912609261577
99388.994167061988264
99395.848590330875595
99403.416630326129962
99410.910891021645512
99417.403918462892761
99422.054034737418988
99424.351544766279403
99424.196055341541069
99421.90362766967155
99418.020433907760889
99413.305022170447046
99408.664675081643509
99404.685173506295541
99401.796076214188361
99400.147091827820987
99399.63273397750163
99399.907566254289122
99400.619577550227405
99401.885510700099985
99294.29771297845582
99283.764186118947691
99274.829436100713792
99272.308819867306738
99277.192973280791193
99286.285687960975338
99294.527792640117696
99296.8466126981657
99291.295500352542149
99278.974303211580263
99263.404013270454016
99249.629625616158592
99241.718586854651221
99241.446431776494137
99248.761266389701632
99261.531611879501725
99276.280483083159197
99289.227837146827369
99297.92102012327814
99300.708412416497595
99297.60251924424665
99289.594937529909657
99279.063917562598363
99268.779578879562905
99261.62880456673156
99260.015216866566334
99264.965729559175088
99274.511075668851845
99285.326401000740589
99291.968681343656499
99292.733549076452618
99288.192080386696034
99368.062823065993143
99373.280628632972366
99380.382587462780066
99388.661727047903696
99396.951481672440423
99403.937104868673487
99408.364727237698389
99409.403492344878032
99406.784788012388162
99400.878045963065233
99392.663059387428802
99383.388968594328617
99374.357951847676304
99366.733257790285279
99361.276706549222581
99358.405532363176462
99358.134568243753165
99360.052336753782583
99363.787756108722533
99317.475714358632104
99311.242173953607562
99309.427167649162584
99312.805464157921961
99318.265581363142701
99320.537649726582458
99315.749973643687554
99302.547347999046906
99283.21440693391196
99264.615664343655226
99253.591055253564264
99253.367196718594641
99263.941401402917108
99281.410815297902445
99299.733625411623507
99313.076343012711732
99317.915142522571841
99314.092953253857559
99304.902805619363789
99294.925720555896987
99287.546782129633357
99285.581018895929446
99288.488936569119687
99294.004153847607085
99299.363755738828331
99301.129598671206622
99297.614633254881483
99289.812524754524929
99279.819288722603233
99270.340973483442212
99348.148567692871438
99353.5286041485233
99361.411495765758445
99370.583811845484888
99379.434219625618425
99386.184479066316271
99389.266816421601106
99387.775006338997628
99381.674624268489424
99371.805217283879756
99359.571827026738902
99346.840699303211295
99335.44795395041001
99326.85367011775088
99322.033073347163736
99321.260991605377058
99324.279829240200343
99330.523859696259024
99351.739503087141202
99349.342405200906796
99346.41298829545849
99341.932297955368995
99334.961093619000167
99323.112877864448819
99305.770319253089838
99286.554937324894127
99271.739589115531999
99267.740887207939522
99277.876762938481988
99299.847161688332562
99325.455616756298696
99344.473129303354654
99350.090569850770407
99341.906907523938571
99323.447490043079597
99302.164136121806223
99285.397155782207847
99278.535750269613345
99283.131925877925823
99296.104907216009451
99311.442113067460014
99322.199708924483275
99322.549018714227714
99311.71327467689116
99293.136810668205726
99273.062672515749
99323.407097474424518
99326.499212250695564
99333.273142878198996
99342.711982979832101
99353.091217968642013
99362.324653402305557
99368.345907145427191
99369.611618856637506
99365.498875287536066
99356.424202925147256
99343.695227652729955
99329.280122643773211
99315.432829851124552
99304.289457957376726
99297.394577107799705
99295.563683074200526
99298.740877119707875
99306.412719357118476
99383.417254472093191
99370.914656778128119
99355.924258388084127
99340.184482392534846
99324.729808654039516
99309.293572741327807
99294.983535595485591
99287.566713605905534
99293.236065906588919
99312.962375912218704
99340.697522693226347
99365.840050507496926
99378.572562246132293
99373.7425078075903
99353.520614357417799
99325.536525394199998
99298.630004817416193
99280.309851242942386
99274.125815331790363
99279.497898885529139
99293.294050794414943
99308.52882911945926
99319.262817246955819
99320.559136330499314
99311.506463406491093
99295.1571789370646
99278.561992096481845
99303.942007090896368
99310.109628117075772
99319.841758296402986
99331.447318941893172
99342.77376426383853
99351.55999264564889
99355.972898186926614
99354.931716136052273
99348.381513625368825
99337.303202766561299
99323.484922543968423
99309.175532328299596
99296.619587807246717
99287.796225735830376
99284.162632139443303
99286.239041883018217
99293.765653088819818
99413.322796013148036
99401.262836198293371
99381.128114992185147
99361.216150486667175
99346.361304394216859
99336.091750679261168
99327.393145247973735
99320.089778702749754
99317.47503566731757
99323.660081078589428
99340.190349719836377
99362.277374074459658
99379.685480789936264
99383.635289371450199
99372.522912592394277
99350.963912759165396
99327.035167457521311
99307.449247513592127
99295.053341735256254
99288.830972916664905
99286.755531856921152
99286.760198729898548
99290.381203762226505
99295.612766687088879
99300.504492544190725
99302.63825374127191
99300.94237148197135
99297.462554580182768
99308.398055624318658
99321.125028767855838
99333.53564107749844
99343.487766454738448
99349.249368073607911
99349.851270819533966
99345.18383627696312
99335.977222995948978
99323.67390131650609
99310.268713599740295
99298.018924960284494
99288.871250532043632
99284.371008592323051
99285.260313615464838
99291.569448067253688
99408.857785490472452
99390.713926592128701
99370.378582873774576
99356.418595876399195
99353.15774314837472
99356.650631001568399
99359.713660117457039
99358.197543871443486
99353.042037911756779
99348.795585423809825
99349.525809530779952
99354.234472654905403
99358.198933224804932
99357.002800338581437
99350.600087726008496
99341.754146377454163
99334.450093625782756
99330.703313967562281
99328.40543192284531
99322.665117707001627
99311.372409001152846
99297.019998964926344
99284.720573564976803
99279.891102528286865
99283.483249135373626
99291.754324837515014
99299.459954252786702
99303.056072042978485
99308.456155475432752
99321.504395840136567
99333.141702514301869
99341.743072462602868
99346.159931491551106
99345.869950826338027
99341.078270632904605
99332.686807480917196
99322.067667675713892
99310.836233889800496
99300.690562013711315
99293.157128075981745
99289.414625829274883
99290.012997970014112
99294.944719580686069
99367.063719920566655
99348.595457374161924
99343.650832652303507
99353.003102619986748
99370.592631897132378
99385.765116459908313
99389.74361662020965
99381.655538122737198
99366.75859993888298
99351.294285995623795
99339.339607673871797
99332.21902684700035
99329.41859437727544
99330.679202403902309
99336.64008057040337
99346.747157842473825
99357.265748624282423
99361.972769436746603
99355.725260343708214
99338.239218492992222
99315.158134723140392
99294.623799785636947
99283.258655082681798
99283.15645541138656
99290.668762617569882
99299.100628300206154
99303.734802690771176
99324.811866811083746
99335.193013166455785
99341.808397915781825
99344.03395699133398
99341.99197284928232
99336.395804694489925
99328.36567995652149
99319.24586275004549
99310.372991574418847
99302.881109568406828
99297.60205464916362
99295.139566078520147
99295.699593459677999
99299.342631728810375
99322.756383446219843
99326.697269688302185
99348.326513756503118
99377.767089363507694
99401.634369549501571
99410.193404325123993
99400.789364594500512
99377.988936112087686
99350.410181045721401
99326.722759327443782
99312.705693742260337
99311.034179452675744
99321.139132313124719
99340.689726508877357
99364.333899866731372
99383.951834088162286
99391.640870007191552
99383.869034208561061
99363.041517009638483
99336.586813608271768
99313.305157968963613
99299.463986364527955
99296.208618844000739
99299.098749352779123
99302.325540089528658
99302.147884449048433
99336.911653516464867
99341.41108946352324
99341.462560454863706
99337.744251157302642
99331.458924644903163
99323.935499813000206
99316.491711153910728
99310.056363202704233
99305.184761269018054
99302.117253712523961
99300.876198330748593
99301.403536770347273
99303.735916181452922
99313.173104290530318
99342.196979449392529
99377.771479747243575
99405.901508577808272
99416.455755495058838
99406.208715148051851
99380.127314837634913
99348.453608455500216
99321.47304002045712
99306.927165134286042
99308.730598475056468
99326.505722531175707
99355.090445819761953
99385.521240536880214
99407.578150847781217
99414.198767418070929
99404.392501499794889
99383.024486917260219
99357.837274664489087
99336.674811738368589
99323.483126397593878
99317.749623186144163
99314.55336658001761
99310.099289360339753
99303.3107246174186
99339.899759422463831
99338.513069342530798
99333.894393862021388
99327.488255136471707
99320.805726459133439
99315.019677515680087
99310.759224952169461
99308.097497367984033
99306.753931690109312
99306.392353762974381
99306.738811132498085
99307.60207371879369
99340.568131073523546
99375.395172197066131
99401.616943359927973
99410.312596665375168
99399.917984699379303
99375.813316839019535
99347.391435836994788
99324.225540965271648
99314.228264575649519
99321.392730712672346
99344.508037224091822
99376.583472501137294
99407.285628922123578
99426.672926623985404
99429.711440215818584
99418.003118275213637
99398.169720104939188
99377.543637165261316
99361.048115056750248
99350.110483524840674
99342.006514246517327
99333.551471038575983
99322.792738122036099
99311.127394761453616
99375.202051328946254
99394.267578548518941
99398.226784733313252
99387.765185397627647
99368.423248949402478
99347.472007655567722
99332.628444048605161
99330.243089556606719
99343.197148674458731
99368.99789714536746
99400.188150971705909
99426.694850838728598
99440.494866304274183
99439.346582484882674
99426.950308394618332
99410.130784627603134
99394.869445616015582
99383.550019055051962
99374.514508061663946
99364.7995588460617
99352.630458849365823
99338.754281096247723
99325.79125798039604
99387.138087484810967
99376.703938385340734
99362.470999130615382
99349.848754079299397
99344.291764666762901
99349.552370849589352
99366.63593541267619
99392.321369629251421
99419.721609431435354
99440.169398936195648
99448.373984723963076
99444.61032033713127
99433.538222471339395
99420.872627912467578
99410.670000322264968
99402.883956289399066
99394.889018245230545
99383.942701506253798
99370.305876460741274
99356.599462943384424
99345.587816402316093
99358.220453389163595
99368.416853625705699
99386.51511517293693
99409.337122397424537
99431.240880548080895
99446.029400474566501
99450.740917746777995
99446.822956204559887
99438.876007652535918
99431.006782099124393
99424.988772228476591
99419.169470515829744
99411.041345410791109
99399.284280439911527
99386.012321905131103
99374.738787649737787
99367.615879615623271
99434.458345023536822
99445.032251282435027
99448.493032240163302
99446.691700156428851
99443.185631412721705
99440.376759720456903
99437.764409029623494
99432.872967459916254
99423.870447523411713
99411.523678441517404
99399.302149208917399
99391.052240506469388
99388.175636607600609
99439.330162981612375
99443.184532280632993
99444.644275139638921
99445.99513654835755
99447.960351622517919
99448.359185851790244
99444.133961184619693
99434.136644379395875
99420.958251892880071
99409.44660704342823
99403.604250251853955
99404.367361344600795
99522.649986370743136
99508.459588838857599
99499.672999920687289
99498.539340547373286
99505.286992348948843
99519.441670826709014
99540.759279314719606
99567.488888739608228
99593.458715830740402
99608.49874600948533
99604.1540632811666
99580.38845024035254
99545.602947167630191
99511.302406434420845
99487.102240298656397
99477.732464790198719
99483.304781995873782
99501.085685553756775
99525.376818393735448
99548.812939653187641
99552.661839315085672
99533.818145943150739
99516.213896314860904
99503.443056572417845
99499.646624367116601
99506.007171561213909
99521.107125251321122
99543.200396485306555
99569.532786715280963
99594.404136543467757
99608.831392972148024
99604.631250631369767
99581.335214266116964
99546.461239116091747
99511.331620671102428
99485.988517241290538
99476.245384306952474
99482.54534589870309
99501.098008137152647
99525.314636636991054
99547.174024585692678
99561.195277729086229
99605.724134260643041
99584.705433117356733
99564.903709627658827
99544.256639117447776
99523.308109582299949
99506.774685843498446
99500.397880218763021
99506.333137791851186
99522.2729596295394
99544.964564219975728
99570.919910004304256
99594.725743243965553
99608.449082818900933
99604.465632056366303
99581.559761867203633
99546.529688561233343
99510.690776614283095
99484.694552635992295
99474.935508055918035
99482.196013125139871
99501.671793732894002
99525.861256036005216
99546.171356314094737
99557.791493772238027
99561.408766627195291
99560.588145631540101
99640.310251531773247
99618.026120056179934
99596.273456950759282
99575.744998475536704
99553.58850058176904
99529.53281399331172
99509.530089772291831
99500.788041896303184
99506.322788719102391
99523.092108147291583
99546.368136193312239
99571.994230311043793
99594.877349986752961
99607.902865100768395
99603.969372169900453
99581.354830970914918
99546.123708468163386
99509.605510216046241
99483.090473841133644
99473.635781759061501
99482.004008061354398
99502.687406347031356
99526.823102351932903
99545.756650513430941
99555.066952691689949
99557.172194103739457
99557.681023756071227
99559.191912854119437
99665.614777619746746
99651.711086588926264
99628.536997266608523
99606.110101245008991
99585.137012827341096
99561.58688003871066
99534.824656106924522
99511.641638657063595
99500.770891047228361
99505.934147793464945
99523.506268319062656
99547.33631972760486
99572.696455055120168
99594.905065424260101
99607.396006378956372
99603.538345369437593
99581.116313118604012
99545.553785570184118
99508.307339464445249
99481.337929548753891
99472.308370257975184
99481.888863156564184
99503.853857580965268
99528.164803057006793
99545.677345213189255
99552.852881706610788
99553.432228872028645
99554.781724646134535
99559.255691101963748
99562.750077486372902
99664.435172182289534
99675.051613903371617
99661.079277085809736
99637.07953703860403
99614.024936754998635
99592.762792588939192
99568.081987388068228
99539.02337996699498
99513.04438697216392
99500.425694594727247
99505.341536006308161
99523.701321931643179
99548.150402188432054
99573.342875897855265
99594.969245559797855
99607.056030836698483
99603.256298800028162
99580.881572108963155
99544.818405988495215
99506.870191543392139
99479.550840305775637
99470.973119973350549
99481.755681730632205
99504.965588952822145
99529.674693953391397
99545.984771954943426
99551.133808640093775
99550.403170907637104
99552.149658477079356
99559.350474079008563
99565.692561136209406
99561.266781301586889
99670.766304938137182
99682.548763657585368
99668.271508072852157
99643.514587314100936
99620.058468886621995
99598.630746643437305
99573.11717442709778
99542.119144803233212
99513.851799525684328
99499.885743959588581
99504.627792153187329
99523.687020849538385
99548.706025493054767
99573.811589182238095
99595.011986091340077
99606.942389154981356
99603.26657152500411
99580.856218834378524
99544.291035596994334
99505.530541413187166
99477.927524123690091
99469.758939948733314
99481.537513975359616
99505.998878316837363
99531.035443230037345
99546.454848295514239
99549.768809648856404
99547.88173818483483
99550.034391091190628
99559.34527619999426
99568.133599832057371
99565.029356284372625
99542.735964184510522
99331.631080253937398
99320.891845658275997
99293.892345713582472
99287.048232057582936
99319.816025484818965
99375.071493932060548
99675.487694209179608
99687.842209176495089
99673.200602657685522
99647.869105846664752
99624.081018270735512
99602.589703297635424
99576.524907117520343
99544.082635118887993
99514.2518273248279
99499.161254965642001
99503.994019381585531
99523.660610161779914
99549.108700528129702
99574.163950869900873
99595.127258706983412
99606.996922863196232
99603.403710113459965
99580.923998020327417
99543.876574901019922
99504.50830760471581
99476.58683595979528
99468.656947531388141
99481.318817396677332
99506.75984698891989
99532.163613436641754
99546.964857133934856
99549.010046226074337
99546.040461899785441
99548.53265137555718
99559.262903466296848
99570.25071214295167
99567.833470860525267
99544.976872632527375
99507.530548025824828
99308.433575612332788
99331.558033123321366
99320.843782388023101
99292.341651655209716
99284.640317571349442
99317.819963910165825
99374.520130671997322
99678.102873333846219
99690.680588295013877
99675.737202774791513
99649.973161510395585
99626.101743656443432
99604.647362017858541
99578.250774922766141
99544.976390228795935
99514.239263209485216
99498.760003333707573
99503.613138936605537
99523.587705250320141
99549.303083687642356
99574.369993213360431
99595.277190233100555
99607.145014032808831
99603.567857383954106
99580.96295134437969
99543.629524441625108
99503.880734242266044
99475.71385402897431
99468.045413692598231
99481.209202577272663
99507.233441560791107
99532.842306513717631
99547.281311815459048
99548.617345458638738
99545.134184645357891
99547.67020102358947
99559.382724741924903
99571.332621421737713
99569.243267739526345
99546.124159781160415
99507.704643102071714
99471.155657580267871
99349.290755529567832
99330.78165390783397
99312.86460551842174
99297.708781863810145
99287.277063598361565
99283.038041078005335
99285.758728668428375
99295.407403199031251
99311.131995550706051
99331.513917420714279
99354.282834441968589
99191.787682670837967
99188.849393277967465
99189.21126873625326
99187.995973892917391
99180.039965874850168
99163.377176077920012
99140.205039423584822
99116.363077255635289
99096.349406820096192
99083.759524624605547
99079.799938515337999
99084.864666086956277
99099.386769938995712
99122.774123758514179
99152.135823902761331
99181.937294849863974
99205.47526076262875
99217.787267235806212
99217.20753875997616
99205.962749440252082
99190.149075421708403
99177.843818033215939
99176.213742891137372
99187.781587830148055
99209.617294201379991
99235.280969737272244
99258.09507965449302
99274.405260094528785
99283.934312079494703
99287.313249758444726
99284.861022863449762
99276.347482297642273
99262.799698314964189
99247.461211330373771
99235.862577262814739
99232.475947029626695
99346.4431165176793
99354.088534330934635
99363.133466208339087
99372.576649996437482
99381.086202510865405
99387.236168031697161
99389.691454704923672
99387.400870253157336
99379.9491386032023
99367.709856597342878
99351.79643397036125
99334.000762161420425
99316.625483553565573
99302.145363899806398
99292.860300944477785
99290.475254372562631
99295.772157577623148
99308.49990507021721
99327.395691559067927
99350.483826309413416
99375.044650844414718
99180.947311163879931
99186.639904196519637
99192.487421606230782
99193.924686940750689
99187.295617190102348
99173.229910069858306
99154.971561322119669
99136.808009173357277
99122.413034041092033
99113.641149002767634
99110.973435560023063
99115.684336395424907
99129.183846678497503
99150.539718001004076
99176.05430902124499
99200.130237802834017
99217.326449584346847
99224.87082407347043
99223.43718196170812
99215.772517747434904
99205.784440484363586
99197.942093625664711
99196.137775832845364
99202.076235664906562
99215.046990802278742
99232.600705218341318
99250.524811698051053
99265.752168242775952
99276.673122498119483
99281.954130689104204
99280.818126622907585
99272.735103696133592
99260.485172843807959
99248.638123706710758
99243.150225148026948
99247.775201515018125
99338.257773201155942
99343.511028422028176
99350.969954628453706
99359.815550730170798
99368.897634209482931
99376.609249139844906
99381.353427145033493
99381.875561057342566
99377.395350610589958
99367.90631506164209
99354.355528580839746
99338.580201547054457
99323.037916960616712
99310.340016470145201
99302.859976408770308
99302.349447649641661
99309.605708413684624
99324.266721082894946
99344.829579586585169
99369.023786404519342
99393.956490335709532
99192.559527493373025
99201.040818366411258
99202.75164679667796
99197.458788128016749
99187.952801871986594
99178.344065967423376
99169.944718120328616
99164.377307087052031
99160.203524327123887
99157.99325097053952
99160.296441313475952
99169.246824722897145
99184.50344547041459
99202.210309196845628
99217.153116820758441
99225.581734434963437
99226.886349045686075
99223.60257670970168
99219.170617119467352
99216.088239736724063
99215.228803522346425
99216.230924618066638
99219.065460780650028
99224.356231391706388
99231.913634882323095
99241.611997165964567
99251.983665962994564
99260.550258292001672
99265.122253003151855
99263.957858462352306
99257.314734939063783
99248.76833313604584
99243.916081735587795
99248.010732194132288
99331.393895737142884
99336.529196273404523
99343.882533221854828
99352.436880762048531
99360.817946349605336
99367.420647483435459
99370.71624493325362
99369.693147590412991
99364.140895347780315
99354.715784945656196
99342.903825092696934
99330.899390239690547
99321.221786729045562
99316.149803537686239
99317.318304900705698
99325.490934873465449
99340.356647005435661
99360.500806727533927
99383.713192916111439
99407.267925513297087
99205.507420939757139
99214.066248727714992
99214.250137826689752
99210.815580446200329
99208.513110705360305
99210.291931308456697
99214.534671294415602
99218.38428607986134
99217.847696208773414
99214.368088305767742
99211.547136874127318
99212.530874583477271
99218.420818302693078
99226.184788017853862
99230.992405206037802
99230.101526365688187
99224.665885535563575
99218.653892162416014
99216.337579635292059
99219.524798091500998
99226.462849297517096
99233.410533036672859
99237.944584934375598
99239.085949251690181
99238.321873467109981
99237.893167639864259
99239.363813154821401
99241.283564989644219
99241.589913438408985
99238.79776472679805
99234.252874118639738
99231.554933387655183
99235.804447394169983
99250.638182106427848
99319.495398229730199
99321.53207003485295
99326.118169320601737
99332.594450287491782
99339.956229160510702
99346.909386726372759
99352.10583624803985
99354.473547025336302
99353.459134791337419
99349.281058469234267
99342.946008570710546
99336.053798701672349
99330.553128969506361
99328.366091978881741
99330.968384313993738
99339.11375523780589
99352.680562170091434
99370.619879210964427
99391.114499198141857
99411.884481229266385
99229.044567331293365
99229.081786537251901
99229.584470644796966
99236.048840453382581
99249.120375604135916
99264.864207370337681
99274.531347378288046
99275.00993386976188
99267.523436339586624
99257.534086297542672
99250.127116182862665
99246.890633002229151
99245.572586411770317
99241.842931221428444
99233.285617638932308
99221.576906547721592
99211.667256645261659
99209.326360714330804
99216.425524727994343
99230.238447753436049
99245.191941143741133
99255.473478392814286
99257.770886122263619
99253.250343170817359
99244.290701684411033
99234.590768349924474
99226.193795958170085
99219.481601830964792
99214.336688988405513
99212.165153422523872
99215.826964713283814
99228.883872260266799
99308.502656288750586
99309.315134533273522
99312.237063148379093
99316.759364690777147
99322.106468838479486
99327.417319502201281
99331.799111165353679
99334.51337058316858
99335.290858683496481
99334.488216233308776
99332.976251100219088
99331.959312078353832
99332.848455489453045