/*--------------------------------*- C++ -*----------------------------------*\
  =========                 |
  \\      /  F ield         | OpenFOAM: The Open Source CFD Toolbox
   \\    /   O peration     | Website:  https://openfoam.org
    \\  /    A nd           | Version:  12
     \\/     M anipulation  |
\*---------------------------------------------------------------------------*/
FoamFile
{
    format      ascii;
    class       volScalarField;
    location    "0.0155";
    object      p_0;
}
// * * * * * * * * * * * * * * * * * * * * * * * * * * * * * * * * * * * * * //

dimensions      [1 -1 -2 0 0 0 0];

internalField   nonuniform List<scalar> 
106891
(
99414.304922622177401
99415.70418623626756
99421.393720008563832
99431.762878980414825
99446.487564513881807
99464.462501168556628
99483.893898282796727
99502.679764924003393
99518.69694953164435
99530.181851075714803
99535.817234944406664
99285.068997349895653
99253.190149254485732
99229.906007933517685
99215.891268263192615
99207.662181851483183
99202.641560114047024
99200.623335934811621
99203.049700434276019
99211.141638810295262
99223.310813982097898
99234.421603244918515
99238.570926324100583
99232.249394137616036
99216.095870908669895
99195.058340731760836
99175.797467567317653
99163.657249277675874
99160.908775939024054
99166.809280923334882
99179.440754717652453
99196.405534503108356
99214.214554635909735
99227.793280328856781
99233.110437238079612
99229.95883973276068
99221.932590648953919
99215.640007789683295
99215.441014635536703
99222.048007410485297
99232.65726016505505
99244.110387360517052
99255.455170521643595
99267.883031489036512
99283.747149018774508
99301.146639711936587
99316.647702701375238
99325.464740878087468
99324.924057457479648
99422.087225796436542
99426.69427823497972
99430.599315781204496
99433.046628341762698
99433.601887678174535
99432.225494185840944
99429.360539141052868
99425.903809215786168
99423.036345667918795
99422.029974645236507
99423.998024714906933
99429.644354760617716
99439.081932254688581
99451.797950149644748
99466.759122052637395
99482.555732130305842
99497.570785896794405
99510.119174079009099
99518.853776064599515
99522.956358467970858
99255.217470926887472
99232.09661530253652
99218.469059486480546
99210.918696673310478
99205.039897052614833
99200.470070118171861
99199.342972365833702
99204.750382177022402
99217.097328276227927
99232.333880656544352
99243.71090847699088
99244.972419703728519
99234.395773670185008
99215.488220798943075
99194.538395293129724
99178.32090629528102
99171.343981374360737
99174.985503484887886
99188.141532162117073
99207.656119114486501
99228.170072830340359
99242.84168222307926
99246.722664962318959
99238.913492328341817
99223.945713256340241
99209.52781072986545
99202.523508066034992
99205.943236021106713
99218.875623750442173
99238.16781859229377
99260.21998255996732
99282.86607453157194
99303.525072639458813
99320.065757782911533
99330.009159229739453
99331.857952521240804
99419.812682765885256
99425.815502919343999
99431.129690094749094
99434.962359208439011
99436.797345752871479
99436.532210675009992
99434.597284423842211
99431.912395241248305
99429.651231457581162
99429.021662210638169
99430.95471554195683
99435.890796480234712
99443.693134951972752
99453.750772703802795
99465.097095163189806
99476.534116327544325
99486.884621303135646
99495.087339535471983
99500.391235288101598
99502.484403316178941
99261.024359704664676
99240.520688292643172
99227.294092220559833
99219.459548018843634
99212.726202643520082
99206.783905833639437
99204.262567056051921
99208.097025914525148
99219.744882577171666
99235.873009450835525
99250.059800942442962
99255.633705064290552
99249.368814010114875
99233.323021809264901
99213.340093507038546
99196.135234756191494
99187.251558959091199
99189.539927140518557
99202.70575058493705
99223.178685921098804
99244.454001735794009
99259.387054466322297
99262.122785070620012
99251.709998471153085
99232.259824592547375
99211.731774393978412
99198.177130246389424
99197.216177630616585
99210.545528544520494
99235.081132038380019
99265.155115898131044
99294.690336736224708
99317.834145153188729
99331.139431334042456
99333.936440054196282
99328.699275154882343
99419.593111420646892
99426.182185706609744
99431.568653685142635
99435.192477510965546
99436.826147125975695
99436.681296488066437
99435.366737946606008
99433.784465696007828
99432.926711683772737
99433.669635108701186
99436.49649046601553
99441.365928672283189
99447.827040712290909
99455.048679324187106
99462.055111160036176
99468.02662840289122
99472.36981424849364
99474.739819800975965
99475.236977207066957
99255.607507402921328
99243.470373884236324
99233.845035903170356
99226.277009570767405
99220.583034840674372
99219.283119510451797
99224.153505209629657
99235.434777928749099
99249.346875911927782
99260.485522297967691
99264.476880700705806
99258.857143356101005
99245.050877770103398
99227.725741730551817
99212.853053031780291
99205.519150153544615
99208.816016502139973
99222.221268861030694
99241.83176191453822
99261.733034502729424
99275.34384952406981
99277.510280182104907
99267.140139162918786
99246.785375182225835
99223.777850095386384
99206.567289956001332
99201.886715365399141
99213.363962904622895
99238.954808893016889
99271.477910912115476
99301.892580600208021
99322.370014749481925
99329.649811178620439
99325.618871453902102
99400.042094677366549
99407.006100028607761
99414.275826136494288
99421.122578196518589
99426.777176965159015
99430.776026292151073
99432.899106205266435
99433.216296402606531
99432.242964031145675
99430.705477177310968
99429.368950715739629
99428.752072797287838
99429.229787557866075
99430.823126172734192
99433.195294943318004
99435.812279097808641
99438.141770933216321
99439.784422065713443
99440.539033443652443
99440.715465703498921
99276.918215551821049
99266.462509013726958
99255.320260510925436
99246.498528882759274
99242.58990838075988
99244.510299991103238
99252.486611488668132
99262.855718854276347
99271.842153215475264
99275.714033933763858
99272.500058994002757
99262.555049039830919
99249.005059957082267
99235.949034270015545
99227.035137330502039
99225.495436286568292
99232.549927379121073
99246.510444934363477
99263.923053046688437
99280.324498136338661
99290.448892477303161
99290.78484716132516
99281.236333972279681
99263.867733238308574
99244.115893924114062
99228.730078998589306
99223.548373860205174
99232.06487572088372
99253.023675825737882
99278.991680116436328
99301.516318875015713
99313.406774985429365
99313.889071284313104
99389.428465060598683
99396.30140583589673
99403.851681058469694
99411.27759241280728
99417.655712158346432
99422.159522836547694
99424.294791545413318
99423.983609283488477
99421.562449098331854
99417.595420584941166
99412.837773885956267
99408.195673974551028
99404.251897194160847
99401.423060252098367
99399.848577470082091
99399.409256555358297
99399.750517589694937
99400.519357791607035
99401.834308512843563
99294.37584651231009
99283.803721341275377
99275.044344872381771
99272.81938633529353
99277.976720417645993
99287.139060437722947
99295.250182918432984
99297.276756865438074
99291.41796607869037
99278.869578902420471
99263.22867703063821
99249.55750282506051
99241.86850458792469
99241.854675009148195
99249.412699107575463
99262.341649556445191
99277.123276445112424
99289.966716325623565
99298.483643925312208
99301.043027829684434
99297.712109389307443
99289.520971990248654
99278.899698972396436
99268.637051769794198
99261.62237544907839
99260.235165328296716
99265.396390101290308
99275.054601221170742
99285.81259340030374
99292.239126357570058
99292.790413522496237
99288.11189597658813
99368.439959229464876
99373.742867127846694
99380.898465177364415
99389.174788047355833
99397.385529807419516
99404.213960125518497
99408.425343610448181
99409.223249930757447
99406.376521336715086
99400.281402943990543
99391.945734756809543
99382.634550492075505
99373.642655875592027
99366.120901462199981
99360.815770351036917
99358.118550103070447
99358.016982277316856
99360.074903882123181
99363.910676547282492
99317.699886627393425
99311.581637905663229
99309.9599851910898
99313.50878823880339
99318.954117270899587
99321.004886054579401
99315.892125878119259
99302.362764821067685
99282.890918004122796
99264.419706613116432
99253.716413974674651
99253.881007118776324
99264.773448482475942
99282.379044231842272
99300.608293445213349
99313.674795748505858
99318.16935479012318
99314.075959399182466
99304.76101936645864
99294.840584410121664
99287.617736712621991
99285.83913231297629
99288.85193757172965
99294.369051803456387
99299.594470187890693
99301.128996062849183
99297.394198443027562
99289.453273694685777
99279.459387366427109
99270.081500997461262
99348.557764250552282
99354.074506464326987
99362.035152840704541
99371.195660859739291
99379.931241204656544
99386.472829354563146
99389.276297072545276
99387.480133905497496
99381.100429691956379
99371.025980293998145
99358.69324366946239
99345.975583125720732
99334.704744435599423
99326.309964661020786
99321.733501644353964
99321.215847013387247
99324.465734486919246
99330.887074384736479
99352.149103739531711
99349.731514949045959
99346.752581379871117
99342.183878615454887
99335.068796162260696
99323.000640824466245
99305.503736151091289
99286.323513393406756
99271.776339330826886
99268.237984551524278
99278.853350140125258
99301.085677177150501
99326.566009670001222
99345.122143711545505
99350.140761565242428
99341.451230959399254
99322.730349877208937
99301.494651349566993
99285.058612025983166
99278.660241696910816
99283.682298280211398
99296.854165248325444
99312.100129582802765
99322.495718584235874
99322.338499612160376
99311.089335740820388
99292.32818565814523
99272.379877155268332
99323.689101472104085
99326.989405819025706
99333.933106503609451
99343.457470950932475
99353.807937493242207
99362.887359924599878
99368.646924012573436
99369.586934888371616
99365.14227604935877
99355.785756451849011
99342.872908958088374
99328.404265797478729
99314.642256195031223
99303.702752016368322
99297.092372886094381
99295.578571424804977
99299.059116665375768
99306.977688967133872
99383.468636690755375
99370.771939931146335
99355.706050935317762
99339.951504371376359
99324.521959222111036
99309.120374536883901
99294.978591189123108
99287.967828135850141
99294.16541208664421
99314.270510499671218
99342.023134769347962
99366.75898034250713
99378.779536806323449
99373.205817464608117
99352.465960656874813
99324.352376205890323
99297.676846639631549
99279.819718224316603
99274.183123365059146
99279.993780040284037
99294.021708014552132
99309.170541809289716
99319.599796116963262
99320.471334556103102
99311.035968002426671
99294.560397961628041
99278.101006172902999
99304.373178023379296
99310.774824118998367
99320.666100148227997
99332.312897683441406
99343.546643843787024
99352.116242751755635
99356.217338047426892
99354.825732540411991
99347.945674357702956
99336.618131308132433
99322.672585533640813
99308.388910018940805
99296.00851494492963
99287.475068695130176
99284.189372758381069
99286.615748693046044
99294.437943167315098
99413.513035332493018
99400.961415862388094
99380.643729836825514
99360.818863464271999
99346.154476569514372
99336.014828446597676
99327.38798814380425
99320.232006708160043
99317.899534024385503
99324.457863786592497
99341.269691537017934
99363.282364743630751
99380.207597768676351
99383.4701223703305
99371.76521052091266
99349.916337821821799
99326.022762840657379
99306.702469770520111
99294.627869946692954
99288.645602702759788
99286.75431219652819
99286.899290358487633
99290.667876503212028
99295.929789786925539
99300.789981206893572
99302.820431630432722
99300.990660530296736
99298.145322280804976
99309.242736810148926
99322.015755985223223
99334.338102664070902
99344.078677525219973
99349.542448694061022
99349.805101070625824
99344.815574435939197
99335.358717599709053
99322.924478925793665
99309.52314074304013
99297.410724601228139
99288.513661758493981
99284.338080102490494
99285.570634877090924
99292.182008990261238
99408.716931967792334
99390.273318621082581
99369.983136449518497
99356.345932531767176
99353.41635863474221
99357.008844803509419
99359.958346467465162
99358.272471684977063
99353.065149179805303
99348.928445459765499
99349.815299383422825
99354.526004958053818
99358.287259418182657
99356.81778344095801
99350.217837371194037
99341.343382182123605
99334.159432004074915
99330.543193554636673
99328.228229536180152
99322.314877048076596
99310.843327313021291
99296.505553547569434
99284.433900371062919
99279.985190218489151
99283.87599563227559
99292.261969740007771
99299.893554559981567
99303.337335590535076
99309.241739947494352
99322.257518263562815
99333.74855322969961
99342.117243637272622
99346.244630078595947
99345.654966881207656
99340.600596395641332
99332.023499986229581
99321.317648181327968
99310.10973100879346
99300.091588086928823
99292.772669742087601
99289.295466846291674
99290.16778318840079
99295.343963572260691
99366.527259456255706
99348.408635854037129
99344.002120603676303
99353.781766628177138
99371.465292807813967
99386.327733609941788
99389.803857312334003
99381.322304518602323
99366.259189619770041
99350.831237156366115
99339.01780390078784
99332.051882879051846
99329.398531228100182
99330.828451457127812
99336.97798894099833
99347.202319970572717
99357.62449568680313
99361.985617440979695
99355.278273180127144
99337.439302523329388
99314.290584860238596
99294.019937173725339
99283.104812222198234
99283.41978146143083
99291.131778348557418
99299.51407319799182
99303.984970844947384
99325.402716128577595
99335.578758586227195
99341.928452752050362
99343.871502322726883
99341.57331489007629
99335.781394946738146
99327.635111514784512
99318.488744191257865
99309.674338056982378
99302.309321471926523
99297.202369955033646
99294.935012651563738
99295.691695573666948
99299.513016319935559
99322.793576959506026
99327.472627302180626
99349.609350967788487
99379.072406521154335
99402.479794776576455
99410.330761738179717
99400.262149526170106
99377.070514327875571
99349.451723805483198
99326.033799918106524
99312.465125622751657
99311.288737763752579
99321.845411632806645
99341.688776569921174
99365.350546538771596
99384.641282648051856
99391.752406213985523
99383.37435871901107
99362.146525209755055
99335.63063340530789
99312.612777488277061
99299.188347916715429
99296.284199171233922
99299.302056291067856
99302.45664220933395
99302.146634646152961
99337.082376480480889
99341.295807997026714
99341.078641635453096
99337.150035085200216
99330.733676097064745
99323.165006244860706
99315.751653837462072
99309.403578254015883
99304.646666594533599
99301.704908098166925
99300.591000304964837
99301.239182976409211
99303.679487347122631
99314.230808066698955
99343.771116217729286
99379.322437322422047
99406.930819812972913
99416.675176772652776
99405.654442214610754
99379.120703193140798
99347.418751369914389
99320.779913079124526
99306.825466524111107
99309.302017274792888
99327.64649155891675
99356.508471913359244
99386.805337723795674
99408.360700766221271
99414.304845089529408
99403.906124810149777
99382.206125865966897
99357.011827417722088
99336.081305854168022
99323.190318278982886
99317.641188980982406
99314.432315285142977
99309.879134287344641
99303.029190150395152
99339.618488812848227
99337.987273680832004
99333.199683345970698
99326.71626725072565
99320.042639539256925
99314.326314769437886
99310.161431555767194
99307.597625528505887
99306.337912271832465
99306.039304060293944
99306.432230413236539
99307.337485276919324
99342.172097899208893
99376.917658466947614
99402.615414155225153
99410.563641992586781
99399.496683049597777
99375.02069398482854
99346.611559353797929
99323.811195048794616
99314.43146451949724
99322.275821568575338
99345.904462829115801
99378.141194809431909
99408.568829241688945
99427.369166591539397
99429.744462658258271
99417.556889424056862
99397.529115540964995
99376.970203063057852
99360.657805630544317
99349.855536916365963
99341.754846282026847
99333.193923067548894
99322.32465814864554
99310.677797669326537
99376.467084501608042
99395.038761023795814
99398.426504578950698
99387.514990701238276
99367.97355117436382
99347.119030243047746
99332.643360865899012
99330.810560347294086
99344.327043707322446
99370.485524968273239
99401.671119944818201
99427.796828006976284
99441.003269952561823
99439.299747965036659
99426.580857097069384
99409.701992984642857
99394.549082575089415
99383.336311108665541
99374.296361489206902
99364.462845235248096
99352.154872032770072
99338.220459005256998
99325.332624632676016
99387.230682436987991
99376.581192110053962
99362.341732757282443
99349.913203806296224
99344.719920107090729
99350.420371288244496
99367.886042791040381
99393.749333834304707
99420.997652281352202
99441.019962672799011
99448.700094375482877
99444.537943232178804
99433.284396800838294
99420.647395971769583
99410.545916833900264
99402.790337510668905
99394.696645094198175
99383.58072714706941
99369.839257636558614
99356.152087290829513
99345.260695628981921
99358.904548970836913
99369.407752959159552
99387.717616796726361
99410.568014531527297
99432.260162790698814
99446.658903601826751
99450.968506478064228
99446.791429195960518
99438.771524022493395
99430.955483460274991
99424.985145543221734
99419.111841423073201
99410.835795102902921
99398.936378209764371
99385.636985797260422
99374.457316369662294
99367.481344047744642
99435.225697208225029
99445.506779490868212
99448.706326028899639
99446.766437458194559
99443.25272724548995
99440.471864167280728
99437.82156749368005
99432.789460276864702
99423.616149127468816
99411.184662945277523
99399.021825014831848
99390.934803745185491
99388.216761460818816
99439.713459430728108
99443.436160633878899
99444.855061615890008
99446.228780905687017
99448.180113282360253
99448.448678176864632
99444.000746722857002
99433.804158108105185
99420.589582909116871
99409.214177540707169
99403.595796103370958
99404.535626005104859
99522.169575366744539
99508.096910844265949
99499.530707816200447
99498.664447257702705
99505.666738602463738
99520.079359379975358
99541.636263563137618
99568.488839645549888
99594.288051160867326
99608.794710789763485
99603.742622732854215
99579.395557114781695
99544.368029904711875
99510.179106501047499
99486.338281073607504
99477.433435731538339
99483.454588605920435
99501.576496184890857
99525.999242473350023
99549.345214855973609
99552.110390803136397
99533.239336474449374
99515.700642036375939
99503.151418027628097
99499.678507277800236
99506.35322493739659
99521.716943104140228
99544.017354078649078
99570.429864426521817
99595.131520113733131
99609.062141537768184
99604.185540673832293
99580.32271282208967
99545.190304861738696
99510.166001246223459
99485.198845295220963
99475.950919459733996
99482.722425812855363
99501.597708856425015
99525.898022117689834
99547.60263353389746
99561.365877045187517
99605.236888911196729
99584.195416898495751
99564.331608862310532
99543.586729914997704
99522.65247765967797
99506.340698603482451
99500.336675294864108
99506.642235089093447
99522.853080459521152
99545.722613598059979
99571.721760358661413
99595.355151833791751
99608.619966524100164
99603.993736230026116
99580.525244055999792
99545.231900911210687
99509.497032282684813
99483.899794271448627
99474.66809483988618
99482.41072825093579
99502.18399856222095
99526.403168242613901
99546.512917107756948
99557.857265141807147
99561.291166538969264
99560.372661919362145
99640.023546017575427
99617.559424120845506
99595.769830104065477
99575.155477779742796
99552.842747382048401
99528.745849681057734
99508.966242577604135
99500.642579612060217
99506.598202934939764
99523.650427349188249
99547.074023768596817
99572.713141718268162
99595.41959315710119
99608.017646718944889
99603.473021475729183
99580.304818325137603
99544.801111772641889
99508.39465948328143
99482.296624091643025
99473.409743379859719
99482.273025956426864
99503.218104035782744
99527.329718599561602
99546.009576180644217
99555.042764809244545
99557.021865309070563
99557.54305669911264
99559.048006468903623
99665.987090312075452
99651.466369714224129
99628.082144748448627
99605.622072339785518
99584.528626012717723
99560.772904086697963
99533.919194179063197
99510.960129311715718
99500.553384851926239
99506.185914107540157
99524.048455910393386
99547.997524636841263
99573.344763901230181
99595.373355373303639
99607.460086010629311
99603.023090567381587
99580.048519984135055
99544.206811559270136
99507.079616669230745
99480.552386752300663
99472.126309647937887
99482.214228480879683
99504.41611429353361
99528.637188636901556
99545.849534570414107
99552.740277731965762
99553.253224853338907
99554.708343101025093
99559.216055466604303
99562.486446401788271
99665.926414207584457
99675.507913610781543
99660.865922544136993
99636.637063950838638
99613.545450339501258
99592.147261674530455
99567.205946210160619
99538.018212149065221
99512.262454898169381
99500.151257036079187
99505.578905253816629
99524.238160126333241
99548.781161997219897
99573.935235944503802
99595.380105290823849
99607.081872631752049
99602.724345131355221
99579.795144315503421
99543.445713572931709
99505.627268208161695
99478.780644832571852
99470.830537878195173
99482.136108123231679
99505.562450735436869
99530.123556459497195
99546.084289372054627
99550.941980350704398
99550.194518487012829
99552.126709817515803
99559.410320176000823
99565.512719438178465
99560.508004833463929
99672.373752539642737
99683.059132662994671
99668.073221377082518
99643.078247229423141
99619.588527818777948
99598.006381447063177
99572.190435277487268
99541.031677573308116
99512.989210700747208
99499.566455116335419
99504.856039765727473
99524.226412057643756
99549.316482593028923
99574.363804529799381
99595.380536550277611
99606.944755381889991
99602.72103493216855
99579.754640349143301
99542.893868044746341
99504.270523094222881
99477.171456634518108
99469.647318729243125
99481.970445647020824
99506.62397718190914
99531.475720248854486
99546.485125971084926
99549.515998434566427
99547.646601999134873
99550.050990660485695
99559.496411030500894
99568.019458320981357
99564.274501670661266
99541.318588865251513
99332.567989736257005
99320.989285549672786
99294.09471952993772
99288.356103788421024
99322.353757961463998
99377.861013996749534
99677.168448082884424
99688.38133000547532
99673.010644409863744
99647.436561900991364
99623.614008283722796
99601.965276443545008
99575.562370624902542
99542.930716605929774
99513.332843560288893
99498.813341291664983
99504.224108671172871
99524.204627421408077
99549.705404609063407
99574.688025285839103
99595.471552090486512
99606.984242373393499
99602.850869033092749
99579.807950343398261
99542.461503917031223
99503.236793157964712
99475.834866683944711
99468.578373522963375
99481.789944818490767
99507.41711861656222
99532.590520693032886
99546.959733411858906
99548.697232596343383
99545.788581473883823
99548.584025711330469
99559.472923470064416
99570.184661923252861
99567.076685507563525
99543.511976733891061
99505.806344578013523
99310.146320432279026
99332.540296956678503
99320.924299751917715
99292.512599735986441
99285.95993097423343
99320.389731841438334
99377.38599478211836
99679.820583142442047
99691.234571418943233
99675.539492307550972
99649.537237431577523
99625.64755551086273
99604.018365927913692
99577.264354502651258
99543.792938377620885
99513.286310631374363
99498.400900384731358
99503.841190685183392
99524.132364412143943
99549.893954135171953
99574.881634203906287
99595.61221661932359
99607.124372813064838
99603.010208296909695
99579.836989042974892
99542.20498458732618
99502.600345619764994
99474.966194002932752
99467.984067280893214
99481.705519203969743
99507.904562207593699
99533.264690277748741
99547.252056638884824
99548.275593048543669
99544.872192232433008
99547.732272361332434
99559.642555872371304
99571.283625895026489
99568.489922503824346
99544.632632189706783
99505.936829477417632
99469.776341753720772
99348.350399250761257
99329.763715446737478
99311.893539230484748
99296.910679120337591
99286.766114104320877
99282.897832619710243
99286.026663419717806
99296.067237138398923
99312.115564490901306
99332.711806716382853
99355.562149851073627
99191.46568925329484
99188.75234520691447
99189.219556079813628
99187.883034778016736
99179.648991910435143
99162.725458882719977
99139.449783814299735
99115.698277586008771
99095.95675878104521
99083.741955641409731
99080.188973006806918
99085.687161354231648
99100.642916051045177
99124.388036972042755
99153.931937309418572
99183.65809109825932
99206.873443952456
99218.711921845999314
99217.651394656320917
99206.076256182990619
99190.209170512942364
99178.152042711401009
99176.959835939167533
99188.971851494847215
99211.066630338304094
99236.726334927850985
99259.344353515320108
99275.378020701056812
99284.647704616887495
99287.784516228857683
99285.070267773015075
99276.305371287147864
99262.579251538758399
99247.252129481217708
99235.884141242946498
99232.850455937194056
99347.081151932041394
99354.810493830154883
99363.899012778361794
99373.32894095274969
99381.75500637938967
99387.747576541107264
99389.971117738867179
99387.389658777086879
99379.62444518909615
99367.096953750267858
99350.971390784950927
99333.081376403220929
99315.753597977396566
99301.466959662939189
99292.500532369333087
99290.517086485910113
99296.244853124517249
99309.373662928861449
99328.583612231217558
99351.854253030323889
99376.443517135223374
99181.086954693266307
99186.894101113444776
99192.722205341880908
99193.964404555852525
99187.058740160442539
99172.775969801892643
99154.502050318958936
99136.433502548956312
99122.264779762568651
99113.757955403183587
99111.387404283173964
99116.460281028150348
99130.336096733008162
99151.968745557154762
99177.570512454476557
99201.512742234554025
99218.40226022193383
99225.586252462555422
99223.848289710978861
99215.999971633180394
99205.973848379842821
99198.233597923637717
99196.653575405565789
99202.860881589818746
99216.041201447471394
99233.688889394019498
99251.582697300036671
99266.684195464185905
99277.420383162840153
99282.466024609006126
99281.051288356815348
99272.722806182762724
99260.372815555747366
99248.643704896385316
99243.492126501121675
99248.513926737621659
99338.761473782855319
99344.141444732347736
99351.696224269311642
99360.591489541242481
99369.649262302395073
99377.244776479070424
99381.78903099623858
99382.043702983675757
99377.26003964006668
99367.482686321935034
99353.712363558166544
99337.832957199643715
99322.332727015484124
99309.825933875865303
99302.663824923816719
99302.55553469080769
99310.23667964564811
99325.278062460827641
99346.11952753784135
99370.45043596670439
99395.360289480027859
99193.095835133834044
99201.407300176826539
99202.879146556049818
99197.414885192280053
99187.858885293870117
99178.307394977091462
99170.02081844129134
99164.550112122306018
99160.436664639477385
99158.352554745681118
99160.8777149420348
99170.09269279401633
99185.536433608038351
99203.252299477826455
99218.032151209044969
99226.212331989940139
99227.305595713187358
99223.925263643046492
99219.496404087796691
99216.445258181818645
99215.605837349663489
99216.628738419851288
99219.498779430854484
99224.854029414025717
99232.522115013984148
99242.311084907123586
99252.705258462199708
99261.185466609022114
99265.575806379594724
99264.199323011023807
99257.399078124319203
99248.88900553502026
99244.296085344612948
99248.809260539434035
99331.884513484750642
99337.165239843117888
99344.621107024126104
99353.209696148973308
99361.537765632892842
99367.992046430532355
99371.058855722672888
99369.763969510313473
99363.943654404676636
99354.304463156848215
99342.382365324083366
99330.403923287813086
99320.890541975371889
99316.098564049243578
99317.621991039282875
99326.169594053688343
99341.368442754377611
99361.748607340079616
99385.060970611375524
99408.56308520224411
99206.215974766906584
99214.453792552580126
99214.43782485635893
99211.010077415878186
99208.876022238997393
99210.797276993660489
99215.134728989709402
99218.845346298388904
99218.121569573966553
99214.550242610624991
99211.769648590270663
99212.891647232914693
99218.905672245775349
99226.651497221100726
99231.30530787135649
99230.242089035906247
99224.742575007781852
99218.832754072078387
99216.709318732187967
99220.051232141675428
99227.023102234423277
99233.860139387426898
99238.210164624266326
99239.239016015417292
99238.451384347616113
99238.110976640760782
99239.69352465904376
99241.639618070010329
99241.888584095620899
99239.012628234660951
99234.482754903103341
99231.987071564624785
99236.621866580637288
99251.910291002495796
99319.781974267156329
99321.993921028974
99326.734112135542091
99333.310943143354962
99340.694708855415229
99347.576773416309152
99352.617686829296872
99354.772014039903297
99353.526967218553182
99349.150107824330917
99342.690723165782401
99335.778963281511096
99330.377161747557693
99328.395613246437279
99331.274894342306652
99339.721674075466581
99353.56288903010136
99371.698158607498044
99392.270943266063114
99412.98496706385049
99229.433898185670841
99229.375028381808079
99230.066639198179473
99236.853301875918987
99250.131285430572461
99265.789782741558156
99275.117100266725174
99275.183477444763412
99267.395862325036433
99257.325892426262726
99249.991744105398539
99246.843172680717544
99245.513579425038188
99241.665459869735059
99232.982055687200045
99221.300119715931942
99211.627892295800848
99209.65671479977027
99217.08594382503361
99231.026129581776331
99245.85218109638663
99255.842249137334875
99257.812369807186769
99253.075629439656041
99244.035699376516277
99234.4065619216708
99226.127419553027721
99219.517921710285009
99214.490105443794164
99212.531555481706164
99216.541282133141067
99230.057817431588774
99308.696683689820929
99309.681417362269713
99312.757062823366141
99317.384201807217323
99322.767277397739235
99328.036964113998692
99332.305893305441714
99334.85931143007474
99335.468838071450591
99334.531497616117122
99332.949499397829641
99331.949429882050026
99332.94772652775282