/*--------------------------------*- C++ -*----------------------------------*\
  =========                 |
  \\      /  F ield         | OpenFOAM: The Open Source CFD Toolbox
   \\    /   O peration     | Website:  https://openfoam.org
    \\  /    A nd           | Version:  12
     \\/     M anipulation  |
\*---------------------------------------------------------------------------*/
FoamFile
{
    format      ascii;
    class       volScalarField;
    location    "0.0155";
    object      rho_0;
}
// * * * * * * * * * * * * * * * * * * * * * * * * * * * * * * * * * * * * * //

dimensions      [1 -3 0 0 0 0 0];

internalField   nonuniform List<scalar> 
106891
(
1.1473913258625656475
1.1474297911018025431
1.1475039888940385957
1.1476186902172409443
1.1477683140374299597
1.1479453020959839993
1.148128911319779677
1.1483030268054454925
1.1484420319329053939
1.1485320777739465026
1.1485580236515022801
1.157189500703604601
1.1569443384727051694
1.1567836702714449082
1.1567119837771278057
1.1566963021420222368
1.1567084648845424866
1.1567383022949222493
1.1567892107828861015
1.1568641929037513094
1.1569455619754813736
1.1569893779696007741
1.156948783463264796
1.1567998413282287729
1.1565551664353457273
1.1562639434585284537
1.1559888796233148689
1.1557798751710435248
1.1556590860046100921
1.1556218893312646401
1.155653343627761398
1.1557352324282224032
1.1558417637308948667
1.1559352889061380587
1.1559867628834106235
1.155996937290344917
1.155994239499659848
1.1560271813405460506
1.1561210394573173676
1.1562680425402955819
1.1564312303109498536
1.1565738734438499868
1.1566831263094821125
1.1567703421857964408
1.1568617903425857385
1.1569509578209959955
1.1570176997341299341
1.1570269050733579252
1.1569560439189574552
1.1472502935137356417
1.1473151002501094098
1.1473796989396891632
1.1474326256611984132
1.1474668094023057208
1.147480075303600966
1.1474762033795855576
1.1474637319632658983
1.1474546513677779114
1.1474616065945586474
1.1474959995052085304
1.1475638776137271346
1.147667700906930488
1.147799014173191523
1.1479500963817861336
1.1481019478911294041
1.1482407737728592689
1.1483456314475266602
1.1484031951034918695
1.1484075276683618494
1.1569906576990101055
1.1568050124544608792
1.1567094630544094702
1.1566777042904021755
1.1566708328589958565
1.1566787848996440413
1.1567086041312371059
1.1567742299461418742
1.1568691665800401314
1.1569543173661058777
1.1569738931841617724
1.1568818568355352383
1.156673943083413425
1.1563910297208510602
1.1560962029660071249
1.1558536630389355526
1.1557049881913270539
1.1556623488133834776
1.1557153789145226952
1.1558365576984308554
1.1559815209849206852
1.1560955426301307014
1.156140738171429927
1.1561120369721014089
1.156046415276458017
1.1560026939410616986
1.1560280285800994537
1.1561347063139248981
1.1563024070239689145
1.15649533005884253
1.1566795962674278897
1.1568397312733591509
1.1569621831461724959
1.1570399838239395773
1.1570622975704818458
1.1570224388691896511
1.1472622467004509605
1.147337457999642707
1.1474115947548122474
1.1474726677534841102
1.1475127171036365592
1.1475287231144901678
1.1475244147798180361
1.1475085768277342169
1.1474937961979825296
1.1474926632193487297
1.1475159905252609871
1.1475680190728188013
1.147649921931305883
1.147751926455057303
1.1478677584370355902
1.1479789357453713539
1.1480764114907755502
1.1481437124572324571
1.1481739973637148378
1.1481653544104233333
1.1570715760361622859
1.1568943904822994728
1.1567850336802953937
1.1567314549851070993
1.1566982972216963699
1.1566787371908753279
1.1566861073589176367
1.1567339303647459214
1.1568239113433160803
1.1569215515648183512
1.1569724245911814364
1.1569262157187463202
1.1567660538833344219
1.1565208849186585649
1.1562499473985357046
1.1560162201485482125
1.1558685160207389231
1.1558295853947211373
1.1558942819813793346
1.1560307805616996113
1.1561850874071157858
1.1563006437926706127
1.1563332235948302618
1.1562783999764700837
1.1561701287683081585
1.1560687781480212255
1.1560299373611755414
1.1560857857786699388
1.1562366268592187968
1.1564480713459484029
1.1566721089704550263
1.1568652422507774702
1.1569913754755165591
1.1570357265866617613
1.1570034528209094393
1.1569194169444165787
1.1473416347623575096
1.1474224382027062852
1.1474909374414832275
1.1475391901949478779
1.1475632252108574072
1.1475650347336823209
1.1475506761644294063
1.14753064520714676
1.1475157599082308479
1.1475167838545259347
1.1475388081908928228
1.1475844471186491536
1.1476461745554487059
1.1477196407597747285
1.1477893920900452684
1.1478492442993757372
1.1478882604512217203
1.147901341548454468
1.1478910504436918849
1.1570309515864933836
1.1569127834934505028
1.1568268047149328215
1.1567720099275704548
1.1567446494391921963
1.1567582145606400967
1.1568164579547197679
1.1569096769088971222
1.1569978109128926658
1.1570330433631470513
1.1569829523309314023
1.1568367536658872297
1.1566187933336653515
1.1563795488816037693
1.1561765013884544029
1.156054504655602333
1.1560371697814895153
1.156115470037599291
1.1562524088529944066
1.1563968462737090892
1.1564958348134568578
1.1565111274290635901
1.1564387988358451054
1.1563025586887718532
1.1561606433483462286
1.1560746188369284138
1.1560873722352624782
1.156215039229432584
1.1564302760391227398
1.1566704997827770285
1.1568665025867712615
1.1569662052541771491
1.1569580299722768135
1.1568701868404562827
1.1471984375493917696
1.1472647076308277736
1.1473371619517931386
1.1474052493981790057
1.1474593603144451759
1.1474935366088010458
1.1475060583374341316
1.1474983310738318121
1.1474775657724920475
1.1474520632694977795
1.1474316709945826531
1.1474214799581539115
1.1474275706639702754
1.1474460390041054669
1.147476830063568487
1.1475080176985521518
1.1475357369814145336
1.1475515332843291283
1.1475510321815021175
1.1475393943973042354
1.1571960690119325044
1.1570716101272731091
1.156958227516514226
1.1568836609648736058
1.1568665898050771723
1.1569061984191670867
1.1569923293495731897
1.1570820539890014356
1.1571348089159105843
1.1571164367629933611
1.1570144445122603205
1.1568414583572850241
1.156635907057306456
1.1564434757768764506
1.1563022213615981038
1.1562413819016670313
1.1562686964455850536
1.1563650475656463978
1.1564967355614241828
1.156624091993254444
1.1567040390272922412
1.1567103214948586398
1.1566450970510617768
1.1565259230944207047
1.1563942505658060256
1.1562981614906524541
1.1562758287074244024
1.1563467326795002776
1.1564949310672973937
1.1566595739412572907
1.1567782657259111367
1.1568042268073985834
1.1567452958613304581
1.147202740325550252
1.1472550034316928436
1.1473119952327806015
1.1473638417207057127
1.1474010030367471913
1.1474168970581271054
1.1474085505649178618
1.1473785339225128777
1.1473322878409657477
1.1472782778080476973
1.1472240465506700069
1.1471799881588244929
1.1471474768751954709
1.1471320409228300541
1.1471281648875100156
1.1471338899313290316
1.1471433178934011821
1.1471486080822375087
1.1471562778234065672
1.1572990406102106054
1.157165879995285529
1.1570718293202340021
1.1570556529935069889
1.1571172241226406197
1.1572162481507997089
1.1572970441076169124
1.1573065945180269765
1.1572247315354868835
1.1570635215728850564
1.1568613131225851109
1.1566718375461659818
1.1565393415185929449
1.1564847292076427809
1.1565084676923151896
1.1565888128848758054
1.156690935610337867
1.1567787834639522426
1.1568313465698201181
1.1568376458033309273
1.1568030425435316122
1.156740000822004788
1.1566686161767487651
1.1566064703994918261
1.1565673218017078483
1.1565590261400022776
1.1565798647738279037
1.1566098549509691296
1.1566260141308404297
1.156595842682726305
1.1565230799252415039
1.1564286104580454584
1.1470816174766811368
1.1471077360491079844
1.1471467702827298218
1.147190667950740206
1.147228845179895762
1.1472514968774749633
1.1472496987985549843
1.1472198857070605715
1.1471619219030171344
1.1470821672264663871
1.1469894110550509225
1.1468967304125843309
1.1468117796961416754
1.1467469185806482557
1.1467031512219136857
1.1466842234147216484
1.1466886910066214078
1.146709772071563771
1.1467487598484007449
1.1574206893310206024
1.1573374613759941365
1.1573146379464236411
1.1573506270120150763
1.1574069682411103344
1.157427813604497091
1.1573726953471696888
1.1572276009845043898
1.1570160363396793102
1.1568039180040186054
1.1566581675556608655
1.1566140703758360786
1.1566756914204334716
1.1568091369867228302
1.1569582675984821929
1.1570670904017219538
1.1571002973366852906
1.1570545022004616875
1.156959098714204881
1.1568573548973595244
1.1567821907138178261
1.1567591534910977025
1.1567804783448107919
1.1568198642876568183
1.1568442699119450001
1.156817350842997083
1.1567236301401955245
1.1565775330224572492
1.1564098497217840666
1.1562593514177399445
1.1469434765477504179
1.1469451391903424664
1.1469613794483326519
1.1469825665531425685
1.1469980069823271229
1.1469957410732494196
1.1469673366686947702
1.1469078624373756359
1.146820833602314238
1.1467133377179412612
1.1465991979600820283
1.1464899423270269452
1.1464028634693212982
1.1463438200851183701
1.1463216724080225184
1.1463357430643690282
1.1463828311458970077
1.1464577215476907668
1.1576074725460447912
1.157559569244314801
1.1575332216568336996
1.1575082585811129476
1.1574626255554312237
1.157364195447880606
1.1572025818837359257
1.1570098182224104466
1.1568459105049042623
1.1567748835740585545
1.156833172287512923
1.1570054553924526974
1.1572213944159750465
1.1573896374037495605
1.1574450435818375293
1.1573766234322864221
1.1572094532646788334
1.1570062811913908174
1.156833228801800173
1.1567412967213051012
1.1567480029487997584
1.1568277248427421
1.156926238927366235
1.156978386281809712
1.1569289445588060161
1.1567695479865731656
1.156532937942258199
1.1562821941355256872
1.1467429617201891912
1.1467204748686703475
1.1467222276754842625
1.1467391089586920216
1.1467586285461643936
1.1467659604565971776
1.1467488940342402959
1.1466982600472086506
1.1466140335392498439
1.1465015940426390717
1.146374679384106976
1.1462479987801055259
1.1461408299208033501
1.1460670591354589209
1.1460364661206652315
1.1460557785463802993
1.1461175509187382371
1.1462213266597052197
1.1578143900349184836
1.1576842597411491909
1.1575513835302533305
1.1574202754203690713
1.1572907992379235509
1.1571554572104063574
1.1570245027663386139
1.1569512305259088691
1.1569929573414243773
1.1571614825984262165
1.1574070132599199034
1.1576377847559493617
1.1577653135226608772
1.1577390674049028441
1.157570570244752961
1.1573203159252620775
1.1570629227128499394
1.1568657797193124814
1.1567650894124905658
1.1567608524593564479
1.1568287052973276197
1.1569073623708978626
1.1569426646106382162
1.1568881587145876111
1.1567343591937764291
1.1565109667120241355
1.1562857975436358071
1.1465539185171034209
1.1465424209012542445
1.1465560531718208548
1.1465818490774559724
1.1466032386848397095
1.1466051403319947877
1.1465744464090803501
1.1465068557172728436
1.1464031657886242233
1.1462751458248650049
1.1461366849799972112
1.1460084459776560539
1.1459063564747697939
1.145846178741203536
1.145839249876804411
1.1458866400680551845
1.1459863299828669803
1.1580260782610098946
1.157868494800104342
1.1576785055092868593
1.1575142429123306265
1.1574023527637455899
1.1573275179162290094
1.157259413576448237
1.1571979396503018211
1.1571756993219504128
1.1572332087682486446
1.1573872523409332036
1.1575973749076671204
1.1577744971562593523
1.1578393300930229781
1.1577711766809777316
1.1576018302997190812
1.1573944121213870506
1.1572046040594428096
1.1570588918495641195
1.1569530526837796813
1.156874340749855179
1.1568065104368754348
1.1567608175096437684
1.1567165589560961525
1.1566568427530972141
1.1565644998143984612
1.1564396119955384634
1.1464387566574139043
1.1464353590533971072
1.1464479975138062162
1.146460956528629227
1.146460416238837654
1.1464340457632535841
1.1463783512842167234
1.1462931301168755027
1.1461876050473633892
1.1460726433538106495
1.1459652238706368177
1.1458816591490297299
1.1458360175449020524
1.1458402433180423508
1.1458961645768033222
1.1460043085620141845
1.1580310618368134801
1.1577888695815781173
1.1575630147552502525
1.1574196641649545647
1.1573849452272686467
1.1574163261858267937
1.1574486536068240294
1.1574464493974347956
1.1574198175502297126
1.1574094283604461353
1.1574501962957250978
1.1575317583127373577
1.1576106988243048956
1.1576447326478847
1.1576266042260512368
1.1575728946185239732
1.1575123047262845244
1.1574600692669216873
1.1574003928504572603
1.1572973551122152092
1.1571390050892187418
1.1569497081426198815
1.1567711030899152647
1.1566449860835990027
1.1565752569059453148
1.1565315577179875461
1.1564772447661233468
1.1563962774273266465
1.1463777883399086654
1.1463986778592536453
1.146412575629094821
1.1464081070799707618
1.1463765471747651148
1.1463164500757008213
1.1462300027038612171
1.1461262051638014814
1.1460170741155781826
1.1459141068932785501
1.1458338749603886875
1.1457834492416076877
1.145779718922819379
1.1458168815031819499
1.1459089294092796862
1.157534610695558408
1.1573284443154765455
1.1572678458596110662
1.1573483275648173141
1.1575086321371650389
1.1576524460822734675
1.1577048372635074802
1.1576608266420367332
1.1575672898088169571
1.1574785898425965502
1.1574286623517631156
1.1574252237748379191
1.1574577449938672213
1.1575158679770665149
1.1575963320871180962
1.1576876131821520755
1.1577552112013267394
1.1577488597764808986
1.1576313809137106503
1.1574071399412040329
1.1571279177857320963
1.1568628521058093028
1.1566652703120530177
1.1565507858119146167
1.1564905278051065274
1.156436258803537509
1.1563621969223865094
1.1464113860053144478
1.1463968009257936576
1.1463590081710923752
1.1462940103550183224
1.146205448650670089
1.146098894379688371
1.145984616842827819
1.1458739582186054928
1.1457763034319063955
1.1457042331541713587
1.1456606951676029382
1.1456587723206270724
1.1456922208399358265
1.1457768676720725409
1.1570448725790805078
1.1570596883459087767
1.1572407688128694137
1.1574962278496605528
1.1577095657057294709
1.1577999342225004931
1.1577490070034359704
1.1575997606821388786
1.1574270705274336546
1.1573024263225912822
1.1572682442961939042
1.1573368928832346025
1.1574916152051284435
1.1577010713917201823
1.157911964254565218
1.1580532897247555191
1.1580622419748025642
1.1579168791859608678
1.1576457969888600541
1.1573173657780826407
1.1570078634326022016
1.1567693510995220585
1.1566109313840680084
1.1564981388096085002
1.1563908021107800472
1.1562711557835230192
1.1464284285540990993
1.1463502979053803443
1.146246935982743409
1.1461272778881506085
1.145999811084238873
1.1458776149523199894
1.1457700185449690711
1.1456853794121442114
1.145628647467815453
1.145602745534932243
1.1456100947457408257
1.1456503832380171559
1.1457294657132286453
1.1569367872924660734
1.1571905780334068581
1.157506834715469779
1.1577640855440658463
1.157878199433582056
1.1578265997097778595
1.157655923776604201
1.1574543820357516832
1.1573066032773908773
1.1572718048205195007
1.1573732564684331425
1.1575959336856391779
1.157884666147367847
1.1581551096774092002
1.1583175168672141808
1.1583141898315827412
1.1581426201947533361
1.157851007507959773
1.1575114311113581245
1.1571948590709184579
1.1569379455826993564
1.1567396667871907567
1.156564317236402184
1.1563896461109608449
1.1562189079090801069
1.1463326512322684625
1.146204150993479276
1.1460685567916182315
1.145936157615347728
1.145821357149909403
1.1457310530707205398
1.1456713936682358934
1.1456415031227276113
1.1456423578674419517
1.1456692476779231082
1.145725701997767132
1.1458083428937269055
1.1570981600502323605
1.1573986865319185746
1.1576352872905371072
1.1577343079563910955
1.1576870310569598033
1.1575432828929514972
1.1573842886516922945
1.1572889672063866318
1.1573175867055358612
1.1574925405818370372
1.1577892142413186427
1.1581341610560904609
1.1584285530986395685
1.1585825648494474382
1.1585534696701378365
1.1583593021120981437
1.1580626934266462502
1.1577337490050281232
1.1574224001467194878
1.1571492314829203707
1.1569005130405458637
1.1566595108615402854
1.1564208864236453778
1.15620807912992829
1.1573764115517648499
1.157554836794424169
1.1576201562791184063
1.1575805473479137131
1.157484985744029915
1.1573952520438588465
1.1573735697472080641
1.1574666076522339697
1.157687874999094424
1.1580035276786970755
1.1583384813849633144
1.1585986677343989015
1.1587116165323183559
1.1586574083085743325
1.1584687340442678671
1.1582060623746042172
1.1579243508043535194
1.1576501113676822552
1.1573787395977643833
1.1570976025891501759
1.1568065740399102737
1.1565276755876672254
1.1562977316805380656
1.1575593207660781481
1.1575314578910429475
1.1574880949230932359
1.1574742386266156924
1.1575324499566557179
1.1576870569856296811
1.1579359403019018337
1.1582397969578537289
1.1585290487097512635
1.1587230161886803437
1.158773714996110149
1.1586841200922506356
1.1584963911167061035
1.1582634821218116272
1.15802497867189369
1.1577868834511415574
1.1575347670269706679
1.1572549307682680197
1.1569605644128502231
1.156685325954987853
1.1564644424268084588
1.1576652132676694684
1.1578856133684880536
1.158161486179573707
1.1584526412989331057
1.1586998849425380609
1.1588434516099630489
1.1588553974571587091
1.1587485988183368057
1.1585651295811896233
1.1583454031689697228
1.1581123038302059136
1.1578621963391264593
1.1575858749723608732
1.1572845571365772965
1.1569874614731561202
1.1567339297008853993
1.1565508361608116683
1.1586990555186300611
1.158859527341234319
1.1589201378570470613
1.1588899845690374679
1.1587937523157885167
1.1586492933643053327
1.1584554666427966385
1.1582012210529624152
1.157887289878996695
1.1575401078353118045
1.1572092531714575081
1.1569452168611904508
1.1567740526589480599
1.1588497553931789152
1.1589459779226947145
1.1589755965098722523
1.1589488827517286929
1.1588671412649962367
1.1587136660918802011
1.1584716579031901773
1.1581466764848842299
1.1577798860761709943
1.1574323962526886778
1.1571574569549207823
1.1569799057922216523
1.1564479648319703209
1.1562742867577189276
1.1562016587261039202
1.1562222928196330685
1.1563007084581045092
1.1563969904793214294
1.1564874197619217089
1.1565613830017980046
1.1566009100760483719
1.1565783055215372865
1.1564876147454339339
1.156378107598934557
1.156336418296382007
1.1564350693049423313
1.1566972970557491962
1.1570880421133054039
1.157536577604457495
1.1579694978043086895
1.1583197478260125468
1.1585376940901481735
1.1569404415189961099
1.1566178707128533798
1.1563594287868301791
1.1562043517544380311
1.1561771040130781607
1.1562614569913807205
1.1564106507250266898
1.1565763904005812446
1.1567156453983065134
1.1567859494803003351
1.1567468315249407329
1.1565874643362366037
1.156366335917752286
1.1561916758619621426
1.156170637215852226
1.15636079195721031
1.1567517909374585017
1.157271893151690545
1.1578180220915410548
1.158286422744244204
1.158594497655733857
1.1587126204682116626
1.157756916919445489
1.1574289365173533461
1.1570775473791898857
1.156728983556792878
1.1564200581619208386
1.1562055125352814766
1.1561306994076943067
1.1561955373556707105
1.1563525481929739502
1.1565438931624607566
1.156716816841978801
1.1568207831057357726
1.1568092942303838111
1.1566622746627566176
1.1564248266902681372
1.1562016793417613236
1.1561110379266030801
1.1562319813550783199
1.1565753099907436496
1.1570832648515001484
1.1576470828321792084
1.1581491483360764061
1.1584897220350331981
1.1586310028470510058
1.1586047479235355162
1.158477329502337172
1.1576471966194954444
1.1573653031589279383
1.157048356059447336
1.1567357761161476404
1.1564320755412302866
1.1561525395414962158
1.1559498612435319398
1.1558730995253376772
1.1559274554538090385
1.1560664457508087466
1.1562363433140838698
1.1564005501306702239
1.1565303284751984325
1.1565942408306051359
1.1565682629169022899
1.1564690883516417497
1.1563614363270506846
1.1563299659242514128
1.1564355503972663097
1.1566894139821759513
1.1570485452112528879
1.1574296164051127711
1.157741807193843897
1.1579179930267959886
1.1579435982335910538
1.1578679080728486728
1.1577638160098235875
1.1576709168538201755
1.1568975873134659249
1.1567303504600672248
1.1565160223448753829
1.1563357399704512485
1.156183742783258861
1.1560121998747494576
1.1558048479870668412
1.1556154872141561896
1.1555237026604956441
1.1555763760227102388
1.1557631954930311924
1.1560489143728356343
1.1563978271759736138
1.1567594705621191409
1.1570564510257945745
1.157207680266106431
1.1571737131987849256
1.1569882830244961891
1.1567454555944682859
1.1565511569258812852
1.1564799727073193925
1.1565479982100126399
1.1567118987506932459
1.1568934527037484372
1.1570196130225711695
1.1570627806289757178
1.1570557544976585174
1.1570613167342702621
1.1571018778525004045
1.157148975464798113
1.157060138606382349
1.1572528365379550763
1.1572336002807195321
1.1571166342160810192
1.1569892053023234091
1.1568584581986542936
1.1566853835068720002
1.1564684488519474392
1.1562746471541740512
1.156191302312698177
1.1562534859274773424
1.1564289843855815043
1.1566610534924359754
1.1569101515174167183
1.1571435427272711571
1.1573118625427192274
1.1573598347463385227
1.1572599125683851184
1.1570453789356103247
1.1568055414083582288
1.1566360877006136576
1.1565994635761325249
1.1566999362863286116
1.1568832310882228853
1.1570650283355745636
1.1571716024583647009
1.1571883059290133389
1.1571655502276572136
1.1571755753751278295
1.1572427668054152683
1.1573135086231618462
1.1573037403676149637
1.1577391293724270671
1.1578605244625503889
1.1577672793875777302
1.1575859731975595146
1.1574097806153014201
1.1572411472979300395
1.157029606885517703
1.1567674722747127714
1.1565271651370585548
1.1564068860271761174
1.1564434333471302896
1.156600497881902001
1.1568093092453519688
1.1570208116366842432
1.1571992706300802123
1.1572965980073508518
1.1572575820922927914
1.1570561253243765165
1.1567321512624662017
1.1563872105675723212
1.1561333754078448877
1.1560397412462284361
1.1561107425997791953
1.1562855925817703273
1.1564644069197784759
1.1565636960240852638
1.1565646848260890955
1.1565244587862291148
1.1565175145385602207
1.1565657866376857221
1.1566030704865735146
1.1565357410076544387
1.1563068728850103284
1.1531005642833460634
1.1530523544549231563
1.1528777178024085526
1.1528731533368181683
1.153190994823864779
1.1536830297467051132
1.157269316989523622
1.1573486079096089174
1.1572061717537329706
1.1569773981009909836
1.1567613718263614064
1.1565620229716746525
1.1563225004354256154
1.1560308799861793716
1.1557638316602016904
1.1556209583404659647
1.1556423693754207527
1.1557837093624641067
1.1559700592549282394
1.1561513017216709098
1.1562967463185447325
1.1563642609881994439
1.1563011348186882365
1.1560806206642852967
1.1557412024406150675
1.1553860142513721065
1.1551285890059568295
1.155037738777460854
1.1551158989240299935
1.1552962176171859277
1.1554721947881667621
1.1555583708291716771
1.1555397959038800071
1.15548251191824769
1.1554719382125200333
1.155527693162142544
1.15558144686299058
1.1555206652965557268
1.155290794783971009
1.1549441162625759816
1.152350537718154655
1.1525544909233640389
1.1524770147810521337
1.152260476725246896
1.1522244111400394839
1.1525267914768826394
1.1530152505895259196
1.1556690385522359055
1.1557522694344717351
1.155611489314413376
1.1553855390670484393
1.1551769443586563657
1.1549868946261176994
1.1547544656009700592
1.154466643105003465
1.1542034903485172137
1.1540695132376119769
1.1541033885135927317
1.1542596699246747693
1.1544607252109888584
1.1546549494940270275
1.1548136379790856498
1.1548959464462147384
1.1548491142326071657
1.1546449173718786874
1.1543214151738525608
1.1539817439694852741
1.1537410555955576186
1.1536710113038379788
1.1537719326422894994
1.1539757262151253414
1.1541723113308575144
1.1542747213265458495
1.154269946543983405
1.1542286193322079946
1.1542390780581295306
1.1543243148048722979
1.1544073298394874616
1.1543711964514786761
1.1541612882993872446
1.1538291056375740151
1.1535181541936467831
1.1468509804176458822
1.1467312834570613234
1.1466178644839613021
1.1465296424884010573
1.1464797087728317848
1.1464807353221382336
1.1465323564407594592
1.1466361875002470949
1.1467741647534652749
1.1469395406308449115
1.1471064518748401717
1.1563963856001002739
1.1563934867933298722
1.1564268142499207759
1.1564552928043367874
1.156434686029422787
1.1563448675502783214
1.1561968122143966298
1.1560291665040451914
1.15586973908059365
1.1557413484795753256
1.1556520003486521198
1.1556090121388595815
1.1556244358876821554
1.1557039114889706699
1.1558335270349426871
1.1559747057734177655
1.156075555663733212
1.1560951248804225422
1.1560178180981930396
1.1558608471139084628
1.1556762944148692984
1.1555360247261921014
1.1555065292020574308
1.155615751406065872
1.1558431269264579644
1.1561334061934467332
1.15642266111352221
1.1566653142436906787
1.1568403163735323513
1.1569349844556060525
1.1569402432435429429
1.1568524159388904327
1.1566877376821576018
1.1564874088619319092
1.156311931893926781
1.1562081770688170668
1.1466920188572511385
1.1467376815839374071
1.1468100893938781848
1.1468965333689358221
1.1469817758005602659
1.1470507306064736675
1.1470898523473385122
1.1470893989112511679
1.1470457518996610702
1.146962953065636226
1.146851191218739574
1.1467267697967191697
1.1466087002218385837
1.1465184043601983621
1.1464719082776710923
1.1464831622047149118
1.1465531285683843166
1.1466789997239403842
1.1468426223267877972
1.1470283381394694722
1.1472120128925342719
1.1563530751182342637
1.1564062350545509794
1.1564651385711754994
1.1564943960625302388
1.1564652890639632865
1.1563814857084322441
1.1562645036109298058
1.1561396331402633564
1.1560276253389090151
1.1559352556816733237
1.1558632918452145244
1.155825085953895659
1.1558395792632916166
1.1559088593860464833
1.1560124553381347923
1.1561119679382696468
1.1561666193047079876
1.1561541133202248854
1.156078145662361889
1.15595946642171854
1.1558308287326402031
1.1557331854705996665
1.1557055547450794108
1.1557686727431268903
1.155920037348146634
1.1561372667191822661
1.1563766371448964687
1.1565982479151417639
1.1567715533065681122
1.1568697779030361339
1.1568768162457119253
1.1567878111837850419
1.1566341338842465181
1.1564671881706376499
1.1563501665143958164
1.1563228462107193462
1.146709535878156716
1.1467380207531550074
1.1467965437083824654
1.1468739896385236054
1.1469567483389755402
1.1470286104346807399
1.1470745852003862986
1.1470841001581431051
1.1470511949833623877
1.1469775782675257769
1.1468724196247621627
1.1467527488403170821
1.146638734688619321
1.1465529461752879126
1.1465115297555570351
1.1465288833000335522
1.1466062638248839534
1.1467393006608970207
1.1469094591971518149
1.1470982957781183931
1.1472814217867763897
1.1564393121917879714
1.1564978527512030926
1.1565161190550017345
1.1564946940467797365
1.1564532424456321902
1.1564165716450847121
1.1563823417726124543
1.1563501981317778622
1.1562980515963743322
1.1562277669750335996
1.1561645309440251594
1.1561359725528010944
1.1561521461734003413
1.1561935947460659779
1.1562263701475308242
1.1562233329797038106
1.1561781536221868993
1.1561071366451292075
1.1560336499062906501
1.1559760678136727918
1.1559441273588715315
1.1559413367070261458
1.1559747836883798033
1.1560542802368640736
1.1561772515660075911
1.1563341219172302843
1.156498799150783352
1.1566342365508757162
1.1567078929263874265
1.1566971712235658565
1.1566047351880368588
1.156470108434710431
1.1563546917831000194
1.1563175531031042453
1.1467190523844619232
1.1467462941870596449
1.1467988628682270758
1.1468644030911936404
1.146928660767541297
1.1469764349167623774
1.1469952180249978202
1.146977495696239524
1.1469240074751601011
1.1468418072193662383
1.1467457364532855912
1.1466534538861652415
1.1465871940608673984
1.1465609114336581253
1.1465887886597752043
1.1466700136577931968
1.1468020019870268644
1.1469654617580591349
1.1471457900827541909
1.1473168283671200118
1.1565601889083723108
1.1566005506218453025
1.1565897642483919938
1.1565704608428479805
1.1565787029374376971
1.1566288917697740146
1.1566951344018909786
1.1567389344041529853
1.1567186566944409609
1.1566433283825146017
1.1565463189834894742
1.1564629009727587228
1.1564139706057789958
1.1563853738219129763
1.1563452284314317264
1.1562743245099067479
1.1561809015936523881
1.1560935110686896277
1.1560428914560711977
1.1560422937231833451
1.1560799705473876475
1.1561307814362309365
1.1561808076791351141
1.1562247364194300214
1.1562704003392512142
1.1563260194183204721
1.1563898847765539113
1.1564359408792204142
1.1564388881350169402
1.1563860418485658599
1.1562966007071908692
1.1562138271062980532
1.1561947115357154026
1.1562804838508322636
1.1466740551437950568
1.1466672706431628725
1.1466897706080649844
1.1467315316372799217
1.1467805269984316929
1.1468233009268071765
1.1468481653718103352
1.1468467765694545513
1.1468171221315635044
1.1467632980116742036
1.1466969072677708485
1.1466319375871043551
1.1465869144519245104
1.1465741017748836139
1.1466071075534565171
1.1466859569224288062
1.1468096627500981022
1.1469626947768221115
1.1471335135634717073
1.1472979680644694866
1.1567354937417961835
1.1567108613628862557
1.1567142113960529048
1.1567874889477083311
1.1569251358773462446
1.1570800625402464235
1.1571664649686330684
1.157150190705384718
1.1570395795977885811
1.1568851593045224035
1.1567389282777107429
1.1566260214046573118
1.1565384930551629861
1.1564472048391822856
1.1563334249185834857
1.156207409821460308
1.1561031052011574438
1.156061408541153579
1.1560945146799528338
1.1561821013199866659
1.1562853691108534449
1.1563653278509318234
1.1564001947530289094
1.1563984675279130876
1.1563699240386557943
1.1563301198678721526
1.1562796923502980384
1.156211329844214708
1.156123783953091344
1.1560390511153630921
1.1559979855906603596
1.1560484416237970517
1.1465828249417104878
1.1465644156858305625
1.1465679629195177913
1.1465854647968825031
1.1466075425282811207
1.1466260926331051095
1.1466337404466675487
1.1466266397908437824
1.1466047358800925959
1.1465745963770177518
1.1465447573725873198
1.1465284518188654239
1.1465348569105202614
1.1465766324539476972