/*--------------------------------*- C++ -*----------------------------------*\
  =========                 |
  \\      /  F ield         | OpenFOAM: The Open Source CFD Toolbox
   \\    /   O peration     | Website:  https://openfoam.org
    \\  /    A nd           | Version:  12
     \\/     M anipulation  |
\*---------------------------------------------------------------------------*/
FoamFile
{
    format      ascii;
    class       volScalarField;
    location    "0.0095";
    object      p_0;
}
// * * * * * * * * * * * * * * * * * * * * * * * * * * * * * * * * * * * * * //

dimensions      [1 -1 -2 0 0 0 0];

internalField   nonuniform List<scalar> 
75962
(
100742.38498579191219
100642.17262723454041
100897.30860268040851
100920.2361859595112
101020.8578725582629
101113.36412103353359
101093.82589421025477
101071.17488503924687
101055.87989249062957
101025.57908692008641
100961.4911772228661
100921.68257356867252
101016.90568370232359
101170.35943902166036
101189.95008502458222
101074.34956366848201
100971.32216790808889
100961.41447413559945
101016.09900721097074
101092.13068067929999
101168.95380624145037
101182.48492753104074
101105.94238562784449
101022.45496266675764
101009.32404839816445
101014.80932157146162
100992.01796626781288
100977.65459952958918
100986.00799152243417
101000.27875527838478
101027.19272089700098
101076.20691300541512
101111.12029699384584
101097.41395874563023
101063.15682636470592
101061.20608752922271
101084.84832154888136
101103.48673643561779
101105.85456925250764
101099.23710806967574
101093.95063015021151
101101.14978640305344
101126.17471463134279
101161.1337227372569
101191.21708526641305
101197.42571321285504
101176.81314825211302
101146.36333261258551
101140.674607375302
101174.36844130087411
101222.70397817270714
101251.21443164977245
101252.34346265997738
101242.0486417634238
101231.81995471555274
101226.6479146018246
101222.76426572428318
101202.49673860499752
101154.44949423382059
101095.58146467106417
101060.93315654426988
101074.41211998707149
101126.58790793048684
101177.87052134022815
101195.50913955655415
101182.26222806736769
101167.90513782581547
101178.04004826063465
101208.17714562432957
101231.57088287558872
101230.89825290585577
101216.37892939684389
101211.42189213616075
101225.4148663970991
101239.31711941745016
101226.13582451523689
101180.58138216051157
101125.60186172566318
101089.88046649814351
101084.08469517820049
101103.15527265290439
101137.09822858958796
101173.25048231976689
101194.71001157078717
101192.29643582254357
101175.04995980292733
101164.89954580646008
101172.17974581409362
101188.2695916746743
101197.56536886052345
101192.97985454743321
101180.06420726694341
101164.83546754755662
101144.41498100681929
101112.66618869252852
101072.80201367141854
101040.96335348045977
101041.28415468041203
101073.88129508649581
101119.33200785583176
101157.03770018123032
101181.13132583482366
101203.38177814154187
101236.02187541958119
101272.69968916256039
101291.84873489593156
101280.03890224568022
101247.9902914736158
101221.21058535727207
101219.27491323453432
101242.53973954071989
101276.05889762887091
101301.59002579467779
101309.36129747069208
101303.18930745203397
101294.58058319530392
101293.97351972665638
101300.04477334138937
101299.16162882374192
101280.57892233176972
101248.07876816709177
101218.8571784261585
101208.88623773906147
101222.42885821682285
101248.85878412511374
101272.49830819344788
101280.65481190888386
101270.33265143373865
101248.38125184374803
101224.8413319838146
101205.99662521510618
101191.8463825203653
101179.12885936431121
101166.21135430825234
101153.39750120055396
101139.94322248155368
101124.66798124460911
101106.23284878760751
101087.72366832532862
101071.59057631375617
101058.71882676011592
101047.64284784637857
101034.60304935020395
101018.12444244652579
101000.4971059076197
100987.16687227015791
100983.86807446726016
100995.88150780832802
101023.48967915204412
101059.43909136515867
101093.8106514885003
101118.12899651628686
101130.00513024131942
101131.36892436613562
101126.99126804084517
101120.85996305654407
101114.43898088322021
101105.67643200515886
101092.12539124136674
101072.99507342804282
101049.91818084270926
101026.71483319648542
101007.0566576931451
100991.40747592317348
100978.55175949535624
100968.85238153513637
100966.00946719976491
100974.89327959255024
100995.94287988252472
101021.77679160458501
101041.73536106658867
101048.84522755931539
101044.60163407807704
101037.74036840576446
101037.27905066999665
101047.02085680181335
101064.74312932316388
101084.89240702181996
101104.34236424590927
101123.54216411430389
101142.15354445575213
101160.54212787366123
101177.20285157396575
101193.45342115224048
101211.17382696924324
101230.56224644766189
101247.93803930941795
101256.31142609912786
100964.69964186585275
100945.3763724843302
100928.40461675111146
100918.78244532876124
100918.06726913964667
100924.14183552423492
100932.14482899852737
100937.14802712730307
100936.24545375056914
100929.70495513197966
100920.04184209436062
100910.81244630286528
100904.91971597957308
100904.20311326860974
100909.26639409076597
100919.39339579631633
100932.67782534693833
100946.47468402382219
100957.88489682608633
100964.19376652671781
100963.6623896133533
100957.02919529627252
100947.21969171885576
100939.32367860339582
100938.42640919212135
100946.98214411290246
100964.10243874287698
100985.81890234246384
101006.54000728450774
101022.13347972523479
101031.58973720138601
101036.72342815258889
101040.77093324522139
101046.26806110238249
101053.89172019861871
101062.0176778750465
101067.32263102091383
101066.10195198823931
101057.19531432224903
101041.99606085423147
101024.75229004315042
101009.91170365161088
101001.71648318102234
101002.52257571920927
101011.79984164926282
101027.26735131691385
101045.57804929964186
101064.06630153208971
101080.66433588438667
101094.27007940020121
101104.13452840220998
101109.54178241404588
101110.50317588726466
101107.52803679437784
101101.5343268125871
101094.06798470047943
101086.5748873034463
101079.26253238135541
101073.35381542702089
101067.51370473596035
101061.08481657000084
101053.35687049858097
101044.27662546129432
101034.53044575166132
101024.99368182118633
101016.21951898105908
101009.11654966365313
101003.63866335026978
100999.79097885660303
100998.79999585256155
101001.18439453029714
101007.80143550304638
101018.35538405897387
101031.35825910668063
101045.08010542813281
101057.99406805566105
101069.16669054827071
101078.05459472762595
101084.23771079511789
101087.04890101186174
101085.5201458135125
101078.83445619445411
101066.84444292516855
101050.43229178703041
101031.61709101856104
101012.85985063225962
100996.31083810268319
100983.20299902409897
100973.72238508962619
100967.02963914902648
100961.71604976741946
100956.19513359875418
100949.1654845195153
100940.05071296285314
100929.27953475096729
100918.15013387920044
100908.32052889527404
100901.13269336038502
100897.12023566367861
100895.75634125812212
100895.86349752754904
100896.08805184875382
100895.30094363629178
100892.83988034346839
100888.41312777085113
100882.07727264844289
100874.12483865529066
100865.12748072647082
100855.91476811829489
100847.64813267214049
100841.63812777223939
100839.05181387791527
100840.49599835717527
100845.35715664403688
100852.18527994050237
100859.08221856613818
100863.98877540999092
100865.63600086454244
100863.94648465912906
100859.86588659780682
100855.07278904737905
100851.65170154164662
100851.57352742772491
100856.32422201494046
100866.67815214530856
100882.15733437698509
100900.86825706074887
100920.06222750370216
100936.7360498363123
100948.14799323133775
100952.42841936530021
100949.16833136302012
100939.53623512841295
100925.93282497268228
100911.27229399657517
100898.16770900688425
100888.57244386714592
100883.67990741235553
100883.86573734374542
100888.45889045840886
100895.58158474123047
100902.46686681566644
100906.34326921640604
100905.39462175952212
100899.326476732007
100889.38536362696323
100878.0497827684303
100868.32362118102901
100862.91052978867083
100863.35859254459501
100869.60453498575953
100879.88317462099076
100891.07139217555232
100899.59157819628308
100902.48312776832609
100898.35713527552434
100887.60642293184355
100872.01253555281437
100854.02607781154802
100835.97773021143803
100819.64964400490862
100806.11023996620497
100795.69382803395274
100788.27527835262299
100783.60285123964422
100781.50293164642062
100782.0013064937084
100785.19618516687478
100790.97909688395157
100798.86911975729163
100807.98257181863301
100817.06321227748413
100824.7151977684116
100829.75846137480403
100831.42921635930543
100829.46181890263688
100824.23884052368521
100816.8196365153708
100808.73055139306234
100801.69672491683741
100797.38206639097189
100797.11248526265263
100801.57294140558224
100810.69509127893252
100823.6539444157097
100838.96175473286712
100854.68509212532081
100868.75817154537071
100879.21907087168074
100884.35989162360784
100882.79980598780094
100873.61505558239878
100856.50711081622285
100831.91894569355645
100801.15584512075293
100766.46076685078151
100730.88367332657799
100697.85506960356724
100670.56191329400463
100651.31708095181966
100641.12356700717646
100639.52198119949026
100644.61513168981764
100653.3579061615892
100662.19867238358711
100667.92448356226669
100668.3299347734428
100662.51970650001022
100650.93895689373312
100635.32846248969145
100618.37365786466398
100602.93498589932278
100591.13943678684882
100583.88251549837878
100580.8881964112079
100581.04597302967159
100582.74359435703082
100584.3109309382271
100584.46504113719857
100582.60359601670643
100578.94548032345483
100574.4276695138833
100570.48150436712604
100568.71989922624198
100570.52621349530818
100576.68135461698694
100587.13052946000244
100600.97172694413166
100616.55463036456786
100631.72154089287505
100644.18420099389914
100651.98690093957703
100653.96419810540101
100650.03821801862796
100641.18719598841562
100629.1729743420583
100616.09807845875912
100603.99502055690391
100594.45424581199768
100588.40356230444741
100586.03943476680433
100586.91676701663528
100590.12737271102378
100594.56927667144919
100599.22611960022186
100603.38814081597957
100606.76360541739268
100609.50691852845193
100612.17840400763089
100615.59972251056752
100620.67499733014847
100628.22364370319701
100638.86538646930421
100652.86891892013955
101122.15454564189713
101147.34565188932174
101151.49452336336253
101080.78084657547879
101023.56740525146597
100856.78461530120694
100816.13654434266209
100908.46444059096393
100960.17244826110255
101022.17407565294707
101056.15169169394358
101052.21334487937565
101120.90370950955548
101246.26914719614433
101257.80554149330419
101130.56114348916162
101031.19375955656869
101043.21730642256443
101087.25026594787778
101139.04285471429466
101210.49312715009728
101221.72382831663708
101129.34291154434322
101028.88477898636484
101021.81247506341606
101042.93438795882685
101014.35424903870444
100974.20890818495536
100959.08146683542873
100966.81532725028228
101007.27431227307534
101078.59243088691437
101134.58765139989555
101139.40588595280133
101120.86354567232775
101117.73695957452583
101125.90199446160113
101128.16785482973501
101118.61698009184329
101095.41537830430025
101067.13830158770725
101052.99548646285257
101073.6740647941333
101129.20028266719601
101186.02777239310672
101211.13826429116307
101197.4709205901454
101170.82760974625126
101163.26054304502031
101181.34317982185166
101204.69554283987964
101213.5845309986762
101207.48593548659119
101196.72298011713428
101190.3565325345553
101195.18353802038473
101204.72913487313781
101199.07572510233149
101163.87471568018373
101115.40642919448146
101086.8498022294807
101100.06484443203954
101147.35415815081797
101200.70244473034109
101226.26718910050113
101217.91537070031336
101200.48581946572813
101204.10412936822104
101231.82436559956113
101255.35526216391008
101251.51779714426084
101227.54942254768685
101208.57556998518703
101209.77259579920792
101218.72111140671768
101210.16146050895622
101173.31794880221423
101127.82353945447539
101097.37607352869236
101093.04438458176446
101109.02324958734971
101132.4944542953599
101152.73669250195962
101161.75641610145976
101157.6999255267292
101149.3496160658251
101149.82254353110329
101164.42326847449294
101184.58431674129679
101195.53590638354945
101190.0024615698203
101174.4469102256553
101157.54317826780607
101140.22319569326646
101116.58750368193432
101087.53679130433011
101070.54658328955702
101081.19278603084967
101117.18256709260459
101159.96867829820258
101188.62239220985794
101200.93945676639851
101211.38224575632194
101232.87643713214493
101260.71434011882229
101275.42128395750478
101264.34801039258309
101237.01282189684571
101216.85988943335542
101220.27036150335334
101245.40183259468176
101276.71545976355264
101297.45311840802606
101301.75860018073581
101295.50097128818743
101289.48056954346248
101291.51814134856977
101299.49507598998025
101301.89481099136174
101289.66843098914251
101264.88323116392712
101240.75017361085338
101231.70649485010654
101242.63749643269693
101266.63861998978246
101289.22420261928346
101297.47184425113664
101287.0096026967949
101263.32409077514603
101237.36560566503613
101216.20083726233861
101201.6536790090322
101191.05599418033671
101182.05248329622555
101173.86551052730647
101164.11429316225986
101150.74238884415536
101132.88414283428574
101112.16305093764095
101090.74319038967951
101069.27527210697008
101047.88934454275295
101028.26825688905956
101013.10709348131786
101003.72737839623005
101001.52674261928769
101008.55156880478899
101026.81217012116394
101056.75742388526851
101093.10823192933458
101126.97493190385285
101150.06470665654342
101159.75290015494102
101157.81231375721109
101149.94037628277147
101140.41595324751688
101129.63639244521619
101115.82181616719754
101096.3794724939653
101071.21228201605845
101041.79950462158013
101012.62472418160178
100987.31822020480467
100968.79240557119192
100959.43350957871007
100960.60853002467775
100973.12247056190972
100995.50730520584329
101022.38985244973446
101044.73730958059605
101055.03221239375125
101053.69505589877372
101047.9648119409394
101048.80444871021609
101060.76447384333005
101080.39268755090598
101097.58565579357673
101105.05301367207721
101104.29887933225837
101101.9729933426861
101105.07270167251409
101115.00870227918494
101132.01647378281632
101154.47238020233635
101181.81732725580514
101211.40218960060156
101236.81937336899864
101249.22450595609553
101242.47883299924433
100985.5050940632791
100968.98023918981198
100949.61418119624432
100933.33177971960686
100925.91741616472427
100929.1376989538403
100940.68855322906165
100954.04393834955408
100962.40036797300854
100961.63075186141941
100952.0230389481294
100936.89982885883364
100921.54640601977007
100910.38934676734789
100906.36415503501485
100910.05345974100055
100920.1056923725846
100933.97596552925825
100947.68242711303174
100957.40216206479818
100960.02186158343102
100954.42572564612783
100941.71945809118915
100926.40536502636678
100914.44900841829076
100911.35285804788873
100919.87532248591015
100938.58583755027212
100962.90799674984009
100987.08994101668941
101006.23120502699749
101018.71850725120748
101025.5212018253078
101029.86738404598145
101034.65177126636263
101040.85635018267203
101047.69015566085
101052.85459973252728
101053.39954143250361
101047.72735287417891
101036.62027697761368
101023.44178127449413
101011.81463945035648
101005.26275492018613
101005.50308087236772
101012.62585515533283
101025.07159145698824
101040.69090916935238
101057.57931751737488
101074.2585671612178
101089.15105912793661
101100.81459869314858
101107.44711560293217
101107.94493038362998
101102.78308502133586
101093.49692421020882
101082.29094771659584
101071.68891009206709
101062.75451804776094
101054.21030451756087
101045.74852214177372
101035.77893126405252
101023.75057636106794
101010.50414049281972
100997.99596066609956
100988.18508354203368
100982.42850481760979
100980.85596099654504
100983.24582503679267
100988.87831665272824
100996.99956438402296
101007.37124965443218
101019.63981158503157
101032.49681897171831
101044.05292299264693
101053.06049543803965
101059.27281856948684
101063.3953267892357
101066.5422136263951
101069.37780244041642
101071.72276444904855
101072.26754800570779
101069.03825882278034
101060.6013505050505
101046.83763881785853
101029.1457135383389
101010.0514407002338
100992.45324410185276
100978.57271770927764
100969.29309385952365
100963.80964550896897
100960.02468172772205
100955.43035598431015
100948.07129927945789
100937.17031610333652
100923.50273904236383
100909.18592127932061
100896.84478290530387
100888.77307805484452
100886.01307869699667
100888.09853123800713
100893.3095582422975
100899.29537328548031
100903.84081060209428
100905.38357813718903
100903.07567651636782
100896.85729556706792
100887.37504813059059
100875.91781825466023
100864.19529198030068
100854.06665863859234
100847.15768660629692
100844.42013665389095
100845.82559631233744
100850.09306267662032
100855.1698544928804
100859.22587928740541
100860.80911453453882
100859.36785183154279
100855.5662536110176
100851.0355449415656
100847.70810418040492
100847.23357363622927
100850.82937524358567
100859.05061557899171
100871.78214285957802
100888.07464860061009
100905.96184739147429
100922.92635601200163
100936.42788670246955
100944.47765380590863
100946.03411708824569
100941.25008467779844
100931.40744126107893
100918.48993207480817
100904.7279399917461
100892.22825628658757
100882.58394118899014
100876.74052061143448
100875.19233605713816
100877.86044726989348
100883.82975584839005
100891.22681175463367
100897.45616423845058
100899.87488980453054
100896.91855761963234
100888.71724001572875
100877.02881083371176
100864.67971218426828
100854.73725798173109
100849.62526634029928
100850.32390807826596
100856.12617615849013
100864.8395684043644
100873.4436506061902
100878.93397808549344
100879.27362217397604
100873.96881809324259
100863.9252836080268
100850.97838375456922
100837.16499779770675
100824.04983770467516
100812.54642925475491
100802.95888114247646
100795.15577458171174
100788.94193821046792
100784.31712225654337
100781.53607807523804
100781.03843084981781
100783.18485915914061
100787.95993755981908
100794.81177953199949
100802.66423876454064
100810.09262621556991
100815.76598575861135
100818.88977384750615
100819.41149958674214
100817.96568386624858
100815.68947324257169
100813.9187977322581
100813.85116076072154
100816.25175032050174
100821.29320466253557
100828.60963856181479
100837.46467410602781
100846.98300644003029
100856.34099568451347
100864.80712634447264
100871.6489977863821
100876.00759973454115
100876.79476579993207
100872.69954107621743
100862.39818302917411
100844.99851410451811
100820.50942045258125
100790.11527242507145
100756.10939277990838
100721.617032283757
100690.1023558331799
100664.64247243155842
100647.24507626597187
100638.43633343778492
100637.27159340282378
100641.63517872337252
100648.69906915481261
100655.45493879765854
100659.29458649913431
100658.54806161545275
100652.78981688110798
100642.74868587528181
100629.91738436033484
100616.18146386435546
100603.51005441145389
100593.56641977974505
100587.24086038481619
100584.35301108047133
100583.83352865772031
100584.22878458158812
100584.17837004663306
100582.75282514594437
100579.64120803459082
100575.20172200998059
100570.3835940221179
100566.53540977653756
100565.14447562437272
100567.46858516763314
100574.18474051803059
100585.1613277769502
100599.38162472762633
100615.06601694051642
100630.00473743943439
100642.04662452889897
100649.59435506396403
100651.91401317408599
100649.25939497587387
100642.75785228966561
100634.03854401280114
100624.78950116761553
100616.40725750988349
100609.7758577143104
100605.17628586284991
100602.36966476911039
100600.84060286376916
100600.07269154860114
100599.74801054049749
100599.84845339198364
100600.59769777600013
100602.35802235404844
100605.53023590540397
100610.47448424054892
100617.47914289747132
100626.74173557605536
100638.33026628683729
100652.14139520560275
100667.90967852876929
101223.50533060550515
101334.19908439149731
101202.52858150418615
101083.50530728307785
100947.26036431312968
100892.65348830416042
100999.52727786317701
101054.0721348527004
101024.01908531651134
101107.0627432737092
101211.86882130918093
101214.70801979737007
101207.96209925833682
101263.22578226857877
101280.18091984141211
101205.73037325461337
101163.2467658285168
101189.18716093378316
101192.54442878582631
101184.58869666785176
101229.57928893584176
101271.35262027486169
101212.76698456759914
101115.914309917629
101094.24335537296429
101109.37606959720142
101068.41908593212429
100997.3762686347618
100960.52793601440499
100975.89297797680774
101030.05849772594229
101103.92744334612507
101165.56190166117449
101191.00843145824911
101189.64059236682078
101174.88959982829692
101158.32592476502759
101145.51678649330279
101132.88066729216371
101104.00919170891575
101062.23460164881544
101033.34092368962592
101049.36080948695599
101113.54385911890131
101184.13990234720404
101219.73002954338153
101213.62260285163939
101191.44225163213559
101175.21052926291304
101167.04000487024314
101160.68585984963283
101155.48606900018058
101153.66720062542299
101155.11799429736857
101160.38582710080664
101174.38087872019969
101195.99513100393233
101208.07779590789869
101193.54471955125337
101158.09440357489802
101127.32427280748379
101126.21817786397878
101160.31755248375703
101212.82503066693607
101250.23847854044288
101249.83193866682996
101226.63408666889882
101216.61706725972181
101234.00632093258901
101256.70660000319185
101257.07017140959215
101232.1954168620141
101203.08072296073078
101189.66544519073796
101191.32795451367565
101192.28929285053164
101178.21219368292077
101153.93984394440486
101131.10935297956166
101118.94051216973457
101117.93942752019211
101122.3943235042243
101125.77168429915037
101125.00989217407187
101121.67775899045228
101121.52186445625557
101128.31619264054461
101144.41331998501846
101164.61215913921478
101179.58629508585727
101182.79348336877592
101175.82296240587311
101164.51215009724547
101151.96455577222514
101137.9219304893486
101124.76054147563991
101121.91914507182082
101134.85016289299529
101163.65592332063534
101193.83737847331213
101211.48657849234587
101215.29165139090037
101215.98668285507301
101223.86394346196903
101238.39147937892994
101248.09765987530409
101242.2654702810396
101225.50848000663973
101214.44008438501623
101222.21207490227243
101247.53695778318797
101276.40240633847134
101294.70142360763566
101296.50553601267166
101288.2098302012746
101281.28788133111084
101282.68256524443859
101291.24979745910969
101298.94452396380075
101297.16035596575239
101284.4390124273923
101267.73971881292528
101258.15020861433004
101261.94427385907329
101276.91319166173344
101292.09309957074584
101297.08255378072499
101286.27475527526985
101264.21558894272312
101239.836503081111
101219.70619548478862
101206.04179710363678
101197.02419985239976
101191.78454375165165
101189.1428514465515
101186.62445372946968
101180.77932650237926
101167.5731041651452
101144.96779120046995
101114.47270633466542
101079.4378770585754
101046.88304756005527
101024.35757791428478
101016.10816202590649
101020.14515966697945
101031.46869439793227
101047.17611166235292
101067.97262699903513
101095.33478607914003
101128.29592074242828
101158.55245827916951
101178.62757465771574
101183.7053629703878
101176.82428023248212
101163.50587413061294
101148.05303329984599
101131.57268797374854
101112.84283409983618
101089.40258993642055
101060.63218922396482
101029.16009802938788
100998.27246189586003
100971.26026861800347
100953.31626140249136
100949.22039918629162
100961.33203611298813
100988.1025565808377
101021.97529566554294
101051.3198589302483
101067.04911690755398
101067.01974003839132
101057.92174883070402
101053.15601219369273
101061.83885083318455
101083.33622665495204
101106.14705796603812
101115.84447203276795
101107.08880638885603
101085.7331113947148
101063.7456943760626
101052.47609499887039
101055.74181874460191
101073.44230150153453
101102.34638730190636
101139.15064160828479
101179.10067496648117
101213.22332702382118
101231.54858330101706
101228.29861567445914
100993.64165229609353
100979.66346910435823
100961.61075348613667
100946.3404035262065
100939.88203062472166
100945.00203029051772
100959.25174829585012
100975.32883406306792
100985.17249122179055
100983.74524466248113
100971.20902855391614
100951.68243612544029
100931.64024112671905
100916.79096830863273
100910.66912961628987
100913.65223462393624
100923.59333742914896
100937.07955685093475
100949.24346064320707
100955.61354221910005
100953.31467810283357
100941.83951209411316
100923.28797201807902
100903.08137279748917
100887.95221141779621
100883.47939327485801
100892.31357388822653
100912.76732585229911
100939.47434912073368
100966.21476651683042
100987.9563894138555
101002.7002728638181
101011.12575586223102
101015.8130328545667
101019.82931305356033
101024.91269285039743
101031.04254346071684
101036.78298956342041
101039.98648950940697
101039.00359444016067
101033.51928670892084
101025.0359987760603
101016.29684330402233
101009.59879484635894
101006.74810332038032
101009.0011543185683
101016.58829987172794
101029.03544781422534
101045.45265311087132
101064.05746671681118
101082.25347953131131
101096.91138216487889
101104.97194375081745
101104.72409952479939
101096.74773141391051
101083.8986743772839
101069.55641417998413
101056.3925593978056
101045.47756711713737
101035.8159047474619
101025.01902431876806
101011.5708426964411
100995.35085240047192
100978.14186235734087
100962.98742436798057
100952.88609119856847
100949.7295480309549
100953.37486484106921
100962.91041236193269
100976.37603983872395
100991.98808000374993
101008.53197741354234
101024.71407692275534
101038.69736627847305
101048.7639690048527
101054.13850068251486
101055.37105296915979
101054.25897338971845
101053.23739968535665
101054.01852709391096
101056.49720604639151
101058.69540572421101
101057.69490749975375
101051.08474027347984
101038.20563052700891
101020.36630675467313
101000.48613361215394
100982.17481394704373
100968.41472571923805
100960.50857030444604
100957.60456685321697
100957.06074284025817
100955.3915309397853
100949.71325691141828
100938.88239359884756
100923.85264743068547
100907.31819380630623
100892.77665148806409
100883.30541474359052
100880.48461583185417
100884.11401339388976
100892.18826034168887
100901.59678642899962
100909.35611222463194
100913.21904357698804
100912.07309830501617
100906.03572365942819
100896.1974543237302
100884.3434627136885
100872.62700710460194
100863.00827005863539
100856.8729375047551
100854.62017718596326
100855.4781587280595
100857.78998260245135
100859.58150906117226
100859.51567430785508
100857.07120216432668
100852.60526280311751
100847.50117529871932
100843.64814851182746
100842.62258399024722
100845.203201475073
100851.58345593251579
100861.67104310741706
100874.7639359273744
100889.63821594612091
100904.85682598977291
100918.76882732792001
100929.76701951354335
100936.7318610008515
100938.99075899501622
100936.43863094940025
100929.7009877118544
100919.83304505878186
100908.04292652761796
100895.64602229655429
100884.08047185522446
100874.88756978885795
100869.42310886301857
100868.56890117909643
100872.42543220228981
100879.82841575388738
100888.35620375466533
100894.82867834377976
100896.316273235876
100891.42896964488318
100880.85733839847671
100867.08750671634334
100853.49658495032054
100843.29151971607644
100838.49400831208914
100839.39876071760955
100844.66425072976563
100851.83705151019967
100858.13257605269609
100861.26283106690971
100860.06035055086249
100854.73490008474619
100846.51321950327838
100837.08871362706122
100827.9219014661503
100819.76324412006943
100812.68725760627422
100806.39189370404347
100800.49718108282832
100794.84921873400162
100789.71200957256951
100785.66957699690829
100783.37600512751669
100783.29718845848402
100785.41666076955153
100789.17542291163409
100793.66549944059807
100797.99526985136617
100801.65825203992426
100804.79519109876128
100808.11986346868798
100812.64378380069684
100819.17259055498289
100827.9139001496078
100838.39185458724387
100849.49262893658306
100859.72974803995749
100867.72737320579472
100872.70768644723285
100874.7068090330722
100874.33231916047225
100872.26538996701129
100868.76485459099058
100863.44772587750049
100855.35239855626423
100843.17285241125501
100825.7441270367126
100802.68280179193243
100774.87909708888037
100744.48718656308483
100714.38803821659531
100687.49870653418475
100666.17711083246104
100651.78023055987433
100644.42523266345961
100642.94255349414016
100645.25830201110512
100648.97310980963812
100651.91748945172003
100652.51554241840495
100649.94860463829536
100644.1764699658379
100635.87927490625589
100626.22297507425537
100616.49561594196712
100607.77373008847644
100600.78375539802073
100595.8476094850048
100592.83131380380655
100591.090405265757
100589.59578542133386
100587.28002101572929
100583.42818107508356
100577.95960404958169
100571.49668471992481
100565.23575987036747
100560.64154778081866
100559.10958201161702
100561.67456129213679
100568.73795521350985
100579.90164794780139
100593.96536975092022
100609.15179560477554
100623.46718453796348
100635.15095931642281
100643.05362099187914
100646.83340844453778
100646.91279086658324
100644.27250849436678
100640.09584714341327
100635.39662076102104
100630.77429710385331
100626.39970809991064
100622.13954185332113
100617.74600207339972
100613.07441832857148
100608.2760793655616
100603.85610456006543
100600.58351459969708
100599.32892569013347
100600.82089112862013
100605.44947250945552
100613.17224099655868
100623.61182402132545
100636.21271631956915
100650.34372593995067
100665.39117941212317
100680.84393096173881
100696.29163962379971
101115.35108859109459
100952.24607472587377
101162.49130328986212
101212.17619350932364
101019.36994228842377
100980.7005095193017
101072.48760963806126
101067.14402990984672