/*--------------------------------*- C++ -*----------------------------------*\
  =========                 |
  \\      /  F ield         | OpenFOAM: The Open Source CFD Toolbox
   \\    /   O peration     | Website:  https://openfoam.org
    \\  /    A nd           | Version:  12
     \\/     M anipulation  |
\*---------------------------------------------------------------------------*/
FoamFile
{
    format      ascii;
    class       volScalarField;
    location    "0.0095";
    object      pMean;
}
// * * * * * * * * * * * * * * * * * * * * * * * * * * * * * * * * * * * * * //

dimensions      [1 -1 -2 0 0 0 0];

internalField   nonuniform List<scalar> 
75962
(
99224.75512046230142
99225.453918122351752
99225.271611701333313
99225.176599495476694
99225.195458659189171
99225.12563578604022
99224.995709743277985
99224.834678029830684
99224.635012270926381
99224.391901900497032
99224.112236137676518
99223.817499057680834
99223.502343855187064
99223.133533290063497
99222.720252052225987
99222.321545568134752
99221.959930161669035
99221.609445684123784
99221.236363605887163
99220.831763367270469
99220.396316708283848
99219.9410427944822
99219.49778850817529
99219.088417786188074
99218.697474954416975
99218.305478933092672
99217.919945134897716
99217.54950764014211
99217.187023213366047
99216.826427736436017
99216.46653172961669
99216.100246576024801
99215.723413268948207
99215.347860884212423
99214.986551230147597
99214.638211455516284
99214.292313521931646
99213.948617582020233
99213.611611865329905
99213.284527880590758
99212.968146972401883
99212.659480012254789
99212.352958716117428
99212.043976872751955
99211.730444395550876
99211.418148590499186
99211.116480857235729
99210.832900467852596
99210.56613038382784
99210.303889431495918
99210.034711861371761
99209.7581328178494
99209.48202207351278
99209.21252600743901
99208.950843729471671
99208.695327702589566
99208.443901509323041
99208.19805596084916
99207.966165846795775
99207.756934477234608
99207.570016605604906
99207.393253275498864
99207.210605433065211
99207.015283994202036
99206.81436069837946
99206.619711503124563
99206.436486495862482
99206.258918842140702
99206.077461266846512
99205.888896697593736
99205.698497671997757
99205.513553288139519
99205.335642555801314
99205.158581739771762
99204.977113459637621
99204.794847966302768
99204.622221075274865
99204.46732928007259
99204.329196712118573
99204.200265723891789
99204.072717857154203
99203.940979958992102
99203.801763940791716
99203.656503189966315
99203.510961771258735
99203.371969706699019
99203.240461826397222
99203.111708844968234
99202.980651506775757
99202.846761650420376
99202.714016024663579
99202.586911297345068
99202.467569944536081
99202.356792081860476
99202.257047560022329
99202.172352557114209
99202.102448653618922
99202.040685188214411
99201.975666868165717
99201.900198983188602
99201.814924279766274
99201.725136314795236
99201.63454155655927
99201.541467231581919
99201.442126840120181
99201.337190849255421
99201.233923455220065
99201.140791777259437
99201.060197382219485
99200.987124874649453
99200.912656407119357
99200.829820893501164
99200.737248979392461
99200.638594815609395
99200.539300393778831
99200.443082672718447
99200.349943556386279
99200.257962193703861
99200.166950877377531
99200.080970447816071
99200.00503774585377
99199.940362181645469
99199.882866934407502
99199.825765236120787
99199.763093485235004
99199.693277540820418
99199.618900280620437
99199.544698181809508
99199.474619922184502
99199.410120198488585
99199.349681530176895
99199.291156473904266
99199.233469815677381
99199.176818395208102
99199.121688148137764
99199.067816248090821
99199.014833470238955
99198.963273317553103
99198.91405709303217
99198.867072460707277
99198.821592166321352
99198.776891273708316
99198.733228686658549
99198.691647416722844
99198.653016069685691
99198.617583125218516
99198.583735804859316
99198.548024042378529
99198.505777861413662
99198.453176025417633
99198.388637728494359
99198.313764597085537
99198.232055980581208
99198.146896158737945
99198.061167227278929
99197.976515620408463
99197.893468989655958
99197.812767222931143
99197.735847349395044
99197.664366665383568
99197.599343670764938
99197.540890353964642
99197.487813336905674
99197.438483301069937
99197.391946220013779
99197.347572633152595
99197.304155455567525
99197.259232867858373
99197.20973828707065
99197.153407102421625
99197.090704382324475
99197.024906993872719
99196.960345787403639
99196.899813064330374
99196.843267708012718
99196.788793033978436
99196.733866678594495
99196.677431588061154
99196.619746908836532
99196.56132136983797
99196.501879870309494
99196.441016704775393
99196.378914930028259
99196.315292594270431
99196.249603970849421
99196.181169849878643
99196.1093793107284
99196.035105845512589
99195.068990559506346
99195.07604602498759
99195.087664657941787
99195.102785058057634
99195.119312867798726
99195.135097854479682
99195.148762082331814
99195.16043476217601
99195.171343741327291
99195.183018406751216
99195.196580055344384
99195.21248268042109
99195.230270563290105
99195.248883982450934
99195.26703022509173
99195.283589633472729
99195.297814964025747
99195.309642644569976
99195.319444134744117
99195.328216679132311
99195.337418554059695
99195.348803465341916
99195.363660232309485
99195.382329965461395
99195.403777907922631
99195.425866449630121
99195.446212506474694
99195.462983620396699
99195.475511727898265
99195.484483355859993
99195.491540071117925
99195.498256684062653
99195.505491250776686
99195.513153403284377
99195.520756964702741
99195.528098834765842
99195.535711371310754
99195.544973412048421
99195.557793328145635
99195.57604118315794
99195.600799421983538
99195.631900512598804
99195.668032039306127
99195.706948146980722
99195.74615700171853
99195.78327121505572
99195.816684682256891
99195.845740990363993
99195.87030936278461
99195.890622950915713
99195.907095548842335
99195.920404547199723
99195.931501808590838
99195.941477269501775
99195.951369167451048
99195.961957392879413
99195.973727919074008
99195.986738612395129
99196.000975706221652
99196.016438544000266
99196.033144659129903
99196.051163608542993
99196.070462864343426
99196.090968396441895
99196.112443410660489
99196.134522007967462
99196.156826297650696
99196.178978577299858
99196.200792893811013
99196.222078906110255
99196.242647958744783
99196.26202485167596
99196.279403369728243
99196.293991180704325
99196.305246356903808
99196.312885548250051
99196.316824978202931
99196.317173193281633
99196.31426337355515
99196.308700212000986
99196.301463254130795
99196.293941790921963
99196.287725625952589
99196.284305887311348
99196.2847294594103
99196.289360750000924
99196.297881083548418
99196.30940668459516
99196.322697755269473
99196.336505888815736
99196.349823040436604
99196.362085984234
99196.373166324483464
99196.383318398860865
99196.392985715137911
99196.402502854311024
99196.41193039616337
99196.421009223762667
99196.429294309884426
99196.43633597457665
99196.441872899318696
99196.445882873958908
99196.44852959169657
99196.450088005512953
99196.45084907169803
99196.451109807909233
99196.451211688894546
99196.451528924240847
99196.452383957570419
99196.453906895199907
99196.455950806237524
99196.458106426536688
99196.459706890542293
99196.460002626045025
99196.458483688460547
99196.455054050384206
99196.450138155429158
99196.444642273956561
99196.439752131089335
99196.436655077064643
99196.436227299593156
99196.438851621613139
99196.444366920564789
99196.452089164944482
99196.460969986248529
99196.469843421407859
99196.477782049201778
99196.4843538733694
99196.489763926627347
99196.494858260906767
99196.500976778348559
99196.50965010256914
99196.522180953616044
99196.539294663831242
99196.560894972484675
99196.586089495220222
99196.613370027567726
99196.640925560728647
99196.666978118533734
99196.690125963737955
99196.709658227773616
99196.725690423103515
99196.739143413928105
99196.751436521066353
99196.764046235533897
99196.778076605507522
99196.79391697353276
99196.811101692670491
99196.828413757903036
99196.84413471458538
99196.856428826780757
99196.863721999441623
99196.865098819849663
99196.860488957623602
99196.85063693052507
99196.836842162942048
99196.820594686214463
99196.803221450405545
99196.785692850724445
99196.768564986807178
99196.752052612966509
99196.736153190475306
99196.720765971927904
99196.705757986142999
99196.690889100456843
99196.675739116908517
99196.659696295348112
99196.641997195489239
99196.621751437603962
99196.598086221682024
99196.570332461837097
99196.538173426117282
99196.501746714799083
99196.461667640382075
99196.418972391344141
99196.374973372832756
99196.331067467355751
99196.288531849408173
99196.248329215042759
99196.210986875506933
99196.176494952203939
99196.144292082855827
99196.113384210257209
99196.082494953516289
99196.050274022418307
99196.015518611689913
99195.977314381249016
99195.935115987464087
99195.888729035577853
99195.838242629455635
99195.783953251680941
99195.726373254845385
99195.666242881648941
99195.604516281222459
99195.542261020207661
99195.480571538530057
99195.420378805909422
99195.362269654593547
99195.306347551275394
99195.252230300669908
99195.199172085835016
99195.146309973948519
99195.092922111449298
99195.038626677021966
99194.983483687930857
99194.928065206797328
99194.873377801384777
99194.820622525934596
99194.770862621007836
99194.724739863610012
99194.682326112102601
99194.643174980839831
99194.606450636172667
99194.571128173760371
99194.53625431258115
99194.501203405598062
99194.465850910855806
99194.430619752412895
99194.396367446752265
99194.364196795300813
99194.335188953162287
99194.310235269775148
99194.289942299539689
99194.27454635387403
99194.263900838224799
99194.257614912668942
99194.255203699562117
99194.256257697677938
99194.260625358961988
99194.268533576352638
99194.280558741418645
99194.297601236845367
99194.320820428125444
99194.351422870575334
99194.390463713716599
99194.438694115888211
99194.496547373433714
99194.564153574814554
99194.641430288364063
99194.728204153012484
99194.82437216382823
99194.930015681267832
99195.045434086918249
99195.17115690393257
99195.307917160491343
99195.45656929622055
99195.617973424043157
99195.792942602158291
99195.98224202482379
99196.186533560772659
99196.406359249900561
99196.642185681906994
99196.894408579260926
99197.163360742357327
99225.990264290201594
99226.179283173012664
99225.234458499122411
99225.181444247587933
99225.2382459903165
99225.154279986090842
99225.036644935389631
99224.879847390038776
99224.686926387366839
99224.456441035377793
99224.179289919658913
99223.882383719130303
99223.567927604410215
99223.204808761525783
99222.797925737831974
99222.403018154043821
99222.041595984206651
99221.682187909886125
99221.299768364653573
99220.895795757169253
99220.466454650188098
99220.014572087457054
99219.573554599177442
99219.170857554243412
99218.791132630169159
99218.40574466677208
99218.024143515402102
99217.660225564162829
99217.306042886164505
99216.952052017193637
99216.592025179386837
99216.218429863714846
99215.830389156049932
99215.44221722256043
99215.067223444479168
99214.703486608603271
99214.344463269197149
99213.988516901343246
99213.640872027361183
99213.307249922014307
99212.991880570363719
99212.692046090553049
99212.396713224268751
99212.093178103183163
99211.776495382830035
99211.454821157720289
99211.142639274839894
99210.84845243532618
99210.569821814584429
99210.297291037873947
99210.023328850074904
99209.74930611376476
99209.480477980454452
99209.220766118174652
99208.97035789268557
99208.725773570753518
99208.482988716612454
99208.24277534657449
99208.013786016847007
99207.805230441939784
99207.617426570664975
99207.439282533770893
99207.256414008646971
99207.060813215211965
99206.855862633019569
99206.65378191570926
99206.463271395623451
99206.280988368554972
99206.095934204917285
99205.902841121715028
99205.707070199074224
99205.517372670656187
99205.337431285122875
99205.162409514246974
99204.985560684086522
99204.807763059870922
99204.637065948729287
99204.480994227938936
99204.338574580207933
99204.204190062722773
99204.070713576467824
99203.933946758828824
99203.793035122391302
99203.650052477329154
99203.509130560429185
99203.373630777816288
99203.243049621916725
99203.112932214120519
99202.979544076923048
99202.84287755866535
99202.708136466768337
99202.58024502164335
99202.461422623659018
99202.352305136271752
99202.254660658683861
99202.170310324814636
99202.098820349478046
99202.031537425384158
99201.95912421795947
99201.876199398859171
99201.78461368601711
99201.69059705620748
99201.598331226065056
99201.506452418107074
99201.411398609474418
99201.312768686824711
99201.216026500973385
99201.127913736811024
99201.050040862624883
99200.977165726857493
99200.901611796914949
99200.817742400700809
99200.725883530729334
99200.630205681271036
99200.535381323556066
99200.443763825605856
99200.354694139925414
99200.265924012623145
99200.176817909901729
99200.090370358288055
99200.010791373249958
99199.939958426039084
99199.87537651322782
99199.811630227137357
99199.743710038703284
99199.669856189706479
99199.591960069679772
99199.514236780931242
99199.440839040282299
99199.373631189475418
99199.311390086644678
99199.251641186740017
99199.192996812824276
99199.134927423656336
99199.077273238639464
99199.020001980883535
99198.963486917709815
99198.908378221982275
99198.855143790642614
99198.804328026191797
99198.756493372624391
99198.712075357019785
99198.671159413235728
99198.63335307649686
99198.597526727389777
99198.562364945217269
99198.526443635651958
99198.487209169310518
99198.441064622398699
99198.384880198398605
99198.31726896703185
99198.239633534190943
99198.155316338335979
99198.068254872065154
99197.981432071508607
99197.896335786732379
99197.813614308135584
99197.734029777828255
99197.65881711091788
99197.589393094269326
99197.527108268841403
99197.472383507309132
99197.424482108253869
99197.38188271735271
99197.342490795927006
99197.303840711771045
99197.262885271877167
99197.216571347729769
99197.163016697595594
99197.102341550547862
99197.037143228721106
99196.971556094897096
99196.90877397650911
99196.848729312579962
99196.789137871892308
99196.72764043258212
99196.663808874334791
99196.599692929405137
99196.538318264618283
99196.481174285654561
99196.427542274308507
99196.375291522956104
99196.322304733039346
99196.266548744781176
99196.206263771047816
99196.140178160538198
99196.068193826708011
99195.992178820510162
99195.916387717064936
99195.017930291651282
99195.02208573083044
99195.030719914168003
99195.044072665725253
99195.060870017652633
99195.078524315918912
99195.094359114693361
99195.106881321044057
99195.116430960188154
99195.124812044625287
99195.134365892154165
99195.146816654581926
99195.162814458322828
99195.181926279794425
99195.202670718033914
99195.223115896005766
99195.241586048185127
99195.257111675440683
99195.269677513919305
99195.279878650530009
99195.289018275230774
99195.29910586841288
99195.312420701651718
99195.330506667800364
99195.353504151280504
99195.380033878682298
99195.407400024996605
99195.43263317013043
99195.453471806307789
99195.469088726516929
99195.480250420223456
99195.488589728644001
99195.495869188496727
99195.503263493272243
99195.511140144546516
99195.519362573992112
99195.527812441432616
99195.536804971925449
99195.547289888112573
99195.560725222487235
99195.57862614748592
99195.601963532375521
99195.630697913264157
99195.663887573813554
99195.699740693860804
99195.736152872457751
99195.771143610516447
99195.803193109837594
99195.83135760051664
99195.855052750994219
99195.874159989674808
99195.888952512890683
99195.900251935992856
99195.909413709508954
99195.917957810554071
99195.927180460595991
99195.938014124621986
99195.950918914808426
99195.96596015128307
99195.98284418474941
99196.001404870170518
99196.021815385785885
99196.044348052993882
99196.069273203844205
99196.096459014515858
99196.125273904995993
99196.154768312597298
99196.183887259161565
99196.211769290253869
99196.237738161522429
99196.261478801490739
99196.282831144708325
99196.30161759533803
99196.317652109370101
99196.330949242619681
99196.341707425992354
99196.350179933113395
99196.356581350351917
99196.360984996528714
99196.363359633411164
99196.363727849820862
99196.362448991072597
99196.360464391909773
99196.359188845817698
99196.360216027125716
99196.364900575688807
99196.373971489039832
99196.387286200333619
99196.403907580999658
99196.422384520526975
99196.441206861025421
99196.459214707370847
99196.475815554455039
99196.49106289127667
99196.50551504077157
99196.519942997780163
99196.534950162822497
99196.550656956344028
99196.566621921549086
99196.581987777302857
99196.595785947691184
99196.607242891201167
99196.615966657787794
99196.622032196275541
99196.62590128814918
99196.628245474188589
99196.629827921206015
99196.631422822014429
99196.63371758381254
99196.637152615236118
99196.641770513859228
99196.647226620174479
99196.652866795644513
99196.657878430210985
99196.66154633295082
99196.663527668293682
99196.663932141746045
99196.663303858673316
99196.6625372585695
99196.662650667174603
99196.664510950591648
99196.668611151864752
99196.675013084488455
99196.683335584501037
99196.69288363326632
99196.702788921887986
99196.712175718843355
99196.72042758333555
99196.727413609551149
99196.733585235633655
99196.73987942916574
99196.747572279069573
99196.757977632092661
99196.772144678456243
99196.790597703758976
99196.813176421521348
99196.839064539395622
99196.866965915673063
99196.895341287861811
99196.922713350941194
99196.947854287514929
99196.969954281492392
99196.988807422516402
99197.004847211312153
99197.019121489909594
99197.033047814809834
99197.047960494091967
99197.064752636404592
99197.083590470021591
99197.103810679473099
99197.124041650633444
99197.142532466212288
99197.157581498191576
99197.167919091371004
99197.172990202656365
99197.173019235793618
99197.168878768599825
99197.161796959815547
99197.153034426053637
99197.143631437196746
99197.134294831586885
99197.125418378127506
99197.117179202337866
99197.109602866010391
99197.102592362090945
99197.095958609090303
99197.089355050135055
99197.082246813704842
99197.073891972671845
99197.063428871319047
99197.050038009969285
99197.033120215404779
99197.012425589826307
99196.988115308180568
99196.960779426095542
99196.931369957033894
99196.901049872729345
99196.87097797865863
99196.842098777589854
99196.815038919914514
99196.790064008149784
99196.767044014195562
99196.745480180135928
99196.724597080872627
99196.703504980061552
99196.681388225450064
99196.657613963703625
99196.631730973007507
99196.603454695490655
99196.572644460611627
99196.539274270442547
99196.503461850181338
99196.465542729376466
99196.426093363304972
99196.385898799315328
99196.345876876264811
99196.306898712195107
99196.269637366043753
99196.234415950646508
99196.201151439818204
99196.169385295012034
99196.138430797116598
99196.107569458908984
99196.076276219115243
99196.044409484806238
99196.012357710758806
99195.980960586297442
99195.951317363607814
99195.924552110445802
99195.901587119165924
99195.882920556818135
99195.868497442905209
99195.857721486434457
99195.849622593159438
99195.843129496293841
99195.837360799385351
99195.831835670833243
99195.826591138291406
99195.822122322017094
99195.819277468777727
99195.819139317667577
99195.822797410961357
99195.831117058201926
99195.844606001570355
99195.86341204783821
99195.88736766060174
99195.916058627699385
99195.949035441342858
99195.985988971558982
99196.026878049189691
99196.072018379083602
99196.122081936584436
99196.178043159234221
99196.241066595772281
99196.31230571953347
99196.392665066057816
99196.482681869863882
99196.582516908601974
99196.692071512894472
99196.811155358998803
99196.939654057161533
99197.07765801831556
99197.225517802871764
99197.383826254299493
99197.553334494703449
99197.734846632156405
99197.929101077679661
99198.136743464172469
99198.358322397107258
99198.594309775682632
99198.845160536104231
99199.111361768984352
99199.393404207978165
99199.691805590991862
99200.00707377436629
99222.894974524824647
99224.322776068729581
99224.313130968133919
99224.410277863469673
99224.60072129809123
99224.668643821307342
99224.629622189968359
99224.53459622884111
99224.425485396801378
99224.271257342101308
99224.031006642049761
99223.739262887072982
99223.4291992909275
99223.092246258762316
99222.725037142794463
99222.359727279123035
99222.01208327083441
99221.648477340524551
99221.262260481686099
99220.873812372723478
99220.474778879754012
99220.047763659458724
99219.616094050725223
99219.215841188270133
99218.838086759395082
99218.454369191633305
99218.072826002695365
99217.715408096424653
99217.381097451027017
99217.052438734157477
99216.710968122279155
99216.346111826438573
99215.959125503795804
99215.561043280657032
99215.166576482341043
99214.781942319823429
99214.410013330620131
99214.049375121408957
99213.697129912266973
99213.354405930323992
99213.027736713396735
99212.720789305269136
99212.426456966641126
99212.12889247968269
99211.817254013818456
99211.495529216845171
99211.177792097398196
99210.873267959846999
99210.582914176411578
99210.304623234027531
99210.037090670200996
99209.779108764210832
99209.528086264908779
99209.282001208484871
99209.04017488854879
99208.800694543300779
99208.560451776211266
99208.319697302315035
99208.086277293230523
99207.869341988262022
99207.672201745401253
99207.487961693273974
99207.304701823246432
99207.111570458800998
99206.908134293335024
99206.703530063678045
99206.509274520823965
99206.325940111288219
99206.142911435192218
99205.951987220047158
99205.755475842015585
99205.56211802783946
99205.378460231455392
99205.203318874569959
99205.030776216241065
99204.857006405451102
99204.684716889692936
99204.519111094123218
99204.363047571809147
99204.215150830685161
99204.07206204564136
99203.930541894602356
99203.790190254585468
99203.652036509811296
99203.517726334161125
99203.387344156915788
99203.259904558901326
99203.132480786254746
99203.002359869075008
99202.86978302866919
99202.737989115572418
99202.610719261618215
99202.49079500962398
99202.379872454243014
99202.278262459003599
99202.186682402782026
99202.102388687664643
99202.020785922315554
99201.93560610935674
99201.843569699092768
99201.747336211250513
99201.651802019507159
99201.559825741394889
99201.470369283721084
99201.380056713926024
99201.287982751600794
99201.197750014223857
99201.114777109483839
99201.040517534231185
99200.970394373012823
99200.897239674581215
99200.815677403865266
99200.725567623449024
99200.631199535040651
99200.537566560858977
99200.447555810853373
99200.360693190945312
99200.274828093344695
99200.188680118575576
99200.103069940945716
99200.0202435162646
99199.9421734851785
99199.868466219457332
99199.796020951471291
99199.721605092359823
99199.643533266236773
99199.563740044803126
99199.485983893231605
99199.413644615706289
99199.347745584935183
99199.2866830247076
99199.227622843885911
99199.168512586969882
99199.108711062101065
99199.047896288451739
99198.985318536622799
99198.921233851564466
99198.857346212913399
99198.795600412267959
99198.738342437063693
99198.687898492789827
99198.645089476864086
99198.608448528902954
99198.574821332469583
99198.540605858011986
99198.503429829986999
99198.462498232634971
99198.417411306552822
99198.366208249761257
99198.306377695844276
99198.236370766928303
99198.156999638929847
99198.071460933220806
99197.984012066284777
99197.897759954270441
99197.814162367503741
99197.733750867788331
99197.656682035929407
99197.584409350238275
99197.518790779809933
99197.461216952520772
99197.41175047060824
99197.369778846463305
99197.333537136204541
99197.299877727462444
99197.26498900988372
99197.224518526476459
99197.175259949828614
99197.116901883360697
99197.052098483371083
99196.985516047861893
99196.921028342942009
99196.859874883724842
99196.799584999753279
99196.736374915781198
99196.668019010918215
99196.596423587820027
99196.526918596267933
99196.464686863633688
99196.411671636582469
99196.366412786388537
99196.325357153938967
99196.284026335022645
99196.238574639821309
99196.186224588323967
99196.125165031597135
99196.05557385677821
99195.980111355762347
99195.903961049203645
99194.991066775764921
99194.994379152893089
99195.002159983545425
99195.015021725441329
99195.031566410121741
99195.048908939541434
99195.063946225127438
99195.074931472379831
99195.082238864837564
99195.088014969587675
99195.095093742900644
99195.105790195171721
99195.121058135846397
99195.140165695993346
99195.161329484326416
99195.182328804308781
99195.201387999317376
99195.217386572796386
99195.230068386023049
99195.240377644251566
99195.250229454279179
99195.262160517799202
99195.278526184585644
99195.3007183784066
99195.328607461386127
99195.360345183929894
99195.392846107919468
99195.422773232625332
99195.447690700297244
99195.466774114654982
99195.480703637804254
99195.491103822481818
99195.499792520160554
99195.508189836065867
99195.517125660189777
99195.526774139230838
99195.537048758880701
99195.547967645528843
99195.559962576458929
99195.573982129761134
99195.591136609218665
99195.612349318209453
99195.638031138310907
99195.667816618646611
99195.700574839051114
99195.734756298872526
99195.76874533391674
99195.800800441793399
99195.829482965011266
99195.85358836389787
99195.872431437121122
99195.88621093032998
99195.896063120046165
99195.90377406909829
99195.911316204801551
99195.920285290048923
99195.931579536423669
99195.945412325803773
99195.96154058079992
99195.979732917068759
99196.00009431518265
99196.023053252094542
99196.049270728777628
99196.079198371589882
99196.112603648682125
99196.148496373396483
99196.185289463173831
99196.221284668587032
99196.254976815151167
99196.285350032005226
99196.311963016793015
99196.334781770885456
99196.353973672667053
99196.369909644068684
99196.383183495199773
99196.394545139133697
99196.404740576210315
99196.414224399850355
99196.422998584937886
99196.43063738134515
99196.436694990436081
99196.441149180420325
99196.444704023044324
99196.448769553957391
99196.455086021349416
99196.465215301592252
99196.480045672142296
99196.499467038331204
99196.522392674087314
99196.547099700677791
99196.571771613365854
99196.594975619140314
99196.616046116396319
99196.635196410832577
99196.653334612055914
99196.671645299342345
99196.691064044454833
99196.711847709811991
99196.733461334864842
99196.754743716388475
99196.774324905971298
99196.791050565385376
99196.804306311765686
99196.814114926048205
99196.821052196275559
99196.826074585755123
99196.830279000409064
99196.834633096252219
99196.839849577125278
99196.84625542377762
99196.853794600974652
99196.861998369073262
99196.87017628356989
99196.877664520550752
99196.884010630179546
99196.889121694170171
99196.893307247577468
99196.897154483245686
99196.901387903737486
99196.906690400661319
99196.91349712999363
99196.921869815167156
99196.931561655874248
99196.942163934902055
99196.953154833012377
99196.963972668585484
99196.974195954549941
99196.983663016711944
99196.992512441865983
99197.00114949773706
99197.010223751800368
99197.020549809822114
99197.033040925773093
99197.048478282580618
99197.067273061678861
99197.089424273988698
99197.114531570157851
99197.141834497524542
99197.17030883897678
99197.198800655256491
99197.226171292859362
99197.251435359183233
99197.273958967911312
99197.293652606065734
99197.311050792864989
99197.32725862719235
99197.343676023723674
99197.36158639054338
99197.381768467326765
99197.404202897028881
99197.428022616863018
99197.451764577373979
99197.473763725080062
99197.492545021450496
99197.507166270777816
99197.517382890131557
99197.523605248235981
99197.526731229329016
99197.527867309763678
99197.528031358218868
99197.527968980459264
99197.528132478037151
99197.528731721075019
99197.529797467956087
99197.531255594265531
99197.532954331894871
99197.534651505324291
99197.535957368119853
99197.536334906661068
99197.535184647902497
99197.531923765913234
99197.526123301766347
99197.517642173363129
99197.506669054593658
99197.493687513691839
99197.479401783668436
99197.464625180262374
99197.450103628245415
99197.436369536677375
99197.423671114098397
99197.411942834805814
99197.400887359675835
99197.390081075704074
99197.379125760242459
99197.367746771182283
99197.355797540440108
99197.34322995088587
99197.330050770731759
99197.316255512312637
99197.301809029304422
99197.286662358164904
99197.27082209449145
99197.254416054143803
99197.237747001243406
99197.221259419151465
99197.205464088736335
99197.190844925426063
99197.177733790565981
99197.166212481213734
99197.156043828901602
99197.14673921452777
99197.137756685420754
99197.128699870605487
99197.119478574531968
99197.110398223027005
99197.102106336446013
99197.095510098952218
99197.091662095757783
99197.091563318914268
99197.095920325096813
99197.10498557187384
99197.118530090650893
99197.135907466290519
99197.156190092340694
99197.178393988506286
99197.201733810667065
99197.225836076540872
99197.250820484026917
99197.277251244697254
99197.306015692418441
99197.338157515288913
99197.374739366961876
99197.416598839947255
99197.464196852917667
99197.517628927264013
99197.576699690442183
99197.641053452563938
99197.710300563630881
99197.7841592427867
99197.862615027712309
99197.946030797902495
99198.035135323021677
99198.13088425238675
99198.23425824395963
99198.346132143909927
99198.467235595264356
99198.598028446591343
99198.738620907592122
99198.888859713959391
99199.04855048796162
99199.217663135714247
99199.396457308976096
99199.585523447400192
99199.78568968878244
99199.997857612732332
99200.222834438463906
99200.461237752286252
99200.713452457654057
99200.979692832916044
99201.260139251273358
99201.555069780006306
99201.864913491415791
99202.190266715842881
99202.531843548946199
99202.890397995142848
99203.266614520645817
99224.169704964820994
99225.240755782157066
99224.991285789656104
99224.826261411799351
99224.87372777449491
99224.940868696241523
99224.877939666563179
99224.739228435166297