/*--------------------------------*- C++ -*----------------------------------*\
  =========                 |
  \\      /  F ield         | OpenFOAM: The Open Source CFD Toolbox
   \\    /   O peration     | Website:  https://openfoam.org
    \\  /    A nd           | Version:  12
     \\/     M anipulation  |
\*---------------------------------------------------------------------------*/
FoamFile
{
    format      ascii;
    class       volScalarField;
    location    "0.0095";
    object      pPrime2Mean;
}
// * * * * * * * * * * * * * * * * * * * * * * * * * * * * * * * * * * * * * //

dimensions      [2 -2 -4 0 0 0 0];

internalField   nonuniform List<scalar> 
75962
(
1158858.6719417572021
1139897.5700950622559
1131953.7687892913818
1126442.6970443725586
1122241.7263469696045
1118531.432653427124
1114998.9872493743896
1111612.5976219177246
1108305.3573799133301
1105065.6506786346436
1101913.2995262145996
1098912.3830261230469
1095998.9531326293945
1093030.3702392578125
1090095.1994476318359
1087437.877103805542
1085097.1019020080566
1082937.4912948608398
1080791.6067180633545
1078567.9723243713379
1076233.8527603149414
1073839.8014373779297
1071549.0878963470459
1069470.4729042053223
1067586.4918308258057
1065866.4904098510742
1064350.1797714233398
1063070.9687442779541
1062008.8218650817871
1061111.6575889587402
1060335.1261386871338
1059622.6143589019775
1058920.4463329315186
1058237.2470760345459
1057602.3903846740723
1056995.9386253356934
1056369.3689231872559
1055710.0165920257568
1055030.8532791137695
1054351.3544158935547
1053681.0401039123535
1053003.7359504699707
1052287.5763149261475
1051502.8981590270996
1050632.3064212799072
1049688.0021533966064
1048698.036262512207
1047690.9030799865723
1046666.3806495666504
1045571.8999652862549
1044353.1451797485352
1043013.7032032012939
1041585.9107990264893
1040090.5213356018066
1038540.139440536499
1036941.7505931854248
1035298.0582046508789
1033626.2794437408447
1031974.8286094665527
1030392.2727470397949
1028902.9453144073486
1027486.0680980682373
1026095.397762298584
1024700.7685031890869
1023314.0242710113525
1021970.9352722167969
1020685.6954441070557
1019437.5659236907959
1018190.6979713439941
1016929.0210056304932
1015668.9443454742432
1014431.2003021240234
1013203.9386692047119
1011951.7182998657227
1010652.8787631988525
1009323.5568408966064
1008006.1317653656006
1006730.0803203582764
1005490.681676864624
1004255.9288959503174
1002997.0263748168945
1001701.5081806182861
1000368.453649520874
999010.63727951049805
997656.45397758483887
996335.47640037536621
995052.38037490844727
993788.82108688354492
992528.34231948852539
991276.99422454833984
990059.42244720458984
988896.95603179931641
987794.61790084838867
986751.55640029907227
985780.34581756591797
984903.55572319030762
984123.33013725280762
983406.45422554016113
982699.005859375
981959.21257019042969
981175.3695182800293
980363.55970001220703
979542.40594673156738
978708.45578956604004
977841.82717514038086
976940.57586669921875
976030.46460914611816
975139.2889461517334
974266.68572235107422
973379.70792007446289
972434.13735008239746
971402.43974113464355
970284.23843383789062
969099.72302055358887
967872.96702575683594
966614.7210750579834
965320.4785327911377
963978.64178276062012
962584.83946800231934
961151.68781661987305
959698.1844425201416
958232.87950134277344
956747.38447189331055
955225.20571708679199
953651.78917694091797
952026.4383487701416
950365.64807319641113
948696.8431453704834
947044.98054695129395
945424.70880126953125
943840.52898788452148
942294.23511123657227
940787.53177452087402
939320.14277267456055
937890.36549186706543
936497.17258071899414
935142.9479923248291
933832.01300811767578
932568.14819145202637
931351.20292663574219
930177.24819564819336
929038.89328002929688
927929.90612030029297
926846.42677688598633
925784.94937705993652
924742.59166526794434
923713.22728157043457
922683.20719337463379
921631.1747989654541
920532.49821472167969
919368.16059494018555
918130.86211013793945
916826.76278495788574
915469.83173179626465
914076.66037178039551
912659.60823440551758
911226.37858581542969
909783.42798233032227
908338.30977821350098
906898.16207313537598
905462.70321083068848
904021.99949836730957
902563.46084213256836
901083.57625389099121
899590.0770149230957
898091.96028709411621
896589.2266731262207
895070.93217658996582
893524.84194755554199
891949.20249366760254
890356.59589195251465
888766.92985725402832
887198.61135673522949
885662.67747116088867
884159.4449405670166
882682.47107696533203
881223.81556510925293
879780.5098876953125
878353.87239837646484
876946.92477798461914
875561.26631546020508
874198.04184341430664
872860.23681640625
871550.06661224365234
870265.47480583190918
868998.58600807189941
867739.08697319030762
866483.74521255493164
826640.96809387207031
825750.17597770690918
824861.88687324523926
823973.25434303283691
823078.02127456665039
822169.57132530212402
821242.88897132873535
820296.19476699829102
819330.96930122375488
818351.83845520019531
817365.34032249450684
816377.45990753173828
815390.94449234008789
814405.12789344787598
813416.28075981140137
812418.30473518371582
811403.38898086547852
810365.42802429199219
809302.72781181335449
808220.56243705749512
807129.59502601623535
806042.26470756530762
804965.75137329101562
803899.06744194030762
802835.04584884643555
801765.85163116455078
800686.88500595092773
799596.92326736450195
798497.70849990844727
797394.21762084960938
796294.35170364379883
795206.09144973754883
794135.78542327880859
793087.97540283203125
792066.71518325805664
791076.1546630859375
790120.34609603881836
789202.84307098388672
788325.39356994628906
787486.8122730255127
786682.9550952911377
785908.35533142089844
785157.57041168212891
784424.80686569213867
783704.50251770019531
782990.51767730712891
782276.97990608215332
781558.6471118927002
780831.36934471130371
780093.84663581848145
779347.42682647705078
778595.50727462768555
777842.18605804443359
777090.65347480773926
776342.22192764282227
775595.53723335266113
774847.01331329345703
774092.35628128051758
773330.07670783996582
772562.15869903564453
771792.2136173248291
771022.62663269042969
770252.45161628723145
769477.88697052001953
768694.3827018737793
767899.21145057678223
767092.76339912414551
766277.37515449523926
765455.92521286010742
764629.53022193908691
763797.71146583557129
762958.01809120178223
762106.07304000854492
761237.04205703735352
760347.31445693969727
759435.95685195922852
758504.55063247680664
757555.13726806640625
756588.26434326171875
755603.50277519226074
754601.96379852294922
753587.75679206848145
752566.50883674621582
751542.49031257629395
750517.0405101776123
749489.06494140625
748456.5667667388916
747417.98197364807129
746372.74814796447754
745320.87213516235352
744261.81534004211426
743194.20386123657227
742117.06562423706055
741031.43924140930176
739940.335205078125
738847.1201000213623
737753.33869934082031
736657.9779224395752
735558.95552444458008
734455.87071800231934
733351.61083793640137
732251.26750373840332
731159.88924217224121
730080.87244033813477
729015.40464019775391
727962.35290145874023
726919.01310920715332
725882.80609703063965
724852.64957809448242
723828.76862335205078
722811.45757675170898
721800.75539398193359
720796.87691116333008
719800.4448413848877
718811.83621025085449
717830.48910140991211
716855.7937068939209
715888.72856140136719
714933.04112434387207
713994.98747634887695
713080.96351051330566
712194.20768737792969
711333.0756664276123
710492.16940498352051
709664.86569976806641
708845.20655822753906
708028.66516876220703
707212.19874000549316
706394.48035430908203
705576.59662246704102
704762.59308052062988
703958.49960136413574
703169.79458045959473
702398.64852523803711
701642.43691062927246
700894.45507431030273
700145.73755645751953
699386.74783325195312
698608.33545875549316
697802.836669921875
696965.93574333190918
696098.57361602783203
695207.47280311584473
694303.27474403381348
693396.78494453430176
692495.02742004394531
691599.08126831054688
690704.76686668395996
689805.10457801818848
688892.21139907836914
687958.02962875366211
686994.80769729614258
685996.82624435424805
684962.88856887817383
683897.58888053894043
682809.90140533447266
681709.78134536743164
680605.27963256835938
679501.65704154968262
678402.29009819030762
677310.11191749572754
676228.20448303222656
675159.3091926574707
674104.62947273254395
673063.16942977905273
672032.42376518249512
671009.66749572753906
669992.58478927612305
668979.08935928344727
667967.0013256072998
666954.310546875
665940.18220520019531
664926.03287696838379
663915.67385292053223
662914.45732116699219
661928.02699661254883
660961.41179847717285
660018.51489067077637
659101.96342849731445
658213.21137046813965
657352.73992538452148
656519.88579177856445
655712.16682052612305
654924.63076400756836
654149.99524116516113
653379.91905212402344
652606.99383163452148
651826.57085800170898
651037.55040168762207
650241.82057571411133
649442.6345100402832
648642.92807769775391
647844.65028190612793
647049.30874252319336
646259.13585472106934
645477.56929016113281
644708.49784088134766
643954.8043212890625
643217.31117057800293
642494.54882049560547
641783.15779113769531
641078.61467742919922
640376.15851402282715
639671.80082702636719
638963.25136947631836
638250.31676483154297
637534.61574554443359
636818.71762466430664
636104.84856796264648
635393.48600578308105
634682.32802963256836
633966.59967994689941
633240.76195907592773
632500.67488479614258
631744.67836570739746
630972.96988868713379
630186.22459411621094
629384.8895320892334
628569.56928443908691
627741.81362342834473
626904.26194763183594
626060.24989128112793
625213.24494934082031
624366.40476226806641
623522.39072227478027
622683.15688133239746
621849.72236824035645
621021.92778015136719
620198.38808250427246
619376.72883033752441
618554.45711517333984
617730.36416053771973
616905.89560127258301
616085.36550331115723
615274.466796875
614477.90079879760742
613697.62080192565918
612932.64604949951172
612180.26968002319336
611437.53135108947754
610702.10455703735352
609972.62172508239746
609248.95963287353516
608532.59782409667969
607826.50585174560547
607134.11861610412598
606458.06388854980469
605799.56701850891113
605158.77826881408691
604535.51270484924316
603929.73511505126953
603341.4796314239502
602770.35285758972168
602214.87538146972656
1177287.5751972198486
1151807.7717208862305
1140978.7184982299805
1133044.7614097595215
1127102.3059730529785
1122486.2623863220215
1118663.4547538757324
1115055.5210971832275
1111541.324197769165
1108084.6049613952637
1104584.0524806976318
1101120.0615272521973
1097714.8701572418213
1094286.1962585449219
1090921.2034549713135
1087883.4088172912598
1085255.7882022857666
1082883.2624797821045
1080650.3973751068115
1078517.7369022369385
1076393.9442386627197
1074222.9097690582275
1072123.7400913238525
1070204.2256927490234
1068398.8333110809326
1066636.9946041107178
1064995.2285308837891
1063549.7014846801758
1062310.9765090942383
1061260.7264003753662
1060367.7670269012451
1059575.5464744567871
1058837.1926116943359
1058154.5872249603271
1057536.3405342102051
1056953.444730758667
1056366.040225982666
1055747.3026256561279
1055084.9379501342773
1054386.7415103912354
1053673.5795803070068
1052948.5572395324707
1052180.0591793060303
1051322.8973121643066
1050346.0815010070801
1049269.1537437438965
1048145.182897567749
1047014.4894905090332
1045873.6381072998047
1044684.8119697570801
1043413.5738735198975
1042058.5877723693848
1040644.5102214813232
1039184.5034008026123
1037679.3303833007812
1036118.2895641326904
1034496.8586101531982
1032830.0882225036621
1031163.8807601928711
1029555.804744720459
1028038.21071434021
1026607.2648639678955
1025230.1309757232666
1023871.5207481384277
1022528.2831649780273
1021229.4454040527344
1019996.9570960998535
1018812.8495426177979
1017632.0992660522461
1016426.658634185791
1015210.7389640808105
1014005.6431007385254
1012809.7424430847168
1011599.6501655578613
1010354.7667388916016
1009082.8478775024414
1007813.3569946289062
1006571.1005859375
1005347.7365055084229
1004120.0030860900879
1002861.7811450958252
1001566.8012828826904
1000247.9620323181152
998925.20724487304688
997615.67507553100586
996328.58076858520508
995062.87390518188477
993808.5352954864502
992556.6054515838623
991315.32750511169434
990110.21018600463867
988962.13872337341309
987874.19870376586914
986841.2347412109375
985869.85586166381836
984974.23115348815918
984160.26193046569824
983393.34430694580078
982628.21993827819824
981828.02902984619141
980985.01902008056641
980118.71403312683105
979249.75940322875977
978376.72953605651855
977483.16524505615234
976565.09860420227051
975642.35296249389648
974736.91977500915527
973846.4231014251709
972938.7546443939209
971974.27030754089355
970928.25809097290039
969803.63182640075684
968620.43844604492188
967398.77577590942383
966149.73556900024414
964871.86956787109375
963554.23267936706543
962186.28706169128418
960771.53158378601074
959322.51175689697266
957848.4263801574707
956346.70861053466797
954807.49707412719727
953220.9998836517334
951585.41935539245605
949912.89119529724121
948227.55685806274414
946555.49106216430664
944914.1998462677002
943310.44017791748047
941745.16491889953613
940218.35276985168457
938726.47733497619629
937264.05084991455078
935830.48323059082031
934432.82009506225586
933078.45955085754395
931772.20485877990723
930517.62470436096191
929314.93506240844727
928161.73112297058105
927052.54839134216309
925976.64969635009766
924918.82024955749512
923867.37723159790039
922817.43998908996582
921763.68371391296387
920692.67291069030762
919583.39071273803711
918415.85085678100586
917181.4953670501709
915885.56989097595215
914543.69958114624023
913172.3582649230957
911782.31879997253418
910380.31184005737305
908973.57282638549805
907571.32798767089844
906180.45444297790527
904800.17596626281738
903420.25105667114258
902029.67342758178711
900624.89190292358398
899207.96924018859863
897779.84988784790039
896334.41616439819336
894857.92938804626465
893338.58116149902344
891779.03693580627441
890198.72573852539062
888623.65910911560059
887073.41299247741699
885552.74564552307129
884054.69674682617188
882567.46853637695312
881086.00209045410156
879617.79088020324707
878177.21974563598633
876774.57350158691406
875411.76727104187012
874083.47821998596191
872782.37961578369141
871500.89201545715332
870231.34238624572754
868964.69496726989746
867694.04214668273926
866421.64181327819824
865163.48609352111816
827570.42875862121582
826663.1390495300293
825760.68062973022461
824863.67462539672852
823966.85920143127441
823060.84352874755859
822136.94339752197266
821190.42534065246582
820221.37731742858887
819234.01195526123047
818235.80112457275391
817235.21110534667969
816239.13827896118164
815250.91557121276855
814268.62191200256348
813285.78743171691895
812292.71591186523438
811278.86063385009766
810237.67241668701172
809169.6191349029541
808083.43623542785645
806993.27162170410156
805913.04593467712402
804850.04898262023926
803802.00386428833008
802759.86305618286133
801713.16022491455078
800655.00802993774414
799582.64522552490234
798496.60233688354492
797400.92977523803711
796303.08251571655273
795212.48544692993164
794137.84990501403809
793086.57526016235352
792065.34416770935059
791079.45614624023438
790131.43223190307617
789220.88445854187012
788345.54031562805176
787502.21929168701172
786687.43428611755371
785897.45008087158203
785129.04058074951172
784378.24283981323242
783640.41557884216309
782909.88087272644043
782180.09630393981934
781444.53433227539062
780697.33296203613281
779935.4993724822998
779159.87424278259277
778375.63819885253906
777590.91146469116211
776813.08238410949707
776045.205078125
775285.08179473876953
774527.01486968994141
773765.21689414978027
772996.17033004760742
772220.2024040222168
771440.43753051757812
770659.94189262390137
769880.02354621887207
769098.8643970489502
768312.1624927520752
767515.50705528259277
766706.33389854431152
765885.08502197265625
765053.33106803894043
764212.41014289855957
763362.23748970031738
762501.66900253295898
761628.93322944641113
760741.82455444335938
759838.20295906066895
758917.45429611206055
757981.15812683105469
757031.2180290222168
756067.54438591003418
755088.35905456542969
754093.09298896789551
753084.4844799041748
752067.22376251220703
751045.08493423461914
750019.49319267272949
748990.18597793579102
747956.23468399047852
746916.53886032104492
745870.21503257751465
744816.63833808898926
743755.03985023498535
742684.1742992401123
741603.27013969421387
740513.90856552124023
739420.64530754089355
738328.78005790710449
737240.93888854980469
736155.40199851989746
735067.83367538452148
733975.09617805480957
732877.82269096374512
731780.10931396484375
730687.30764770507812
729604.0158576965332
728532.8150749206543
727474.09432792663574
726427.04769134521484
725391.45452499389648
724368.25520324707031
723358.19671058654785
722360.23318290710449
721371.66492462158203
720390.1340274810791
719415.08341026306152
718447.61782646179199
717489.01938629150391
716540.00525665283203
715601.70392227172852
714677.11068916320801
713771.25200080871582
712888.98211860656738
712031.93809509277344
711197.19062232971191
710378.76380920410156
709570.33527755737305
708766.79803276062012
707964.33146476745605
707160.26154899597168
706353.64340782165527
705546.25754737854004
704742.69688606262207
703948.84342956542969
703169.31968688964844
702405.32915878295898
701654.06244659423828
700909.41608619689941
700163.31551361083984
699407.03802299499512
698632.1298942565918
697831.30207824707031
696999.91156959533691
696137.6656322479248
695249.36710929870605
694343.84493064880371
693430.93473625183105
692517.8243465423584
691607.11292266845703
690697.32647895812988
689784.60435676574707
688863.625732421875
687927.58592987060547
686968.68536376953125
685980.15670585632324
684959.11017227172852
683908.17258644104004
682834.47823143005371
681746.74560356140137
680652.68389511108398
679557.98814964294434
678466.57255744934082
677381.39222145080566
676305.03127288818359
675239.53472900390625
674185.90850639343262
673144.02349853515625
672113.09964942932129
671092.20960998535156
670080.12121772766113
669074.67048835754395
668072.70685386657715
667071.15594482421875
666068.56316757202148
665066.05657577514648
664067.15655136108398
663076.69059562683105
662099.64383506774902
661140.38960838317871
660202.24291801452637
659287.27811813354492
658396.47052574157715
657529.89345169067383
656686.71564292907715
655864.84539222717285
655060.50774192810059
654268.27101898193359
653481.82236480712891
652695.28722953796387
651904.58220291137695
651108.44419288635254
650308.43773460388184
649507.71825790405273
648709.31990242004395
647915.08761978149414
647125.98751068115234
646343.2308177947998
645569.02461624145508
644806.18997383117676
644056.93022537231445
643321.69362640380859
642598.89386177062988
641885.44926643371582
641177.58262634277344
640471.70558166503906
639765.2207202911377
639056.86235046386719
638346.45754432678223
637634.53744888305664
636922.18542861938477
636210.70262718200684
635500.57821273803711
634790.12175941467285
634075.01603698730469
633349.72449684143066
632609.87532424926758
631853.69464111328125
631081.55831336975098
630294.42896270751953
629492.97618675231934
628677.8073787689209
627850.1197509765625
627012.08981323242188
626166.42933654785156
625315.66381645202637
624461.74980735778809
623606.40878105163574
622751.82931137084961
621900.95008850097656
621056.58551597595215
620219.68940544128418
619388.40168952941895
618558.98957061767578
617728.36974334716797
616896.27752876281738
616065.73123741149902
615241.53765487670898
614428.00234031677246
613627.42843437194824
612839.96606636047363
612064.33714294433594
611298.66879272460938
610540.96380424499512
609789.32898902893066
609042.51634216308594
608300.73485374450684
607566.07596206665039
606841.92898941040039
606131.61214256286621
605437.32450485229492
604760.22332954406738
604101.29499244689941
603461.88614463806152
602843.35376358032227
602246.04922294616699
601668.29648780822754
1152453.0408592224121
1137662.9970245361328
1131187.0683441162109
1125652.5617198944092
1121090.1793003082275
1117406.3564853668213
1114280.6277179718018
1111408.6459445953369
1108747.5525131225586
1106090.8147411346436
1103189.6636543273926
1100096.8183078765869
1096955.2638511657715
1093757.7315616607666
1090504.0695419311523
1087395.9245185852051
1084583.0743732452393
1081999.7334804534912
1079632.8985538482666
1077515.6382522583008
1075564.0385303497314
1073642.4204368591309
1071770.5005264282227
1070062.4043731689453
1068456.9113826751709
1066851.3143692016602
1065289.5857124328613
1063872.9810771942139
1062624.3098049163818
1061511.1379299163818
1060505.1089897155762
1059575.5444641113281
1058711.8972702026367
1057913.6385726928711
1057181.8481197357178
1056509.1712131500244
1055889.249340057373
1055293.7976722717285
1054685.641716003418
1054039.2199726104736
1053361.8605422973633
1052663.5230083465576
1051914.7189655303955
1051054.4171504974365
1050046.6105804443359
1048909.6657867431641
1047705.2713069915771
1046484.2306671142578
1045249.6811122894287
1043979.3105773925781
1042662.6643962860107
1041299.0829391479492
1039891.7648086547852
1038443.8896350860596
1036958.1982498168945
1035421.1809349060059
1033812.3119888305664
1032138.2214641571045
1030443.146240234375
1028793.5895233154297
1027234.0759201049805
1025769.5356884002686
1024373.2372341156006
1023006.3407192230225
1021652.3407859802246
1020332.1805095672607
1019082.8430500030518
1017906.6330699920654
1016759.6302394866943
1015597.8439960479736
1014418.559497833252
1013240.1475830078125
1012073.905445098877
1010912.9164505004883
1009739.9936218261719
1008549.9076232910156
1007351.6449031829834
1006156.5209941864014
1004961.3432941436768
1003752.1563625335693
1002511.4275093078613
1001238.5937461853027
999953.18236923217773
998674.18402099609375
997407.21284294128418
996148.17238426208496
994893.45531463623047
993643.82253646850586
992400.13468742370605
991169.64726829528809
989970.08065605163574
988818.80239868164062
987719.46590614318848
986669.41415214538574
985668.83624267578125
984727.68458938598633
983844.24795722961426
982998.51735305786133
982156.79768943786621
981290.29388809204102
980393.61745262145996
979481.92990112304688
978572.29146194458008
977668.66931343078613
976761.12576484680176
975840.53000259399414
974913.30770683288574
973994.22922325134277
973084.5751953125
972161.55178260803223
971189.45739364624023
970143.13480377197266
969024.24293899536133
967852.06121635437012
966647.17744445800781
965422.87530517578125
964181.57538795471191
962910.99515533447266
961592.70975494384766
960216.75254058837891
958787.66693878173828
957316.9214916229248
955810.42783737182617
954266.39391708374023
952681.18694877624512
951053.26867294311523
949391.65913581848145
947715.07222938537598
946046.10336875915527
944401.51871871948242
942790.08322334289551
941215.12565422058105
939676.61353874206543
938168.92788696289062
936683.31855010986328
935215.70791053771973
933771.32006454467773
932360.82832717895508
930996.24760627746582
929690.07476615905762
928450.51283645629883
927277.56195259094238
926161.06781387329102
925080.03055000305176
924008.37349891662598
922928.37653541564941
921838.05280876159668
920742.29146003723145
919636.24825859069824
918502.86989974975586
917322.88156509399414
916086.61629486083984
914799.81472206115723
913479.02738952636719
912139.30639457702637
910789.38446807861328
909434.95257377624512
908081.52169799804688
906737.16267013549805
905407.49752616882324
904091.33337211608887
902780.44916534423828
901468.73815536499023
900152.95217704772949
898828.4377555847168
897486.67447471618652
896114.07949447631836
894694.83604621887207
893220.80846977233887
891700.95472145080566
890161.30945587158203
888629.1728458404541
887120.25366020202637
885631.52589797973633
884148.45151901245117
882656.95587539672852
881159.1633415222168
879675.47036170959473
878231.18390846252441
876841.49859237670898
875507.6171760559082
874218.69923210144043
872956.29254150390625
871702.18231582641602
870442.8602409362793
869169.87874984741211
867881.16393661499023
866585.10970687866211
865303.01691436767578
827671.91459465026855
826739.09165000915527
825813.2745189666748
824894.32561302185059
823974.88114738464355
823043.92951393127441
822092.37191200256348
821116.60305404663086
820118.66832733154297
819104.82847595214844
818083.74337196350098
817064.42011451721191
816053.71380996704102
815053.92232894897461
814062.70222473144531
813072.34505844116211
812071.64273262023926
811049.35187721252441
809999.2964916229248
808924.43900108337402
807836.08555793762207
806750.1634578704834
805681.01507759094238
804635.75978851318359
803611.72687721252441
802598.43627548217773
801583.42872428894043
800557.4228630065918
799515.80150032043457
798457.6014232635498
797385.63386726379395
796306.98659133911133
795231.65935897827148
794170.00604820251465
793131.2520694732666
792122.72032928466797
791149.25234603881836
790211.33906936645508
789305.25411033630371
788425.87307167053223
787569.41266250610352
786734.69747734069824
785921.88274002075195
785130.4891357421875
784358.43974494934082
783601.83295249938965
782854.80139350891113
782109.07661247253418
781356.3266429901123
780589.36708831787109
779803.8345947265625
779000.24357986450195
778185.27036476135254
777370.07622146606445
776565.16949653625488
775774.87948799133301
774996.25834465026855
774222.44975280761719
773446.80131149291992
772665.29383277893066
771877.20932006835938
771084.57654571533203
770291.42528533935547
769501.27397727966309
768714.02112007141113
767925.2820987701416
767128.5126781463623
766318.44453811645508
765492.80636596679688
764651.85585594177246
763796.84724617004395
762929.07051849365234
762049.75231170654297
761159.85958099365234
760259.16639518737793
759346.13762283325195
758419.79593467712402
757481.20498085021973
756531.88895797729492
755571.19262313842773
754596.68915748596191
753607.25618743896484
752605.19968414306641
751594.99133110046387
750580.31347465515137
749562.68053245544434
748542.18108177185059
747518.12773895263672
746489.10087966918945
745453.06973648071289
744407.90292167663574
743351.79936599731445
742283.51634407043457
741203.17873954772949
740113.66830635070801
739020.94242858886719
737931.87793350219727
736850.39406204223633
735775.09341621398926
734700.58779335021973
733621.60745239257812
732536.43449974060059
731447.62469100952148
730360.25225257873535
729279.34127044677734
728208.23521423339844
727148.53057479858398
726101.27462196350098
725068.40851402282715
724052.36426734924316
723054.12224578857422
722071.53023529052734
721100.35976219177246
720137.2656135559082
719181.82032012939453
718236.12489318847656
717302.72857666015625
716383.02098274230957
715477.71553230285645
714588.36336708068848
713717.62727355957031
712867.76327514648438
712038.5045051574707
711226.60641288757324
710427.15370941162109
709635.32425308227539
708847.05514144897461
708058.60647201538086
707266.79339408874512
706470.4075813293457
705671.49571418762207
704874.91178703308105
704086.20944786071777
703309.16190147399902
702544.48618125915527
701789.88104629516602
701040.74603462219238
700290.94168090820312
699533.43189811706543
698760.80210304260254
697966.01453971862793
697143.67094612121582
696291.6475830078125
695412.27633666992188
694511.85273742675781
693598.46642684936523
692679.07998657226562
691757.64710998535156
690835.13366508483887
689910.31085205078125
688980.04634857177734
688039.03356170654297
687080.3880615234375
686097.80257225036621
685088.31539154052734
684053.62797355651855
682999.06723022460938
681931.25987815856934
680856.31135368347168
679779.16109275817871
678703.54748725891113
677632.03196334838867
676566.32919883728027
675507.66118621826172
674456.91985511779785
673414.68637084960938
672381.45499610900879
671357.6794490814209
670343.28357696533203
669337.06602478027344
668336.68746185302734
667339.58334922790527
666344.33712577819824
665351.48561859130859
664363.36870956420898
663383.37835311889648
662415.1264762878418
661461.80924034118652
660525.83144760131836
659608.63213539123535
658710.73173332214355
657831.80365943908691
656970.81742858886719
656126.13449478149414
655295.64537811279297
654476.74416351318359
653666.18017387390137
652860.37184143066406
652056.36952018737793
651252.91782569885254
650450.90580368041992
649652.5821704864502
648860.05364608764648
648074.27933883666992
647295.22585678100586
646522.94082450866699
645758.40157127380371
645003.11663246154785
644258.0257396697998
643522.6463680267334
642795.14034271240234
642073.09118843078613
641354.32110977172852
640637.42257308959961
639921.84381484985352
639207.53307342529297
638494.35494995117188
637781.91535186767578
637069.95986366271973
636358.73019790649414
635648.22188186645508
634936.74917411804199
634220.23551559448242
633493.34228515625
632751.75875091552734
631993.71425628662109
631219.6601505279541
630430.76186370849609
629627.81922149658203
628811.34063911437988
627982.26938438415527
627142.49196815490723
626294.60064315795898
625440.82891654968262
624582.34216117858887
623719.72916030883789
622854.60935020446777
621990.67012214660645
621132.76113319396973
620284.23698043823242
619444.78871726989746
618610.79396820068359
617777.92669486999512
616943.97969055175781
616109.8421573638916
615278.39772033691406
614452.64162445068359
613634.44611930847168
612824.49503135681152
612022.95344734191895
611230.04792213439941
610445.95541763305664
609670.41370391845703
608902.72509002685547
608142.37885665893555
607389.77434539794922
606646.37155723571777
605913.89138221740723
605193.52640914916992
604486.0419750213623
603792.71280670166016
603116.11696624755859
602459.87018775939941
601827.07651519775391
601218.41937637329102
600631.09370994567871
1168615.4844264984131
1146602.7026081085205
1136402.7444763183594
1128300.6641635894775
1121826.3316688537598
1116691.7839908599854
1112457.0538940429688
1108930.4082641601562