/*--------------------------------*- C++ -*----------------------------------*\
  =========                 |
  \\      /  F ield         | OpenFOAM: The Open Source CFD Toolbox
   \\    /   O peration     | Website:  https://openfoam.org
    \\  /    A nd           | Version:  12
     \\/     M anipulation  |
\*---------------------------------------------------------------------------*/
FoamFile
{
    format      ascii;
    class       volScalarField;
    location    "0.0095";
    object      T;
}
// * * * * * * * * * * * * * * * * * * * * * * * * * * * * * * * * * * * * * //

dimensions      [0 0 0 1 0 0 0];

internalField   nonuniform List<scalar> 
75962
(
299.70397644436451401
299.47673692244541144
299.78858703199409774
299.95544298042517539
300.11305044224269523
300.1640601767801968
300.1044844315752016
300.09857759359789497
300.12855275693391377
300.11144981044401447
300.02417333205465866
299.95665894075642655
300.03257964190834173
300.17707862275346997
300.20318334698248464
300.10744397022182284
300.0328438535984219
300.05293360947371184
300.12891508578428557
300.21006200043177614
300.2873759054407401
300.32609878857982721
300.30891762704658277
300.2905946645964832
300.31458609398549697
300.32436546162836066
300.28662539596319903
300.2573576933973527
300.27198470650995432
300.31811671280797782
300.38219907549444088
300.4467376719657068
300.46495205196606548
300.41077140564766523
300.33305242292396997
300.3131917187801605
300.37267432756141261
300.48471917023965716
300.60884649374384026
300.70476337753086682
300.74399141161018179
300.73034964275075254
300.69853568446256986
300.6897141934975366
300.72794916434406787
300.80039745866366729
300.87555828775316513
300.92599269071308754
300.95129145990506458
300.96032677698639191
300.95238405079737731
300.92934481310595629
300.91184896642050717
300.92520901163294411
300.97267215781874938
301.03990196998279316
301.1046095308552708
301.14098448246789985
301.1383092975131035
301.11715400547734589
301.11471390896912226
301.15579415242422101
301.23337049667202336
301.31298194055568729
301.36619654653469524
301.39452736888529216
301.41917549756868766
301.45260548645256904
301.47920413043829058
301.4691769321620427
301.41328046705768884
301.34016576976466695
301.29702412567701231
301.31302618421932493
301.37527655059881226
301.44271817933599777
301.47934916805684225
301.47570656632024111
301.44396387105541635
301.40256491995791066
301.3724762448665615
301.37374550201161583
301.41346329911260682
301.4758049541930518
301.53335937922855692
301.56638108446969682
301.57210835344687894
301.55326951705592364
301.51307487861595291
301.45961571748870256
301.40991847109683022
301.38507638696557933
301.3949910992426453
301.42979251054356382
301.46766062726209157
301.49120522144431789
301.49737295746245991
301.49859187377194303
301.49810124168089942
301.49216457869209762
301.48192117218644626
301.48077422967077155
301.51056779009473985
301.58269234012323068
301.68137047452830757
301.76984692986292202
301.81712178232635324
301.8188681102116675
301.79387317057364726
301.76606227979954156
301.74895557516975941
301.74304994073952457
301.74112136094464631
301.73602624233689085
301.72630648101284123
301.71508586327121293
301.70707219754308426
301.70202223992941981
301.69417958472570263
301.68282604942078251
301.67932018083928369
301.70286685256462533
301.76542393638959538
301.86148749356158305
301.96673488656739437
302.05019808464140851
302.0867400010679944
302.06791644645892347
302.00483743279312421
301.92136262029680438
301.84347398349183322
301.79011901127358897
301.76932451477102859
301.77901317794453462
301.80804326895548684
301.83888761755997621
301.85519146650335642
301.84813478933938313
301.82312252307337985
301.79416683049709036
301.77812721644369276
301.78806122142515278
301.82758292552182411
301.89178031445982242
301.96941868352837446
302.04652521614127636
302.11026361948199792
302.15420988232813215
302.17761087188881675
302.18309229562123619
302.17737480735831923
302.16976611041752676
302.17064529154782804
302.1859236338136725
302.21430719677204024
302.24628956140344371
302.2678125431102103
302.26567722195181886
302.23533027187869493
302.18434462678612817
302.1309139791970324
302.09802815862718717
302.10449919326907775
302.15602993077044403
302.24360070388712529
302.34823393347488718
302.44901791088074106
302.52989781606606812
302.58205576269438097
302.6037321576329191
302.60139545152446772
302.58881346813012669
302.58293312407272424
302.59643304581749135
302.62996872536507453
302.67072622119957259
302.69934512838955243
302.70026067452107554
302.67192658960402696
302.62766336729987415
302.58678726574805751
302.56827737204855566
302.58168415384903938
302.62779914822027649
302.69751942319686577
302.77444068670399702
302.8394377360262979
302.87681142566577819
302.52586003374347001
302.51755489271300803
302.51955386388885927
302.53600479379400667
302.56678564188933933
302.60762630666795303
302.65138576029170281
302.69085144917164598
302.72078095063164938
302.73884801407160694
302.74451984584732145
302.73777276265309411
302.71772970104450451
302.68310789321753873
302.63359356625738883
302.57131496337154886
302.50193713439011844
302.43477006412706487
302.38158700221924846
302.35408126067306966
302.36103464553690401
302.40639198406671539
302.48752814065011307
302.59588951810519575
302.71796931074692338
302.83704899567669599
302.9364921515767719
303.0026002885195453
303.02655264947537717
303.00633790378765298
302.94693835098314594
302.85907864259650069
302.7572327422128069
302.65677689665471917
302.5713880793015278
302.51084197797371189
302.47983828893330838
302.47796533340209635
302.5018503375548562
302.54557449559553106
302.60223358639592561
302.66337487373658632
302.72066841929932934
302.76638175466393932
302.79385461263308343
302.79938463279063399
302.78279309691521348
302.74826168988244035
302.70303051511632475
302.65605307117385792
302.61592920970787191
302.58931288936088322
302.58077851559164628
302.59246813114691577
302.62418479391612891
302.67401417124881391
302.73819676379360999
302.81081161578759975
302.88614179469027476
302.95624851716428338
303.01426846486214117
303.05418308039617159
303.07175962360634003
303.06471201149162198
303.0322560513212693
302.97457500932205221
302.89328365619843453
302.79027124466307441
302.66833544051911531
302.5321710168840923
302.38641799878627126
302.23635406729289343
302.08633611502335725
301.93941087651865018
301.79791172266413923
301.66366768690863864
301.5382411737667212
301.42273636406463311
301.31761016526132835
301.22246354640725485
301.1361220454280101
301.0571739000567959
300.98458039434569855
300.91810424176583183
300.8585127308316487
300.80703580409010556
300.76470533137228358
300.73179106663303628
300.70764082301832332
300.6906482535222267
300.67864082089715794
300.66923479844746225
300.66029504413319273
300.65039007093190548
300.63913097861779988
300.62713633794982115
300.61564140576194859
300.60590849806817459
300.59873495753112138
300.59412971511437718
300.59154555604862935
300.5901939892407313
300.58931796658396252
300.58837219945712604
300.58694193964674923
300.58476569292400882
300.58168498318696038
300.5777462846765502
300.57324092744880772
300.5688229192026597
300.56539802544267559
300.56389052060404765
300.56490628137169097
300.56813964137791118
300.57264768799973353
300.57716685752996
300.58028496512844185
300.58119808032387255
300.58003829313264532
300.57770915906269238
300.57562638350219686
300.57545214458872351
300.5786827480464467
300.58635901101587251
300.59891486035132857
300.61574760251642147
300.63507368427292477
300.65441319955488098
300.67111097355393667
300.68277746305795972
300.68779304263216545
300.68581309086602005
300.67787839108154913
300.66612805109474493
300.65319498123369613
300.64149758586853523
300.63291181102761129
300.62867100524221087
300.62930569207782128
300.6344340462159721
300.64260574857394204
300.65154046101304175
300.65886817947171039
300.66295910942477576
300.66343687139749363
300.66121356060961034
300.65824703903757609
300.65695250472123234
300.65950147555457761
300.66709591478587527
300.6795743957067657
300.6953345046766799
300.71161889147316515
300.7252837354938606
300.73371093855155323
300.73563766410870812
300.73135707627352531
300.72238740051938066
300.71085495875888682
300.69880588679251332
300.68782265426392541
300.67887774522512245
300.67230391199058204
300.66802063926428445
300.66583019366288454
300.66559562612417267
300.66734988770866721
300.67119953031090063
300.67708659833431284
300.68463664904646748
300.69312754548366229
300.70151547573453854
300.70862880804304496
300.7134696099265625
300.71538541525785604
300.71413897766461787
300.71004004877482885
300.7039790026927335
300.69724878399529189
300.69132166108767024
300.68763190252798267
300.68734068442540774
300.69107183695433605
300.6988064122977562
300.70986751972964157
300.72299514679292542
300.73653631626717697
300.74871814568734862
300.75784935931540076
300.7624556902680979
300.76134776238035329
300.75372698275020866
300.73932288745737651
300.71848654068628548
300.69229843764821908
300.66264539592685878
300.63211506891894942
300.60364048149943983
300.57997226411652036
300.56313326159789767
300.55403568753536092
300.55233864688267431
300.55645328235351599
300.56378411732657696
300.57128167701335997
300.57616883637206229
300.5765118149963655
300.57148773875871939
300.56143699719410733
300.54784512976908672
300.53303697145150863
300.51949686520674732
300.50908598924115722
300.5026217946715974
300.4999220464852101
300.50006904532631324
300.5016797418379042
300.50329025973911712
300.50374884733446379
300.50248077297783311
300.49962175060500158
300.49594312632689252
300.49266511126336354
300.49118733891282318
300.49272557382215609
300.49798233611249998
300.50693904621624597
300.51883913400553183
300.53226765056166414
300.54535771220156448
300.55612372313635206
300.56286642230679718
300.56457041487237802
300.56116024984874002
300.55347560493748915
300.54303865687484176
300.53166864087637578
300.52112432580287305
300.51278364260531362
300.50745604053463467
300.50531960017400479
300.50599794718789326
300.50871363203464171
300.51251938930539609
300.51653643964101548
300.52014908429947582
300.52309671061726704
300.5254958736242088
300.52780479270614933
300.53070414392965404
300.53494554316000631
300.54123003301168637
300.55009099748633616
300.56179014861936594
299.96761499263351425
299.95945924861410958
300.01882440435360877
300.09168829691162728
300.11775759530030427
299.9392264268859094
299.83738213819049179
299.91653113300679934
300.00658961807471314
300.08453009112025711
300.1006645986282706
300.07510144384855266
300.12956346955547815
300.24771700413606368
300.26718488334688573
300.16445308980655682
300.09536026927190733
300.13538030919272614
300.19881191735828452
300.24840634789887872
300.30712814449799453
300.33391479180079386
300.30195253972499358
300.27609879778441382
300.31473205241314872
300.34367349508920597
300.29941575261648268
300.24161083192177557
300.23151033284557343
300.27520719665398019
300.36239672269863377
300.46035190056198871
300.50562128928339689
300.46640247156551595
300.39309977181352451
300.36170188392873115
300.40139422087969479
300.49923561446433951
300.61728946261001738
300.70314124793236488
300.72323815260654101
300.68764901262460398
300.64643598586985718
300.65078849152814655
300.71073747779149699
300.80096128598006544
300.88430339607396036
300.93926762141893505
300.96342516802377531
300.96024481424336727
300.93445001039003728
300.90092341507926221
300.88463256241340105
300.90361909354288628
300.95728952442215132
301.03307096393569964
301.10740992899269486
301.15277475662600182
301.15600808408782996
301.1371947821440358
301.13264751658925888
301.166410925007483
301.23367748137633271
301.31110284163662527
301.37086299615771168
301.40747424526898612
301.43746779281150339
301.47566432432796546
301.51074472829560591
301.50876180130995863
301.45262647292270231
301.36722650114285216
301.3029233709522714
301.29806494943426287
301.34983859366872139
301.42065154490433088
301.46861821205015985
301.47743759545414832
301.45111345261909719
301.40668127295526801
301.36618643155560449
301.35077520660075834
301.37270634013805193
301.42578266321999081
301.48898472218320421
301.54100673778100372
301.56889835565442581
301.5677791873410456
301.53783420975304352
301.48586480268562582
301.42861380328332643
301.38993440415850955
301.38552084498019212
301.41259161871357719
301.45234740651835637
301.4868950562459986
301.51332943785479301
301.53453822877219181
301.54741614975745279
301.54529783866036041
301.52673109211593783
301.50831166827441621
301.51679184673383816
301.56790476027333625
301.65032500671560456
301.73045154049873418
301.77744531817234019
301.78444415258820754
301.76694518936307077
301.74552520250387033
301.73208833450604516
301.72765757111011453
301.72723806935670154
301.72747702206419262
301.72828314487350099
301.73061274794116571
301.73432328208014042
301.73556428857392575
301.72843014049777821
301.71376405156661349
301.70369498222049742
301.71758263621194374
301.76968799970688906
301.85740187789696165
301.95988336068893432
302.04563735800189761
302.08697623591893944
302.07227299084195238
302.01049263100139797
301.92643153835979319
301.84751760349803362
301.79513932533342313
301.77846877185623953
301.79504805562021374
301.8328193443800842
301.87227729395294773
301.89492825977168877
301.89038837958116801
301.86110387740075112
301.82027267339134369
301.78588370879032254
301.77497745697581877
301.79893359302622002
301.85886073323206347
301.94338726805438
302.03402742164701067
302.11252912833020901
302.16732235751294411
302.19639144179080859
302.20384067679486861
302.19827018904925353
302.19048441685640682
302.1918340237767211
302.20860239289595484
302.24029414196553489
302.27720526188397798
302.30325792109454142
302.30355998258960426
302.27097414085471883
302.21174870757721465
302.14358520309963296
302.09193505872377727
302.07906498290776653
302.11672398953214724
302.20195610181826851
302.31742107904284467
302.43800288968355972
302.53882279577294412
302.60252637208117221
302.62363242356565252
302.61115801664885794
302.58706726998951808
302.57617531231727526
302.5959007282717721
302.64448070986242101
302.7025341917960759
302.74165147792990638
302.74137595762789488
302.70090293738269338
302.63727258540438925
302.5769137595165148
302.54256633310836833
302.54874869233066192
302.59610723114491293
302.67378403436975987
302.76140141248208693
302.83483630820239796
302.87433089622697935
302.87266067921729018
302.57214036759353348
302.56064692551711914
302.55071149501048922
302.54810927003694587
302.55793316078688804
302.58104555193602891
302.61415297079247466
302.65006807725433191
302.68146816493919005
302.70357019868754378
302.71538120119089399
302.71794201078409969
302.71288410577960803
302.69999658784450958
302.67750251676199014
302.64307667014213621
302.59621496471027058
302.54038487663916612
302.48286521441059449
302.43429384425013495
302.4057214592373839
302.40581619750167874
302.43816531999067365
302.50147498254079892
302.58928024253657441
302.6913707789711907
302.79542556710197232
302.88822923967990164
302.95754285518631832
302.99370265412426306
302.99109562047277677
302.95042820249562965
302.87838181831449447
302.78731422084069891
302.6921488262723301
302.60723077654148483
302.54415186756159528
302.50973549608619351
302.50518478036264014
302.5273171053401029
302.56998891389093842
302.62564853595711156
302.68514641153524281
302.73948123767814877
302.78025360194118321
302.80126772434056193
302.79939353866626561
302.77563361231131012
302.73518117924152193
302.68638678096459671
302.63851654478514774
302.60022625350489989
302.57761862428179711
302.57422887278880808
302.59159564118522212
302.62916690817257859
302.68464565195222349
302.75448851842975273
302.83304902532444203
302.91245848479786673
302.9857751489042812
303.04535506918057308
303.08516483108417106
303.10125056434674207
303.09177882794716652
303.05625226364884384
302.99513016949850908
302.90944206080575896
302.80146428006213455
302.67458095269205387
302.53319852227542697
302.38284269959183348
302.22904078829350283
302.07607287492743353
301.92683792449622615
301.7836993905822851
301.64877541882395917
301.523993689804513
301.41081077080184514
301.30966931052165592
301.21985073693946333
301.13940714364161977
301.0656844623998154
300.99649240419478247
300.93087568229594808
300.86935777113092172
300.81362163514438635
300.76583823316411781
300.72767453794489256
300.69962871963929274
300.68061996770029509
300.66824852691445358
300.6595233880589717
300.65172835298767495
300.64305037614411731
300.63301462966825284
300.6224482819811783
300.61287528443176598
300.60585983341570682
300.60221822633081956
300.6017392480969761
300.60331158642452465
300.60535501993479102
300.6063953757114291
300.60544527960195182
300.60202277764153678
300.5961832027589935
300.58845847400016282
300.57981827164604738
300.57151562799930389
300.56489304337549129
300.56109393122642359
300.56072790811083451
300.56363131370528663
300.56865911500540278
300.57406659934667914
300.57838121962362266
300.58051461154087747
300.58016152215901684
300.57804577570612992
300.57568337285619009
300.57480241852925928
300.57681182951944265
300.5826833641523308
300.59276679194272219
300.60680117924675869
300.62381241871338489
300.64196509842588512
300.65896187054755728
300.67251593153218892
300.68084953713389496
300.68303811038981621
300.67922590802697869
300.67057808838683286
300.65891192506819607
300.6462996208280174
300.6347466994893125
300.62584968426159548
300.62065124855610065
300.61978713750721681
300.62338048667658086
300.63080084998387065
300.64053594891453258
300.65037650052369145
300.65797554930946944
300.66181803859285537
300.6617941999451773
300.65917818018948537
300.65618068562554299
300.65525163357722249
300.65833888940386487
300.66619339338575401
300.67814582881601382
300.69227089822226162
300.70594054240780224
300.7165383054697827
300.72226867295535158
300.72266719514391298
300.71849173133836075
300.71131883008234809
300.70292414383294499
300.69469075151897641
300.6874436802670516
300.68148564598328676
300.67673971912125808
300.67306716517083487
300.67049934211087248
300.6692877786445024
300.66984192833331235
300.67250571007178905
300.67729811881685009
300.68376785303769338
300.69100731747067812
300.69780561699531063
300.70302776935380962
300.70599350093874591
300.70665708688613904
300.70556202711929927
300.70368999897607409
300.70219842053018056
300.70212434030088389
300.70413049950599316
300.70837233417501011
300.71454668674738286
300.72203381619323181
300.73009225121637655
300.73802174471421722
300.74520251480123534
300.75102531106153947
300.75477949324681504
300.75555548402792283
300.75224236510831588
300.74369922958919688
300.72913533270764219
300.70851329840570543
300.68278536224340769
300.65385459701803939
300.62435898639347442
300.5972545420927986
300.57519794784684564
300.55995351310815522
300.5520254831916418
300.55065912499230762
300.55408580298291099
300.55990714043633716
300.56554415090170096
300.56873872804652592
300.56802603485340342
300.56300351134279936
300.55425971480133285
300.54305205775330023
300.53100264355805393
300.51983477870828665
300.51102147047765811
300.50536885230167172
300.50275699720975808
300.50229446111700327
300.50274169469008712
300.50291563033511011
300.50198228134246392
300.49962518828499469
300.49610137459757198
300.49218868884088351
300.48902889934151972
300.48790827872710452
300.48993694247440089
300.49573183209673743
300.50520677363289224
300.51750059068416476
300.53108086647000619
300.54402923402074066
300.55446620197068341
300.56098795489685926
300.56294128725534165
300.56053410217049304
300.55474268191011333
300.54699245681757702
300.53877287151584596
300.531323526396136
300.52543509171192682
300.52136554290524373
300.51891035880834124
300.51761239655246527
300.51700313975271683
300.51678416176332576
300.51691599162916191
300.51757483898393275
300.51906214016969443
300.52172001977908167
300.52585825512244355
300.53172914162121288
300.53950254992969349
300.54925088012072365
300.56089093325994099
300.57421743048757889
300.06416890841251188
300.13293735717388699
300.08594498972928477
300.0897005279528571
300.0260061234183695
299.9477000552675463
299.99620303188146409
300.05243037598700084
300.06075502377422026
300.14581762130933384
300.22879431685441887
300.22673966042424354
300.22863063209092616
300.28579989587984755
300.30341001525124511
300.24177432958720146
300.21929997122902023
300.26863547628084916
300.29301242381279735
300.29004764789056026
300.32867204913293335
300.38593413958091105
300.3845143313983499
300.35803457506733594
300.37842744407015516
300.39913610955653667
300.3446364586219488
300.26029615126685712
300.22954360706410171
300.27942248610168008
300.38315562818922899
300.49153039773796081
300.54743821552102645
300.52461583251903221
300.45825518563657397
300.40793379078104408
300.42292947542529191
300.51257332173531722
300.63693542686553428
300.72339020755146066
300.72890481505504567
300.66997322375220847
300.61133866912132362
300.61326333108900144
300.68285840202759118
300.78866855882603204
300.89055983494472457
300.96152936163014147
300.98562946679669494
300.96014422699397528
300.90328738405202103
300.85061763171012217
300.83374692061732958
300.86313798942819631
300.92898916580537616
301.01364177153976698
301.09633427848382325
301.15354984848892173
301.17334077837654149
301.16883733921417843
301.16865357616484289
301.19591795537877488
301.25403551942963531
301.32910258365245681
301.39547641762180774
301.43568955470124138
301.45779520037598331
301.48036417728184233
301.50076630424746327
301.49156335274142293
301.43505572370310119
301.35092309247875164
301.28749338631399723
301.28522058069313516
301.34628449699039265
301.43512557351135683
301.50261992978761327
301.52023472533198856
301.48624962920865755
301.4230968954032619
301.36352881015756111
301.33574340501104416
301.35162055975354178
301.40298274599194883
301.46700925360465817
301.51892665937464244
301.54054579133025982
301.52922372291681086
301.49267326019293023
301.44509131146838854
301.40407975628249915
301.38716725622481363
301.40376498236582847
301.44841452751228417
301.50345716166515331
301.54989151525381885
301.57899657948712502
301.58754898053683746
301.57980672775352105
301.55755810535663386
301.52833583883852953
301.50935740140045027
301.52080481697407777
301.5709862925795619
301.64742137423502299
301.72119635711118235
301.76406301748619398
301.76834096460305545
301.74820062662547571
301.7253171726078449
301.71421483782768291
301.7168231733464836
301.72775128654831178
301.73951949857286081
301.74843983428519323
301.75361249203513125
301.75407145361975836
301.74904560455394176
301.73906084345679801
301.72878165683289353
301.72913888363865453
301.75360250311922528
301.81071399279284151
301.8952499871351165
301.98744779040606545
302.05825971165830879
302.08392125893163893
302.05537756354237899
301.98506940594796788
301.899802066654388
301.82835704864368154
301.79148851615661897
301.79518416201000264
301.83245860928047932
301.88541968924226921
301.93152724676940579
301.95193005394332886
301.93796466218822161
301.89500031120428503
301.84098506812574669
301.79868330709979318
301.78969458009316895
301.82580055673508923
301.90331168801748163
302.00294053541358608
302.09878367809454858
302.17014034548338941
302.20871815625093859
302.21872436929999139
302.2124276653328252
302.2013882912233953
302.19714828570323562
302.20690639968296409
302.23411070376488397
302.27361645753569519
302.31195541943759508
302.33186638420750114
302.32011448742622406
302.27337226263688308
302.2024633236225668
302.13049319707835139
302.08404302204064606
302.08363231816298367
302.13804401270971312
302.23960667336132246
302.36611867600311143
302.48857113746396408
302.57975420292711988
302.62316830430245318
302.62009774853959243
302.58878903386204229
302.55793219252370818
302.55553285318188728
302.59334971725337482
302.66067607162727882
302.72804710665189987
302.76238788773611077
302.7465141925935086
302.68638649151222353
302.60639669310160116
302.53775680609527399
302.50427187485070135
302.51797964257445983
302.57565878689183592
302.66236429489788406
302.75550116949887069
302.82976814963990364
302.86628155521293593
302.86001983865253351
302.60754902377277631
302.60010755758105461
302.59061372711067861
302.58556619669514021
302.59050015451708759
302.60767889529239483
302.63433117131899053
302.66317408624058771
302.6862356419533171
302.69835591392461538
302.69911572966981339
302.69143308446621177
302.67957952439161318
302.66608070537029107
302.65053292413460895
302.62983326658007854
302.60051286018006067
302.56184912476129512
302.51673140999736233
302.47239107140217129
302.43875892670047278
302.42538540891945331
302.43850028144316866
302.48029746326989198
302.54816787097666975
302.63497977498457203
302.73025308115035159
302.82096794917288207
302.89339433906803833
302.93619837251191029
302.94261698372650926
302.91233575173430381
302.85132626186072002
302.77086656784814522
302.68537242738875648
302.60912415087267391
302.55367195193883845
302.52591825008585147
302.52711911692892954
302.55339858620652649
302.59717803081946386
302.64926726906855947
302.70051801022697191
302.74241558938001617
302.76862959967115785
302.77591562243151202
302.76408574672757368
302.73616407593999611
302.69782546035889936
302.65610409126657032
302.6181837576141902
302.59023171029610921
302.5765564185240919
302.57973486935384244
302.60096206697028265
302.64032667958582579
302.69602138743374553
302.76424174702765413
302.83933797349266115
302.91404769128274665
302.98043483918559104
303.03199840259196662
303.06406744406342568
303.0741837537980814
303.06158899570721132
303.02618479764589665
302.96791805174046885
302.88625082019194679
302.78167283858510928
302.65564495934768274
302.51160908265188709
302.35491941796254878
302.19160016550233649
302.02705641255357705
301.86583774268837033
301.71182473092778764
301.56836035849818245
301.43828918206673961
301.32375132964807563
301.22542658204031341
301.14194121116844371
301.07011350239525882
301.0059612322414182
300.94608118719310141
300.88879966977242475
300.83440014582606636
300.78476882604400089
300.74254459497075231
300.70990033320936163
300.68753005843262827
300.6741586570550453
300.66680892013971516
300.66161587186076076
300.65512854965561473
300.64539096876791291
300.63237772382439061
300.61778108043245084
300.60427155904449137
300.59444771679511632
300.58985848658960549
300.59066396551656908
300.59552376574879418
300.60209170051183492
300.60801626077397941
300.61144850443207588
300.61137815483971281
300.60773566659014477
300.60122020556616462
300.59308614981353003
300.58493127388123867
300.57823578659633768
300.57408258801552847
300.57280780053389435
300.57383129265542721
300.57588194357367684
300.57744966521039487
300.57757430287256284
300.57599377014264519
300.57315265837075913
300.57030882570757058
300.56910358405934858
300.57085165841613161
300.57612562846156834
300.58493167979764848
300.59700434135845626
300.61155508996017716
300.62734869303523055
300.64299317937422984
300.65695803190970992
300.66779224758835198
300.67452216273642307
300.67662243648851472
300.67409898273945146
300.66762813812295008
300.65829039960846103
300.64732014291496398
300.63605189073894053
300.62593107429103156
300.61848814855602541
300.61507890129740872
300.61662362386567793
300.62332743615252184
300.63424857974155202
300.6472812341942813
300.65957602692492401
300.66839315632211083
300.67224098926288889
300.67140175521046785
300.66773416122725848
300.6639369993542914
300.66264265852458948
300.6655359208893401
300.67285963844705066
300.68347166339117393
300.69527502861814128
300.70588004937849291
300.7133092808718402
300.71653569277708584
300.71572191339652136
300.71192528919192455
300.70662436224313296
300.70111895164001226
300.69610806177695395
300.69170878710446004
300.68771336622808121
300.68384189313172783
300.68000249503819532
300.67645870981658618
300.6737439400473022
300.67243888046442635
300.67295258969494398
300.67527640735386285
300.67892963748676038
300.68313010001338625
300.68711518318337994
300.69045782766801267
300.69328898887084733
300.69623205096019092
300.70016524014931747
300.70579523484519768
300.71331526120638955
300.72232340900336567
300.73186212170668341
300.74064778233037032
300.74749366210608059
300.75173028674140596
300.75339416394416503
300.75302145721440183
300.75122502921476553
300.74826693788514831
300.74385210702962468
300.73716875579901853
300.72708441124871115
300.7125578509557613
300.6931991695703914
300.66970778621720228
300.64387365649128014
300.61812882468655062
300.59496809548102192
300.5764363939932764
300.56374321215122336
300.55704254955423949
300.55538131026975179
300.55702143377612856
300.55993269653487232
300.56226430937061878
300.56265396256083022
300.56037358162217288
300.55535647265179477
300.54815658099505526
300.53975223819520579
300.53124000368825364
300.52355321365547525
300.51734400926932267
300.5129282579791834
300.510226917334478
300.50871045708885276
300.50750359219802021
300.50568212621175235
300.5026077454466531
300.49817609219149972
300.49288482405665945
300.48773243630984098
300.4839634471547356
300.48277759525825559
300.48507703555026183
300.49122739379834002
300.50090589653331108
300.51308882889009055
300.52623896749935284
300.53861710386024697
300.54867458755967391
300.55539123221615228
300.55845613974474873
300.55823657133026927
300.55559989631086637
300.55160815846090827
300.54718951279198791
300.54291540906626778
300.5389723704363405
300.53526105062690021
300.53155606944642386
300.5276969734933914
300.52376134899884619
300.52013175708646031
300.5174260702584661
300.51636777120990018
300.51757763666938672
300.52140457910280702
300.52783771382576106
300.53658201139080575
300.54718494910093796
300.5591316550557508
300.57190903853535247
300.58509399735049783
300.59833057935554734
300.05124099756778833
299.84418624502922057
300.06360274604014649
300.19980623941626163
300.07853823689526962
300.00366982245770942
300.03377120341707496
300.03394882168367985