/*--------------------------------*- C++ -*----------------------------------*\
  =========                 |
  \\      /  F ield         | OpenFOAM: The Open Source CFD Toolbox
   \\    /   O peration     | Website:  https://openfoam.org
    \\  /    A nd           | Version:  12
     \\/     M anipulation  |
\*---------------------------------------------------------------------------*/
FoamFile
{
    format      ascii;
    class       volScalarField;
    location    "0.0069";
    object      nut;
}
// * * * * * * * * * * * * * * * * * * * * * * * * * * * * * * * * * * * * * //

dimensions      [0 2 -1 0 0 0 0];

internalField   nonuniform List<scalar> 
106891
(
7.680248664482586108e-06
7.6729452354875552628e-06
7.6646323251898401018e-06
7.6577959613745916797e-06
7.6497843134956186329e-06
7.6431733063254261249e-06
7.635348879146487935e-06
7.6289218093100934098e-06
7.6213864785892044469e-06
7.6150868928392881414e-06
7.6070542396389602551e-06
9.8990896719417279751e-06
9.8953906124287252885e-06
9.8953622055332963504e-06
9.9061334362109989394e-06
9.9238444860948748664e-06
9.9419943757414683803e-06
9.9603067173998417635e-06
9.9794226628165066766e-06
1.000093183524228171e-05
1.0026282347911312222e-05
1.0055882326453208564e-05
1.0088425630291566375e-05
1.0121481049336053298e-05
1.0151907979865701964e-05
1.0176528064902154512e-05
1.0193449170788358081e-05
1.0202299292545070891e-05
1.0204252368876723018e-05
1.0201646572436957866e-05
1.0197225207818836942e-05
1.0194026308261170191e-05
1.0195455281424642958e-05
1.0207069788634988582e-05
1.0227191843958462935e-05
1.0254441034183452947e-05
1.0286354021062249582e-05
1.0320119849665639137e-05
1.0352786046543198628e-05
1.0381312397740994588e-05
1.040427256275499843e-05
1.0421049233448456534e-05
1.0432354079169080721e-05
1.0439551282898047258e-05
1.0444547776823284046e-05
1.0448959311788313795e-05
1.0454468081012255895e-05
1.0462297549296824145e-05
1.0472369788222728144e-05
8.157752382760443641e-06
8.1484761177928970285e-06
8.1405704475356404314e-06
8.1313318532902415626e-06
8.1233446977025846518e-06
8.1139593689908283723e-06
8.1057777217021745753e-06
8.0962972182740555618e-06
8.0881392795952672078e-06
8.0788470686941110037e-06
8.0710749270144756885e-06
8.062081257689992562e-06
8.0547692654275773044e-06
8.0460510922998453932e-06
8.0389715069299890279e-06
8.0304642520973003127e-06
8.0235442398545829665e-06
8.0152521547739052259e-06
8.0084399201066569306e-06
7.9995050723936280687e-06
1.0416283797044930968e-05
1.0431921269213221897e-05
1.0448447741968564445e-05
1.0464038305272631564e-05
1.0478214956837691386e-05
1.0492114584298579385e-05
1.050805612920400346e-05
1.0528135471785039952e-05
1.0553755829582451444e-05
1.0584776924552277772e-05
1.0619608624142824879e-05
1.0655061448041561127e-05
1.068807851793709298e-05
1.0715672897545358775e-05
1.0735792852053336493e-05
1.0747877402387897064e-05
1.0752597102955795415e-05
1.0751584790262812082e-05
1.0746978203463706069e-05
1.0740943630930417437e-05
1.0735434482815515796e-05
1.0732530268195399753e-05
1.0737323681447444648e-05
1.0764765068004167149e-05
1.081035109097838246e-05
1.0856209524401093559e-05
1.0898325572159851555e-05
1.0934002728049854234e-05
1.0960613730204015693e-05
1.0978007087369406897e-05
1.0987040553861641772e-05
1.0989904339474214126e-05
1.0989555507849278702e-05
1.0988849621295513744e-05
1.0990139548666394618e-05
1.0995254356884263028e-05
8.5825984439048846235e-06
8.5725730388332226198e-06
8.5641846250558030773e-06
8.5542451260228916874e-06
8.54579301885380441e-06
8.5357657116933450663e-06
8.5271265365201465999e-06
8.5169726707730498164e-06
8.5083552268687844715e-06
8.4983397953042246484e-06
8.490054377266807148e-06
8.4803333133953373514e-06
8.4725164425916312498e-06
8.4630309966125982681e-06
8.4554294827883000844e-06
8.4461201297582952087e-06
8.4386350918897948806e-06
8.429464935917439913e-06
8.4220625356481872527e-06
8.4120994290805577496e-06
1.0999616724895505042e-05
1.1024673668898688687e-05
1.1047070704003152764e-05
1.1065165119035394703e-05
1.1078250736765964593e-05
1.1088563280048321336e-05
1.1098327944742669005e-05
1.1111376452950217397e-05
1.1129164769171857578e-05
1.1152551880606255039e-05
1.1179433014780322081e-05
1.1207494058842754685e-05
1.1234078528670228135e-05
1.1256933120305982637e-05
1.1275330575794321152e-05
1.1289300173348750729e-05
1.1300702077193367333e-05
1.1311323624799375228e-05
1.1323972155748569836e-05
1.1340073333875015315e-05
1.1360558072409208889e-05
1.1384411164740731217e-05
1.1410419218096899821e-05
1.1436749436538337177e-05
1.1461496910512656834e-05
1.1483739757980888677e-05
1.1502559896964118305e-05
1.1518008384067449668e-05
1.1529509422090634201e-05
1.1537866006299233692e-05
1.1543805133854055065e-05
1.1548948275027429015e-05
1.155494362202318261e-05
1.1563463497484144924e-05
1.1575983639821099601e-05
1.1592609891129368365e-05
9.0187270302339663278e-06
9.0098253655815034845e-06
8.9991573153579548707e-06
8.9902514472994565141e-06
8.979572213017164559e-06
8.9705032598333872334e-06
8.9596624246488272564e-06
8.9505689198463213595e-06
8.9398287996167970161e-06
8.9310226151107810038e-06
8.920495507171388944e-06
8.9121215215244499897e-06
8.9018233068371511383e-06
8.893642278327051399e-06
8.8834309012455469219e-06
8.8753210662597133677e-06
8.8651636138564895257e-06
8.8570957362319998539e-06
8.8459758401076529262e-06
1.1559675537587617389e-05
1.1597993047801906887e-05
1.1629436511133533876e-05
1.1650835072936254811e-05
1.1661603799702614879e-05
1.1663627427744293022e-05
1.1660858253306174138e-05
1.1658125135340255296e-05
1.1660236037721086709e-05
1.1677201546707696958e-05
1.1719109095009529772e-05
1.1767476140131326364e-05
1.181676731569805447e-05
1.1860851474823432241e-05
1.189687061063521402e-05
1.1923069178777746533e-05
1.1941405447012933019e-05
1.195427814327548906e-05
1.1965413810905751543e-05
1.1977751406720179626e-05
1.1992613529362976078e-05
1.201023641065128062e-05
1.2029573336979742506e-05
1.2049450753825215047e-05
1.2067225189805218377e-05
1.2082712503913425604e-05
1.2095007277564778127e-05
1.2105457971086597767e-05
1.2115135117754826283e-05
1.2125856170887314717e-05
1.2139024265484507487e-05
1.2155330843076189425e-05
1.217576840447687755e-05
1.2199480064196224861e-05
9.4996311070626143064e-06
9.4880143737097636194e-06
9.4785843146093790436e-06
9.467174104881168211e-06
9.4577780205083999688e-06
9.4463351467801104583e-06
9.4367867884607638414e-06
9.4252412951460754544e-06
9.4156548937099034721e-06
9.4041369429730441913e-06
9.3947992313864965753e-06
9.3834356088393675277e-06
9.3744587168012621952e-06
9.3632875578882574728e-06
9.354473027813290181e-06
9.3432894663316045947e-06
9.3345005440323079694e-06
9.323267841490738572e-06
9.3144811377315179878e-06
9.3021109592559486845e-06
1.2201852942567277224e-05
1.2235234719626087395e-05
1.2263842209332660667e-05
1.2285296765779388841e-05
1.2300413816704585868e-05
1.2310936163953572058e-05
1.2320646516565459717e-05
1.2333244654294990572e-05
1.2350985771781950476e-05
1.2375014167882254624e-05
1.2403582674201856173e-05
1.243455554895606433e-05
1.2464149102930377014e-05
1.2489805836244431513e-05
1.2509448071197033022e-05
1.2523643017170258196e-05
1.2534175029317405417e-05
1.2544175466343371748e-05
1.2557068362511103729e-05
1.2574918468451079935e-05
1.2599016091558362445e-05
1.2628301194879248745e-05
1.2660800216462382491e-05
1.2692760335931595265e-05
1.2721765600011199096e-05
1.2745130084737070735e-05
1.27614936781590557e-05
1.2771235140287675049e-05
1.2775268375189352999e-05
1.2776089777068240397e-05
1.2775825238737343031e-05
1.2777542867623102658e-05
1.2783324723514883451e-05
9.9818851215444276865e-06
9.9718071525977177724e-06
9.9594788473486651537e-06
9.9494777447345206489e-06
9.9371864095007282413e-06
9.9270617076703015401e-06
9.9146707629696432412e-06
9.9045356383978349582e-06
9.8921663729591762041e-06
9.8822570178610763916e-06
9.8700058391220431042e-06
9.8604053072679236671e-06
9.8483190883509664132e-06
9.8388349903088983178e-06
9.8266505924647557554e-06
9.8171411145959108172e-06
9.8047711693051339257e-06
9.7952232679141175913e-06
9.7815358097349883317e-06
1.2886228601707384593e-05
1.2919349150044638541e-05
1.294445212920824707e-05
1.2961665599605076468e-05
1.2971789466304242962e-05
1.2978102663849096652e-05
1.2984561779153858986e-05
1.2994142019228968978e-05
1.3009537110379823825e-05
1.3030643813113802076e-05
1.3056830564907662284e-05
1.3085130238705673398e-05
1.3113533919712593368e-05
1.3139620932614650797e-05
1.3162926128432378683e-05
1.3183596038199403095e-05
1.32032599183720634e-05
1.3223662874554424485e-05
1.3245813881664511051e-05
1.3270264419684366645e-05
1.3296094976629321808e-05
1.3322490389529972104e-05
1.3346835368598340078e-05
1.3367939098680500025e-05
1.3384335893100201864e-05
1.339565017459914983e-05
1.340239599725417297e-05
1.3405854599527566e-05
1.3408436007569035978e-05
1.3411952320045683371e-05
1.3419288522600359242e-05
1.3431499905263847414e-05
1.0501735931361298276e-05
1.0490860469550444646e-05
1.0477490349549126896e-05
1.0466702846259688908e-05
1.0453389321360809203e-05
1.0442545972907035781e-05
1.0429182809643014717e-05
1.0418419050629942985e-05
1.0405119444751042445e-05
1.0394606837121111837e-05
1.0381429517528961554e-05
1.0371165092833890294e-05
1.035811608221395002e-05
1.0347922388980150063e-05
1.0334710190186113715e-05
1.0324481781399007447e-05
1.0311038778101176282e-05
1.0300741133798708377e-05
1.0285731119966184607e-05
1.3587723259449396859e-05
1.3622978461079397858e-05
1.3646846629762447384e-05
1.3660139275573663378e-05
1.3666064320944196591e-05
1.3668550254899638832e-05
1.3672362510412446084e-05
1.368044012755130823e-05
1.3695155260175257566e-05
1.3716278273128138014e-05
1.3743346762142456751e-05
1.3774275323083468259e-05
1.3807257610208448982e-05
1.38412172521800928e-05
1.387501535644972573e-05
1.390795803208562136e-05
1.3939849989278700834e-05
1.3970448544977193977e-05
1.3998545672696681604e-05
1.4023687066179529873e-05
1.4044841021876682723e-05
1.4061832623887874394e-05
1.4074020900880607912e-05
1.4081626296344551492e-05
1.4086005519794021933e-05
1.4088079383017906401e-05
1.4090028815745941058e-05
1.4093341585827444246e-05
1.410100309713302809e-05
1.4113903649387064078e-05
1.1038291679849493408e-05
1.1023755933812448107e-05
1.1012032046114885803e-05
1.0997603891218496586e-05
1.0985939668157633292e-05
1.0971566026958201275e-05
1.09601467868496058e-05
1.0945923659082237633e-05
1.0934764990212920532e-05
1.0920649667968087464e-05
1.0909666582232653724e-05
1.0895626825528272137e-05
1.0884677955273760965e-05
1.0870493890377379444e-05
1.0859577577572094147e-05
1.0845181068774644117e-05
1.0834183584486310544e-05
1.081825435502205923e-05
1.4328327067195376334e-05
1.4351581415805659598e-05
1.4362634083444998501e-05
1.4364097909459492687e-05
1.4361684532482709966e-05
1.4361407031799566951e-05
1.4368807894607380662e-05
1.4386592320244721076e-05
1.4415009263598914428e-05
1.4452092827915803135e-05
1.4493930699815008246e-05
1.4536839794763161893e-05
1.4577576464981191267e-05
1.4614240202656319793e-05
1.4645408980929959552e-05
1.4671705775147443818e-05
1.4694432253820360171e-05
1.4714790906894564164e-05
1.4733607205887493637e-05
1.4751146619150829376e-05
1.4767030754209340584e-05
1.4780080556163608161e-05
1.4789952837982982343e-05
1.4797014392489796445e-05
1.4803370938131341607e-05
1.481039441645595082e-05
1.4820669584450631723e-05
1.4835595026427900983e-05
1.1629882534641376509e-05
1.1614599006006325361e-05
1.1601864960041101204e-05
1.1586802056149537326e-05
1.1574326866290151269e-05
1.1559506719182583405e-05
1.1547501582506492667e-05
1.153287686404534345e-05
1.1521163940602011693e-05
1.1506561980819598204e-05
1.1494913774994005909e-05
1.1480260510085502169e-05
1.1468664017514595605e-05
1.1453905924398721737e-05
1.1442435808228651676e-05
1.1427479072878739681e-05
1.1415949339757077815e-05
1.1400138307637069216e-05
1.5067291793258199271e-05
1.5084269984430738386e-05
1.5094062067557846343e-05
1.510149910741547178e-05
1.5110623389998482268e-05
1.5125177919751018048e-05
1.5146228693220123256e-05
1.5173999850709137669e-05
1.5206918362262397625e-05
1.5242139633306686302e-05
1.5277531110649481395e-05
1.5310857574635718413e-05
1.5341234526393725328e-05
1.5368349806868505583e-05
1.5393016594023064387e-05
1.541604493153706369e-05
1.5438042997452309081e-05
1.5459731423335041061e-05
1.5481302753201326648e-05
1.5502776260962486822e-05
1.5523291261653748976e-05
1.5542328769294216792e-05
1.55595634782422539e-05
1.5575382634127110307e-05
1.558983407993914171e-05
1.5603887145248700804e-05
1.5618616814860826941e-05
1.217302866820420226e-05
1.2155036632137908387e-05
1.2140016794919974722e-05
1.212218459654297203e-05
1.2107380126526297588e-05
1.2090018011385144696e-05
1.2075128556064287737e-05
1.205799512474489697e-05
1.2043010764275868696e-05
1.2025702786082036471e-05
1.2010741978483252272e-05
1.199311796127444951e-05
1.1978241206093179252e-05
1.1960605846869197809e-05
1.1945523351107239371e-05
1.1927956176868209019e-05
1.1912814439218425306e-05
1.558607762498516103e-05
1.5624234079863949791e-05
1.5660848699607176715e-05
1.569838981634531143e-05
1.5738152814620109938e-05
1.5780530766706184865e-05
1.5823656578945080017e-05
1.5864348515219436382e-05
1.5899483391465661002e-05
1.5925752969883290213e-05
1.5942178193502404466e-05
1.5949140150695491618e-05
1.5949899676106504706e-05
1.5947995481991911627e-05
1.5948980934129460278e-05
1.5957149346936439112e-05
1.5975943275941228272e-05
1.6007408585025406281e-05
1.6049886517980418998e-05
1.6100275176217578607e-05
1.6152524169295506758e-05
1.6201294071498864699e-05
1.6241890881712550096e-05
1.6272057591838781605e-05
1.6291189704055050264e-05
1.629994828880261987e-05
1.6301529667065536475e-05
1.2468318174630590387e-05
1.2452059588604064207e-05
1.2429112704545837835e-05
1.2413113795350666518e-05
1.2390239501816894253e-05
1.2374232008370028991e-05
1.2351115902192326117e-05
1.2334932811053235982e-05
1.231152743913661953e-05
1.2295093760557265991e-05
1.2271407891622248911e-05
1.2254908148610895927e-05
1.2230931331501378615e-05
1.221454655401227923e-05
1.218633168302929501e-05
1.2179226320160918448e-05
1.2122477906873746338e-05
1.2167696637836345895e-05
1.2211065935318139283e-05
1.2253136595443573709e-05
1.2294571174772642947e-05
1.2335022317531709705e-05
1.2372984499719009578e-05
1.240628775221078643e-05
1.2432537992874808576e-05
1.2450129737596130148e-05
1.2459503957322806531e-05
1.2461419612775510564e-05
1.2457043340762036156e-05
1.2449809359394729602e-05
1.2441016583740492819e-05
1.2430813140581794187e-05
1.2420889018060012843e-05
1.2412270150886110044e-05
1.2407108197949782446e-05
1.2416117744998897066e-05
1.2467815339384899536e-05
1.2549971910085458928e-05
1.2621941058594548396e-05
1.2680029539660040515e-05
1.2721895904353949317e-05
1.2747792382154943342e-05
1.2759871877830467477e-05
1.2761348639946589015e-05
9.6804309385841663205e-06
9.6622471087276688511e-06
9.6492176496232255053e-06
9.631261120520466176e-06
9.6184604942931237474e-06
9.6006062068078363859e-06
9.5879242229687796582e-06
9.5701042118460345022e-06
9.5574637049999927206e-06
9.5396241062225783339e-06
9.5270737280389315477e-06
9.5091883466343279599e-06
9.4968970708167000999e-06
9.4761687325441420956e-06
9.473315580253475221e-06
1.1632266870390305043e-05
1.1643023448579881815e-05
1.1648763195609744894e-05
1.1654841819632696308e-05
1.1666146446193184627e-05
1.1685501474078397369e-05
1.1713210303262986509e-05
1.174717949292153594e-05
1.1783223182517467385e-05
1.181678545966655984e-05
1.1844224363991705753e-05
1.1863271037349527572e-05
1.1873149571970829583e-05
1.1874781154389948807e-05
1.1870713882270061921e-05
1.1864235088917549356e-05
1.1858520056393108795e-05
1.1856289297171243721e-05
1.1865276697167915167e-05
1.1902569765248081221e-05
1.1950485950000990434e-05
1.1995571016846367046e-05
1.2033332251945257264e-05
1.206135726794734657e-05
1.2078557892325576594e-05
1.2086454613632919774e-05
1.208781567163756626e-05
9.2198621617056426922e-06
9.2087028908956769117e-06
9.1934033799062833415e-06
9.1823040057346716681e-06
9.1669083636431828327e-06
9.1557069655079987203e-06
9.1402182907151332164e-06
9.1289886228310009291e-06
9.113423539746764372e-06
9.1022240033537944422e-06
9.0866109225898085015e-06
9.0756235600041469653e-06
9.058386962110439851e-06
9.0506807660666567452e-06
1.1143792022291304795e-05
1.1149901743328776514e-05
1.1161394732660764826e-05
1.1181335068588077759e-05
1.1211352006116785196e-05
1.1249199380066996588e-05
1.1291063691008305887e-05
1.1331680401080229922e-05
1.1366313786970458092e-05
1.1391892353686506481e-05
1.1407082781776883926e-05
1.1413591124880141631e-05
1.1414068626465658082e-05
1.1413199387014852563e-05
1.1414299597675626774e-05
1.1420679322314294897e-05
1.1433646257172661395e-05
1.145289941980908394e-05
1.1476844623967556147e-05
1.1503009262015558887e-05
1.1529114729106019552e-05
1.1553098818088770034e-05
1.1574235276515927484e-05
1.1591890870667532319e-05
1.1606198158117939421e-05
1.1618013041214929275e-05
8.8708630827340435919e-06
8.8562929327369284085e-06
8.8456910028768654888e-06
8.8310283811775984133e-06
8.8203161684955204755e-06
8.8055415605925654052e-06
8.7947780538698663752e-06
8.7799414691925263256e-06
8.7692685662748034818e-06
8.7544262127766040555e-06
8.7439481430037939501e-06
8.7278440501594937832e-06
8.7199979933594487768e-06
1.0737776179082031766e-05
1.0753973507292745182e-05
1.0778635639446123594e-05
1.081133706554172948e-05
1.0848796775736856886e-05
1.0887354830446330443e-05
1.0922470921434321124e-05
1.0950485918020137755e-05
1.0969526901803891686e-05
1.0979491637899349644e-05
1.0982708383950439072e-05
1.0981779663141397817e-05
1.0980779602972001946e-05
1.0982456550095335703e-05
1.0989559573299988139e-05
1.1003154086227737992e-05
1.1022800927944233603e-05
1.1046828291911098366e-05
1.1073136657206957473e-05
1.1099415894259950427e-05
1.1123577596487830142e-05
1.1144697938762363674e-05
1.1161926989585746348e-05
1.117535393814522482e-05
1.1185944256691811137e-05
8.5197020574864976952e-06
8.5094756923042245143e-06
8.4953257748295970988e-06
8.484979090513893442e-06
8.4707281408850097407e-06
8.460316309014720475e-06
8.4459856453500664603e-06
8.4356901408701431751e-06
8.4213736744009222559e-06
8.4112827179209968489e-06
8.3957496489539679276e-06
8.388243609138742844e-06
1.0343888751524358006e-05
1.0365554668119140059e-05
1.0394296482192384368e-05
1.0429220549627727573e-05
1.0468020675172669482e-05
1.0507445177749215312e-05
1.0543756008623976391e-05
1.0574033977968316005e-05
1.0596344521479839629e-05
1.0610167709041580148e-05
1.0615876806212563141e-05
1.0615341496367267134e-05
1.061082412097861311e-05
1.0604784286701599561e-05
1.0599363658504637448e-05
1.0596402819937621479e-05
1.06012671951321788e-05
1.0626655084647095432e-05
1.0660633171780122631e-05
1.0692799149531580637e-05
1.0721490704983177315e-05
1.074543611067065229e-05
1.0764414830198028278e-05
1.0779064209789577784e-05
9.9997783635238610031e-06
1.0028721259966561519e-05
1.0062559232325411784e-05
1.0098938700541947963e-05
1.0134476396496810708e-05
1.0165852466092053518e-05
1.0190620243557014108e-05
1.0207529318351767639e-05
1.0216632341785045429e-05
1.0218745097527067624e-05
1.0215920340829660702e-05
1.02104669812951862e-05
1.0204574177468365512e-05
1.0199966374100257317e-05
1.0199257485791023481e-05
1.0210978904212195166e-05
1.0242806446695087397e-05
1.0275433393807979033e-05
1.0305491825591113104e-05
1.0331606891586493248e-05
1.0352910943744680032e-05
1.0369803712892440827e-05
1.0383315970456161425e-05
9.6855753075541115515e-06
9.7143366915223903184e-06
9.7412580401497118643e-06
9.7641172505616039495e-06
9.7819791384597356334e-06
9.7947544216506792278e-06
9.8039986017125740604e-06
9.8109930995863249076e-06
9.8181842370227002367e-06
9.8264174632211204749e-06
9.8367236660742291677e-06
9.8488135752320906833e-06
9.8624514696457118984e-06
9.8763891647268822527e-06
9.8895917120968155945e-06
9.901746285416455261e-06
9.912176811719803935e-06
9.9221685186973833934e-06
9.9320801284243686647e-06
9.9433054497292707168e-06
9.956556594159821121e-06
9.404607583943638542e-06
9.425550011180328284e-06
9.4424141091021731854e-06
9.4547787944177774373e-06
9.4640640059282950914e-06
9.4713149428702158683e-06
9.4786845648166116507e-06
9.486834683149041465e-06
9.4963015327392616421e-06
9.5072216945711690654e-06
9.5185314393355358167e-06
9.5300368622632624082e-06
9.5410652070530383519e-06
9.5524285176796255815e-06
9.5644986418025977203e-06
9.5779552712323357206e-06
9.5926875419243629115e-06
9.1095899849409715235e-06
9.1160222662537030238e-06
9.1267601495620959135e-06
9.142533979696531118e-06
9.1627824297086915746e-06
9.1859033699208800841e-06
9.2084840037752355792e-06
9.2280483918522221724e-06
9.2422806379712498729e-06
9.2514296492055481444e-06
9.2567258307985586551e-06
9.2605256615273842235e-06
9.2649116700877867002e-06
8.7454907377317468091e-06
8.755735080941610176e-06
8.7726421997345189736e-06
8.7959160512850602826e-06
8.8236334550860556016e-06
8.8528350918830069603e-06
8.8804582337279735083e-06
8.9039718454827249686e-06
8.9214454227446271479e-06
8.9321231947245465426e-06
8.9363897915399593907e-06
8.9357231194801952176e-06
4.8739750853670926287e-06
4.7479533920494917357e-06
4.6406623493253267165e-06
4.5613698513387243165e-06
4.5142746604241230612e-06
4.4946955500664976827e-06
4.4903771074967368534e-06
4.4947643663298416749e-06
4.5316557432807662539e-06
4.6790047087884455195e-06
5.0271654573239785293e-06
5.31545758233755009e-06
5.4974692201535594851e-06
5.5896098232420764863e-06
5.6186949761825937013e-06
5.617124442275635018e-06
5.6008342075860365931e-06
5.5334988490004667137e-06
5.3401326465958131039e-06
5.1397820701788330885e-06
7.1924319328926898805e-06
7.0178802187511202265e-06
6.8471592317635242666e-06
6.6930771397020680236e-06
6.5745659100681005181e-06
6.5039717396859086267e-06
6.4763176091658524076e-06
6.4711122983904907706e-06
6.4797863748403931674e-06
6.5383548525071237783e-06
6.759346751729185776e-06
7.137112249345267247e-06
7.4126730040584081042e-06
7.5773049563079371806e-06
7.6520946927548026917e-06
7.6688984491906367824e-06
7.6628170947194393944e-06
7.6392660093126954561e-06
7.5560251919250749199e-06
7.3140685461114119639e-06
7.0291664139129520172e-06
6.7948986856850338115e-06
1.2151844025517299317e-05
1.1976906595907324692e-05
1.180300317100576583e-05
1.1634747255528287425e-05
1.1490907373397340533e-05
1.1394462701369956922e-05
1.1350146014609223597e-05
1.1339200593307382042e-05
1.1341293109137271471e-05
1.1375745198050331587e-05
1.1503222208978693548e-05
1.1835593053351850626e-05
1.2148076037131917755e-05
1.2352413315429314214e-05
1.2450433894007304568e-05
1.2467442870899469505e-05
1.2456499357767381544e-05
1.2428539910596632037e-05
1.2354496317585019529e-05
1.2148739293019329672e-05
1.1853209246506999351e-05
1.1592895516805350284e-05
1.1388308426017913636e-05
1.1259626336031093287e-05
1.1201608917611008577e-05
1.1186082040796507011e-05
2.6445534903149001121e-05
2.6371794786186461605e-05
2.6335139872770342871e-05
2.6315111822505907104e-05
2.6299905283167826205e-05
2.6294336491898966541e-05
2.6309728580865247312e-05
2.637527899739521505e-05
2.6582584181298177971e-05
2.7006670832798864926e-05
2.7424951802202886703e-05
2.7758129846611081219e-05
2.7969823928874758707e-05
2.8052170701580927411e-05
2.8048196558713942716e-05
2.801272542494817822e-05
2.7916016875971365904e-05
2.765291416525984049e-05
2.7288318520715794884e-05
2.697752000909265323e-05
2.6733340840167213031e-05
2.6575868311025297364e-05
2.6494782065072265941e-05
2.6464415278642304221e-05
2.6453488802651521546e-05
2.6474237392743796407e-05
2.6574465912813467007e-05
2.6854264729953142423e-05
5.7986596605518992374e-05
5.7906195502535273635e-05
5.7858000977302495257e-05
5.782016897200138115e-05
5.7792151853319400159e-05
5.7789963649117267878e-05
5.7857096746788299929e-05
5.8010749567405989668e-05
5.820810508288042182e-05
5.8409116592967766054e-05
5.8568892185371268955e-05
5.8657301009851665072e-05
5.8663597261016215095e-05
5.8623555983212096907e-05
5.8545883686098074518e-05
5.8344249429076415069e-05
5.800631561168636917e-05
5.7686473377663073658e-05
5.7410234784081703573e-05
5.7183490386964391317e-05
5.7020373777729517787e-05
5.6918038054105513752e-05
5.6860627987010064295e-05
5.6825059780194899059e-05
5.6827041921845345459e-05
5.6931015570671753467e-05
5.7081261675714501226e-05
5.720801062325338082e-05
5.7288106816812933686e-05
5.7315289313676364726e-05
8.932943890750887322e-05
8.916442052178850876e-05
8.9000997992601395921e-05
8.8835462584353186411e-05
8.8669376485133203844e-05
8.850760345072042172e-05
8.8353152109693099451e-05
8.8203244917101880748e-05
8.8047756499734158918e-05
8.7874110324262914872e-05
8.7672938629475613949e-05
8.7442368745296457605e-05
8.7188249520012188693e-05
8.6920745354108973585e-05
8.6650812969121443811e-05
8.638826690550122729e-05
8.6142266433347040324e-05
8.5921219902755150539e-05
8.5729238657872115976e-05
8.5566191709660245493e-05
8.5427856838874653266e-05
8.5308679206079837546e-05
8.5202748489086196589e-05
8.5104893981440799216e-05
8.5008126868756599256e-05
8.4904712024959987332e-05
8.4785855682882374485e-05
8.4642142679943184838e-05
8.4469021409704067908e-05
8.4264823959811423031e-05
8.4033634799373507773e-05
8.3786270741618333949e-05
0.00010708999800304689351
0.00010682215743049703911
0.00010655491636890412161
0.00010628632956202622019
0.00010601829465297642977
0.00010575504991833497496
0.00010549966185429883881
0.00010525153186246124408
0.00010500646603722622928
0.00010476041700096738675
0.00010451320608380715814
0.00010426819609582158607
0.00010402938559543016821
0.00010379746761754862826
0.00010357077422647625084
0.0001033476515115299587
0.00010312885524784653438
0.00010291705133045308933
0.0001027142111760543107
0.00010251988737133174126
0.00010233132198338965079
0.00010214563731977282135
0.00010196023474204240675
0.00010177319974144644879
0.00010158312384366764074
0.00010138944002691467324
0.00010119226406250183441
0.00010099337683528839709
0.00010079411062454171047
0.00010059625519665373657
0.0001004010194106658133
0.00010021111716188367644
0.00010002740192023381227
0.00014161302657908470502
0.00014081791038120827536
0.00014003382498920714946
0.00013925812547850916195
0.00013849028969987081964
0.00013773661826443564385
0.0001164823282863627484
0.00011624213817872978646
0.00011599867458924841739
0.00011575048617413268514
0.00011550107769650771984
0.00011525635943136686753
0.00011502022088959679505
0.00011479188901532648968
0.00011456722436482685032
0.00011434264015531853554
0.00011411890123869903322
0.0001139007835990865007
0.00011369222709854014987
0.00011349208242424007145
0.00011329519963425501458
0.00011309732002719582935
0.00011289849979708361822
0.00011270195918737629915
0.00011251064542385270126
0.00011232528646490703181
0.00011214483988313436974
0.00011196725639464913079
0.00011179099349187387731
0.00011161478162925752601
0.00011143743004801486907
0.00011125911501878921119
0.00011108076323881492303
0.00011090330117786412049
0.00011072703811576775656
0.00011055192976092667503
0.00011037904147170929435
0.00011020899581593806389
0.00011004288324419521773
0.00010987957803467379237
0.00013694806742947058056
0.00013622444963878765803
0.00013548168257448826336
0.00013472689173437186094
0.00013396569163793433884
0.00013321260794960427154
0.00013248571727698195324
0.00011361499899160431063
0.00011340301546901137826
0.0001131870591617870677
0.0001129807267698847308
0.00011279911476519700864
0.00011264917977391814886
0.0001125263846595499803
0.00011241876372091271679
0.00011231641647075603439
0.00011221807473041477013
0.00011212987881172488543
0.00011205507098271449485
0.00011198873149447066732
0.00011191942463572191347
0.00011183903465651986618
0.00011175044149825930334
0.00011166344725803974516
0.00011158593897701590163
0.00011151760443023001133
0.00011145010776581719674
0.00011137350554293342199
0.00011128068888440792417
0.00011116909979041064108
0.00011104014193774455136
0.00011089639834556374567
0.00011074117781788898288
0.00011057831968907256138
0.00011041096961145947688
0.00011024090697268596167
0.00011006934513167853219
0.00010989795900810138732
0.00010972798045739187147
0.00010955910932612413476
0.00010938931959547689289
0.0001092160186553870285
7.6998159643586267624e-08
7.7053789405107905144e-08
7.7073250362792600542e-08
7.7135481960225976762e-08
7.7163308354572484706e-08
7.7284886266940306067e-08
7.735694582637624371e-08
7.7511972787055143651e-08
7.7733567284669553155e-08
7.7837437024395363931e-08
7.8041887526705023641e-08
5.8470898295753820141e-07
5.8385479216682276429e-07
5.8314477005109129136e-07
5.8246835822917580164e-07
5.8194670451489375402e-07
5.8154510810711917978e-07
5.8139390017470176882e-07
5.8213703486601134018e-07
5.8354361441960511711e-07
5.8449088171482585546e-07
5.8501779472458731865e-07
5.8521612467963188423e-07
5.8519604459589092957e-07
5.8502880738964109007e-07
5.8475036405271121961e-07
5.8444028931330149986e-07
5.8416992402880940183e-07
5.8404797834978502438e-07
5.8443048627800131097e-07
5.8654717289834845954e-07
5.9106633296250290736e-07
5.9518349113389068089e-07
5.9837371020927959545e-07
6.0030168417775183878e-07
6.0097781178654158558e-07
6.0083319461534249643e-07
6.0038377626569572594e-07
5.9974326120325462776e-07
5.9859377056255918777e-07
5.9613082490704385814e-07
5.93223784646251916e-07
5.9075194704021785338e-07
5.8886323375555605751e-07
5.8755212066660397546e-07
5.8666766108612624117e-07
5.8602207899798800577e-07
8.1466174777930840296e-08
8.1355448435805638022e-08
8.1283989824655317761e-08
8.1235223801773343909e-08
8.1198722456075264143e-08
8.1174432586593081516e-08
8.1168463947913182911e-08
8.1191591158618753375e-08
8.1220586012591042404e-08
8.1268356541505878029e-08
8.1286000230321709064e-08
8.1342137008424333654e-08
8.1362113075121999349e-08
8.1420941454673597264e-08
8.1442726297485047219e-08
8.1542623144901211538e-08
8.1590190133133613531e-08
8.1725709403964891808e-08
8.1907769957759413978e-08
8.2004647552281524358e-08
8.2237121639559068592e-08
5.9349691030470647251e-07
5.9085795362137582372e-07
5.8895983379313283028e-07