/*--------------------------------*- C++ -*----------------------------------*\
  =========                 |
  \\      /  F ield         | OpenFOAM: The Open Source CFD Toolbox
   \\    /   O peration     | Website:  https://openfoam.org
    \\  /    A nd           | Version:  12
     \\/     M anipulation  |
\*---------------------------------------------------------------------------*/
FoamFile
{
    format      ascii;
    class       volScalarField;
    location    "0.0069";
    object      p;
}
// * * * * * * * * * * * * * * * * * * * * * * * * * * * * * * * * * * * * * //

dimensions      [1 -1 -2 0 0 0 0];

internalField   nonuniform List<scalar> 
106891
(
99612.769859047766658
99603.100783511748887
99597.090006234662724
99595.866700202779612
99599.800732580639306
99608.563359354433487
99621.273327043934842
99636.726203475933289
99653.659657458323636
99670.934368328918936
99687.306986994692124
99477.448798410347081
99459.260652530763764
99435.69055082151317
99412.274966102151666
99395.314731592239696
99389.018221233869554
99393.289054118809872
99405.202221690065926
99420.685362799616996
99436.145954172185156
99448.858454473011079
99456.838630891608773
99459.736130039062118
99458.99333769234363
99456.643776503711706
99454.785155227204086
99454.253529667141265
99453.993956462436472
99452.366106745015713
99448.649526871085982
99443.683686205928097
99439.894391700261622
99440.284570419855299
99447.949682508711703
99464.435500403109472
99488.649508633854566
99516.791004387545399
99542.88812736782711
99561.23872676177416
99568.368898613771307
99563.774852525020833
99549.641583079937845
99529.575840276840609
99507.536723374534631
99487.44166745878465
99473.293487421047757
99468.789343223965261
99475.569027413483127
99612.520371041886392
99624.89694556305767
99637.992751493831747
99649.440713468415197
99657.173886264892644
99659.912329436003347
99657.475043143364019
99650.76060427253833
99641.448974867409561
99631.60091897516395
99623.327841731239459
99618.443735346736503
99618.100121696756105
99622.62397888758278
99631.642222809881787
99644.288166581769474
99659.371544439913123
99675.612306988201453
99691.917981822101865
99707.258497745671775
99435.986118839966366
99412.17299985596037
99388.851665171489003
99373.168767499097157
99369.595374253782211
99378.476164922758471
99395.705278631052352
99414.566514340578578
99429.317813206129358
99437.016379122433136
99437.697293531833566
99434.054205433552852
99429.292270056073903
99425.854047705739504
99424.810931076717679
99425.179523242637515
99425.063292974984506
99422.984885573168867
99418.39562640186341
99412.13024323953141
99406.651884707025602
99405.768905159988208
99413.088987165130675
99430.581051236673375
99457.308108651341172
99488.742364410354639
99517.595746235208935
99536.591309458395699
99541.704865382664138
99533.124903124960838
99514.581469598531839
99491.59031479487021
99469.335455230058869
99451.437305506522534
99440.151810881390702
99436.984160697087646
99634.570655035262462
99644.31704410695238
99655.850634418791742
99666.944557295893901
99675.54144350552815
99680.184241142385872
99680.337501348622027
99676.458344083148404
99669.842295894675772
99662.282865956702153
99655.707870800033561
99651.861352927589905
99651.948261034005554
99656.341401394864079
99664.56180458261224
99675.611972250364488
99688.356194397289073
99701.741695708609768
99714.949279725158704
99727.284520177476224
99414.775324490619823
99393.117522071741405
99372.613654794651666
99360.161174119974021
99360.354956943672732
99372.869464542178321
99391.949198121583322
99409.282278772298014
99418.240505023451988
99417.005067158286693
99408.747870042279828
99399.041366667443071
99392.408103358378867
99390.645659320332925
99392.498764927251614
99394.701047661204939
99394.539230330381542
99391.242868442888721
99385.499486777509446
99378.989006637842976
99374.334736010074266
99374.811045753129292
99383.193196565000108
99400.956158944944036
99426.906894748579361
99456.231226983800298
99482.154840692703146
99498.129979476390872
99500.603324278854416
99490.299411417800002
99471.363212253651
99449.512730998932966
99430.101619036795455
99416.524042842938798
99409.884000527323224
99409.893196560471551
99670.780714775508386
99680.645239640536602
99691.609964643066633
99701.596594732443918
99708.851257390997489
99712.364188950305106
99712.105961539695272
99708.945091660716571
99704.330649792449549
99699.918382745148847
99697.227751710670418
99697.311357481550658
99700.55656432438991
99706.630466935661389
99714.656013962361612
99723.575524153013248
99732.47261506500945
99740.795233893149998
99748.284803630944225
99379.858580937070656
99363.896578135289019
99355.935905594029464
99359.346671573177446
99372.609106196832727
99389.08991665240319
99400.158488474349724
99399.773763009652612
99388.335492611106019
99371.952874057256849
99358.218111246373155
99352.519260733752162
99354.899273924718727
99360.98192341743561
99365.343518938010675
99364.592242830083705
99359.082927617724636
99351.814792060875334
99346.355633644576301
99345.166016246716026
99349.620314803745714
99360.293962174837361
99376.660028083759244
99396.910541437493521
99417.433416379542905
99434.260498915333301
99443.917824136704439
99444.214603870292194
99435.535691815835889
99420.929293797889841
99404.864937253601965
99391.652401222236222
99384.124583454744425
99383.013317145378096
99702.71323833130009
99706.125866290269187
99713.858768923018943
99724.277815193796414
99735.273784135657479
99744.841755487199407
99751.579392728453968
99754.980163287153118
99755.443644226295874
99754.017574450117536
99751.953726261970587
99750.377267539210152
99750.107671939797001
99751.513208019940066
99754.419099922670284
99758.197746314297547
99762.083557842837763
99765.450756037098472
99768.013708640297409
99769.828920492887846
99374.184920039129793
99362.18884354281181
99357.208681989388424
99360.734785717810155
99370.584801404998871
99380.640482430506381
99383.378606202619267
99374.187292276576045
99354.782975814669044
99332.778204897884279
99317.364231481478782
99314.046145597312716
99321.24510421071318
99331.729200510642841
99337.946016982255969
99336.206882469617995
99328.345410362220719
99319.915888871022617
99316.404300467838766
99320.164419128894224
99330.025617292209063
99343.091889241011813
99355.905578933103243
99366.108076491771499
99373.141159178543603
99377.170722072740318
99378.846338443676359
99377.93916165153496
99374.083547982969321
99367.913022597203963
99361.023365044908132
99355.890103528974578
99355.02369881454797
99754.590817344127572
99758.696286908860202
99766.579806649708189
99776.496609321417054
99786.534847387825721
99795.008241353629273
99800.841641048638849
99803.820793067367049
99804.543821845407365
99804.023924897468532
99803.177050578160561
99802.54590609598381
99802.267227240590728
99802.126146512528067
99801.656254731715308
99800.349775118564139
99797.896620421655825
99794.372152496682247
99790.207588786797714
99366.531249039646355
99360.161577839389793
99358.45201469596941
99360.541554671974154
99362.554450284587801
99358.744931327004451
99344.891158105951035
99322.622504627041053
99299.424873016279889
99284.452507227557362
99282.538707070663804
99291.354782638532924
99303.005564945473452
99309.611109373625368
99307.926158533868147
99300.489105832166388
99293.56832155318989
99292.97035120302462
99300.94048293857486
99314.37032538081985
99327.2391319348244
99334.329085972800385
99333.825273883674527
99328.341070556532941
99321.813581598747987
99317.548096826591063
99316.830801427087863
99318.324902766296873
99320.1253357995447
99321.657906589942286
99323.817365168200922
99328.409796193183865
99818.048593471423374
99816.61166237219004
99819.396848767952179
99825.136852697381983
99832.196703562382027
99839.018777633144055
99844.465817173680989
99848.021872187659028
99849.779370830045082
99850.233128325024154
99849.928205962685752
99849.125341654595104
99847.712344205094269
99845.312758478918113
99841.501798405923182
99836.01008296389773
99828.751819383018301
99819.985621550047654
99810.370923871727427
99360.832208083360456
99349.781721556471894
99341.458134336120565
99335.537983426082064
99328.726094744313741
99317.085922211466823
99299.626281437798752
99280.263567877467722
99265.237881742417812
99259.155275602024631
99262.405090422660578
99270.582269454214838
99277.781707803937024
99280.589642809194629
99279.637486853112932
99278.513840391198755
99281.403420162474504
99289.484491475610412
99299.741042858542642
99307.007412899372866
99307.458116649751901
99300.769578431878472
99290.186987279070308
99280.51529215197661
99275.093936270510312
99274.878345890450873
99278.807099244484561
99284.644227017939556
99290.97842033203051
99297.913772962754592
99882.84773766802391
99878.286730096006067
99876.761017676442862
99877.319705457237433
99879.063384658278665
99881.246418055729009
99883.339753082604147
99885.062762013039901
99886.331150378056918
99887.08210166193021
99887.067125724715879
99885.793705837000743
99882.622656835214002
99877.022151885248604
99868.836215543735307
99858.284922177292174
99845.9355302995682
99832.522957498411415
99337.355414789679344
99318.923921654379228
99307.004267936441465
99301.170079966614139
99296.930732006963808
99288.679820631878101
99274.200432083598571
99256.579111283397651
99241.883459363481961
99234.994174807259697
99237.190381643857108
99246.154359556065174
99258.025582865579054
99269.498075405499549
99278.779839406124665
99284.828569067321951
99287.362684888648801
99286.717740399632021
99283.120649599004537
99277.472672671254259
99271.275256542197894
99265.771456706264871
99261.837769313846366
99259.328454094502376
99258.181657029228518
99258.934737360978033
99262.290654814220034
99268.657379548225435
99945.599062240900821
99931.56139430127223
99920.619387629223638
99913.000537114581675
99908.450952983985189
99906.489345203139237
99906.574391670379555
99908.113811519768205
99910.409607164110639
99912.665464116202202
99914.042564961826429
99913.719171693097451
99910.953944150969619
99905.205167808366241
99896.317256523689139
99884.587848590192152
99870.814150869278819
99855.917288184427889
99301.890185235984973
99286.832875610241899
99282.777196314345929
99284.627488651924068
99284.020851209948887
99274.650346658614581
99256.216804448791663
99234.445724113218603
99218.30066990708292
99215.2700827344961
99227.561575566898682
99250.954349773179274
99276.683545815307298
99295.661460573508521
99302.142245844603167
99295.556487063178793
99280.66462026166846
99265.256634218036197
99255.760097376944032
99253.946855883012176
99256.913534163599252
99259.965405024442589
99259.804728607254219
99256.119823692934006
99251.965641791801318
99251.470764275203692
99257.454215901801945
99969.14159436848422
99951.39369091296976
99937.644426581347943
99928.163613686658209
99922.725101401054417
99920.793594782910077
99921.618481107754633
99924.241398362020846
99927.47297330389847
99929.982804472223506
99930.551710656145588
99928.296079687250312
99922.815354557140381
99914.250262912100879
99903.091958662960678
99890.120481488018413
99876.170571184775326
99326.077231343006133
99299.097392230818514
99282.975966342404718
99279.274306130610057
99283.404047781339614
99286.759423112540389
99281.646679468234652
99265.964598988066427
99244.676537607578211
99227.604487857257482
99224.514429829534492
99239.718719518059515
99269.185969371712417
99301.656514993592282
99324.006556042120792
99327.742434813146247
99313.260455003066454
99288.864961270388449
99265.664652031933656
99251.871181048045401
99249.325898789815255
99253.766679820182617
99258.696767481014831
99259.575744822912384
99256.201284858863801
99252.198317493399372
99252.394017471699044
99966.820868140566745
99951.673257498448947
99940.787268206317094
99934.249228174099699
99931.578654523444129
99931.832327305281069
99933.784567549970234
99936.149891035020119
99937.741214485125965
99937.587574064236833
99935.034101900149835
99929.857306208155933
99922.300265593483346
99912.894934555573855
99902.399390668579144
99891.418118878267705
99340.189566318396828
99315.231139525596518
99300.983652820592397
99297.483461633077241
99300.69337168437778
99304.095703595507075
99301.838533902831841
99291.795540450097178
99277.379699463344878
99265.982472708346904
99265.517544123067637
99279.776964093412971
99305.330506750222412
99332.262610961624887
99348.973667762504192
99348.660565810743719
99332.405397233553231
99307.644485696437187
99283.60097757067706
99266.417592263780534
99257.5389471223898
99254.89769582018198
99254.962331612579874
99255.578993017014
99256.854774800216546
99259.816526038470329
99265.816826253736508
99275.722377461628639
99951.517287378068431
99944.165002053210628
99940.258919587460696
99939.023897410792415
99939.367351733191754
99940.110004399233731
99940.24623806332238
99939.099642602610402
99936.374575672001811
99932.099482297475333
99926.508411045535468
99919.943134457920678
99912.736894491725252
99905.260938635212369
99897.712448068807134
99342.486653129730257
99331.078757830749964
99328.133102466992568
99330.139011316598044
99332.549433485459303
99331.818553015531506
99326.885312325146515
99319.706245429377304
99314.420117988236598
99315.705066797716427
99325.811337007413385
99342.194094339734875
99358.1669637550076
99366.159363457787549
99362.128773118456593
99347.285081852605799
99326.642377395110088
99305.412730465453933
99287.157042666163761
99273.20767069379508
99263.739306261049933
99258.675765931635397
99258.492748055126867
99263.092330668092472
99271.532445962249767
99282.194966897863196
99293.585691125248559
99941.272302013108856
99940.897032656372176
99941.702789973845938
99942.484690941069857
99942.241155020878068
99940.373693989764433
99936.756193241104484
99931.699434709866182
99925.788273207392194
99919.657705831239582
99913.786953682720196
99908.357390577919432
99903.370048185548512
99898.584973927980172
99374.031916134306812
99372.478942254776484
99373.404517866525566
99374.480655641731573
99374.870943233094295
99374.580143341096118
99373.775707018503454
99373.045606708008563
99373.399541639635572
99375.559122111691977
99378.717622275493341
99380.517489421690698
99378.556083820396452
99371.501117903128034
99359.605141017440474
99344.357705889211502
99327.558773749697139
99310.586544723628322
99294.762925243267091
99281.882323018813622
99274.23539860015444
99273.524237105724751
99279.870160301754368
99290.600437574728858
99302.259253136027837
99312.458227772192913
99936.34848297314602
99939.087840157168102
99940.381686592416372
99939.44874926970806
99936.118039986482472
99930.782895883196034
99924.232234418246662
99917.406553017601254
99911.144344577987795
99905.963424976303941
99901.947133111883886
99898.870535664304043
99896.188747061722097
99425.911611945717596
99426.588098150721635
99426.824174077584757
99427.927646308846306
99430.48351328195713
99433.441088269668398
99434.115253469077288
99430.458036211886792
99422.230516007897677
99411.054631455524941
99399.165533095831051
99388.161403789345059
99378.352875598488026
99368.978901546011912
99358.803131463209866
99347.339542791843996
99334.603896486558369
99321.592551412250032
99310.307829034471069
99303.320640697405906
99302.489379476959584
99307.432176728427294
99315.654858889538446
99323.697530742923846
99329.937921601464041
99930.164777197918738
99931.754074371157913
99930.540287354087923
99926.664806133732782
99920.852625115818228
99914.170421716058627
99907.705439610668691
99902.287402988906251
99898.316815448575653
99895.728750390277128
99894.113165717033553
99892.765080148339621
99484.627560362496297
99485.451304214569973
99487.017348815250443
99490.268095939070918
99492.810353954075254
99490.687368929386139
99480.26157172654348
99461.565963093569735
99438.393152619712055
99415.97374381274858
99398.088513564449386
99385.541409481069422
99376.843607122485992
99370.14914026443148
99364.102502932670177
99358.136068029532908
99352.296740810925257
99347.024027413775912
99343.401033638539957
99342.310240505175898
99343.318995476496639
99344.946463388696429
99345.710534707613988
99345.798051161691546
99544.903271017421503
99546.186763330217218
99547.196163547778269
99545.753414918712224
99537.4095505723526
99519.088919696456287
99491.927806949272053
99461.118717684512376
99432.793300528152031
99410.8496748234611
99395.74027321524045
99386.344873934503994
99381.17186124973523
99379.889443251100602
99382.042434329021489
99385.944525305356365
99389.184154654256417
99389.95970806798141
99387.639312563900603
99382.42557724112703
99375.009649243278545
99366.798160936625209
99360.307243712377385
99596.335835967111052
99588.297817515558563
99572.404014862971962
99547.03593849754543
99514.575266017011018
99480.831567054527113
99451.167816786910407
99428.069439823753783
99411.349201586926938
99400.073053995263763
99395.085674981906777
99397.621770351775922
99407.46322589146439
99420.941931681154529
99432.35665480386524
99436.83113679914095
99432.39401088678278
99420.36980094097089
99404.04480821879406
99387.431644443466212
99374.995638275751844
99531.407886003187741
99498.961570357685559
99471.549260286308709
99449.7092494025419
99432.22515243953967
99419.236625976613141
99413.672615466435673
99418.776687333956943
99434.304176341523998
99454.949446854545386
99472.188488238476566
99478.703046568552963
99471.801371606925386
99453.816143052143161
99430.251904251475935
99407.323854733869666
99390.587881579864188
99456.999668837001082
99443.215772207797272
99437.191871665520011
99443.333593106537592
99461.581118702713866
99485.522437209161581
99505.125276406353805
99511.776333156201872
99502.431791152557707
99480.269298300903756
99452.379215141423629
99426.031376952902065
99407.2219624579011
99470.402429427456809
99464.088860260148067
99469.822237813466927
99487.657309499452822
99511.167651182287955
99529.928695242313552
99535.219521393140894
99524.003127373754978
99499.94147276118747
99470.487463431447395
99443.277512192697031
99424.299043613747926
99562.967132811405463
99529.805337549099931
99506.090382470560144
99490.630712420344935
99480.029476696377969
99472.758135113399476
99468.684157926254557
99466.700514829528402
99463.36855807066604
99455.455423268096638
99443.682847888616379
99434.803791959377122
99434.741408590329229
99444.136501519140438
99457.451337543418049
99469.73676255402097
99479.999516675874474
99490.686322051114985
99503.411296379403211
99516.713846599799581
99603.874282408753061
99562.957209494750714
99530.999996692582499
99507.130123957773321
99488.537156471778871
99473.787355317093898
99463.938777672039578
99460.551533286459744
99461.261722275885404
99459.93956831007381
99451.641644195260596
99438.027299624474836
99426.499402343426482
99425.217161162741832
99434.849291431324673
99450.026189937096206
99465.541282676713308
99479.288704865961336
99492.258786242935457
99505.501918797526741
99517.542996368283639
99526.230433641379932
99703.711495155061129
99653.114472093395307
99603.415159333744668
99562.622170877366443
99532.194200478348648
99508.503065017255722
99487.024564687380916
99467.983298640305293
99455.633251002684119
99452.919160634148284
99456.46582450621645
99457.28858649560425
99449.042668482550653
99433.189593728660839
99419.540167168903281
99416.539711932578939
99426.210255437646993
99443.336369935175753
99461.986174459263566
99478.964626185697853
99494.008840935217449
99507.537350003272877
99518.317037066633929
99525.199174279914587
99527.783536549468408
99527.132176573330071
99757.786215114814695
99711.296742017104407
99655.436957620520843
99602.59249979435117
99561.953072589167277
99533.380559908575378
99509.976156595381326
99485.957651623975835
99462.816336598683847
99448.000604178916547
99446.021696707495721
99452.421549788268749
99455.583153462997871
99447.192458755278494
99429.582805843150709
99413.484546996915014
99409.014854001943604
99418.815886792828678
99437.64535217267985
99459.102411544154165
99478.988809935573954
99495.871046001877403
99509.440051261670305
99518.995913722290425
99524.22554306058737
99525.598137948603835
99524.072109951477614
99521.775903093832312
99798.031236038237694
99768.366897001076723
99717.986822405990097
99657.193044316241867
99601.489741011202568
99561.017161011026474
99534.42088435961341
99511.580392842515721
99485.381713668946759
99458.327275446994463
99441.162281570985215
99439.982075671636267
99449.144332973184646
99454.600838170794304
99446.263425725439447
99426.681154811289161
99408.262850571016315
99402.541600726122851
99412.41299954058195
99432.852658514631912
99456.812669455641299
99479.292278710796381
99497.751284139274503
99511.284379833203275
99519.691586747794645
99523.481120432348689
99523.845267514421721
99521.756044610432582
99518.364443813989055
99516.073893661407055
99814.236945144177298
99807.474080610889359
99777.577005938393995
99723.629776801593835
99658.480210744237411
99600.151139218782191
99560.022116813153843
99535.340143811583403
99513.269245956456871
99484.971384701653733
99454.570530670433072
99435.18131473059475
99434.906476681833738
99446.668501039297553
99454.267302610955085
99445.804466816989589
99424.527594438201049
99404.202083662559744
99397.256835846317699
99407.15968728903681
99429.089995535949129
99455.260668901362806
99479.88943009803188
99499.701159452233696
99513.149495378995198
99520.409261527252966
99522.909567918133689
99522.420239752100315
99519.857623746807803
99515.526408802499645
99512.079073653090745
99512.717037883630837
99818.932446750928648
99814.822021130326902
99784.997947565658251
99728.104514339371235
99659.236560555073083
99598.747956165098003
99559.075484056898858
99536.108632423827657
99514.888340860954486
99484.877777997535304
99451.64250078733312
99430.381900747277541
99430.938271147650084
99445.086120886262506
99454.394034573590034
99445.931217603952973
99423.200108209406608
99401.048707220397773
99393.018408234769595
99403.020547773252474
99426.234911225459655
99454.238481624634005
99480.571900833994732
99501.450950360944262
99514.765635340023437
99521.080084197354154
99522.590586505859392
99521.53266295119829
99518.600639969619806
99513.621127066071494
99509.194101877787034
99509.120971503987676
99515.695471659477334
99435.760405900422484
99466.815602303177002
99490.384348882565973
99498.919751419860404
99491.034777042572387
99480.535235774586909
99822.31498697544157
99820.277050535194576
99790.328387894987827
99731.293280566271278
99659.568101798489806
99597.548186380285188
99558.25576446983905
99536.660440164370812
99516.143712693941779
99484.897209327551536
99449.45486313920992
99426.940984515764285
99428.135367002134444
99444.221786100388272
99454.831299035926349
99446.313017710330314
99422.28938481293153
99398.705719351113657
99389.969140781104215
99400.157787860880489
99424.343252174192457
99453.666242841049097
99481.242697784735356
99502.814913569411146
99516.033896366803674
99521.640315665354137
99522.401403281081002
99520.96445492040948
99517.723113780521089
99512.319089907003217
99507.144199460628442
99506.550201119171106
99513.162811704431078
99526.181109574783477
99394.587219805252971
99437.04674971482018
99468.34091456317401
99491.668095946937683
99498.796148076406098
99489.327488725873991
99478.003916791785741
99824.265543268949841
99823.217148316922248
99793.142477877365309
99732.879096848308109
99659.539959501387784
99596.763700060822885
99557.741232211352326
99537.00648813098087
99516.813870910234982
99484.966788821606315
99448.238702398797614
99425.180744214958395
99426.647878982112161
99443.910728965201997
99455.202995586019824
99446.549549185408978
99421.739122559942189
99397.375994779795292
99388.339879876381019
99398.682111145099043
99423.411760485643754
99453.48300924198702
99481.756179958101711
99503.604299043683568
99516.765934053735691
99521.995097159073339
99522.354112446671934
99520.747374440426938
99517.342824018647661
99511.731850971584208
99506.1412772256881
99505.256632066098973
99511.890350717207184
99525.19937901016965
99541.834472997361445
99698.591838590873522
99706.506402365164831
99709.214391454341239
99707.490108825164498
99702.58703416249773
99695.955074389610672
99688.943213941791328
99682.545606144194608
99677.253976711464929
99673.129742033168441
99670.120376696795574
99416.742431001141085
99412.704494748191792
99402.589937545795692
99389.960077569980058
99379.233943605286186
99373.303101622979739
99373.577050449122908
99379.591043798282044
99390.284107648039935
99404.183699971181341
99419.278581712918822
99433.820201075970544
99446.274616552356747
99455.521925481589278
99460.18087514275976
99459.213147088186815
99452.418425468247733
99441.464590183939436
99430.785033389780438
99425.461471144590178
99428.937645679921843
99441.249676280218409
99457.672472807913437
99470.48703349227435
99473.679924163545365
99467.486402832641033
99458.742585038562538
99456.501384330229484
99466.359342861032928
99486.534862619839259
99508.962615006079432
99524.472213379543973
99528.34087564998481
99522.767888488000608
99514.244961168093141
99508.186690796908806
99606.647361269642715
99598.362688283101306
99596.60352386921295
99601.648242099065101
99612.988912422326393
99629.381549878467922
99648.94945630330767
99669.418431108919322
99688.529537951850216
99704.429426026355941
99715.877120398319676
99722.301959362695925
99723.799332147071254
99721.035024907672778
99715.081821590181789
99707.225056490075076
99698.720400450445595
99690.579575749550713
99683.455088862101547
99677.665997813368449
99673.358952801427222
99410.984439050458604
99408.864006206669728
99402.888161845781724
99396.218200259871082
99391.53616660858097
99389.57685893769667
99389.853868284350028
99391.553317296362366
99394.347919005595031
99398.469225697554066
99403.834900542671676
99409.768042086740024
99415.228833611618029
99418.831782990077045
99418.490595372742973
99412.671051768717007
99401.918182887384319
99389.189679650793551
99380.123415205307538
99380.512255278546945
99393.211236966133583
99415.868499696312938
99441.069520350429229
99459.083983284406713
99463.293168683900149
99454.269198325331672
99440.049930497145397
99431.545013630369795
99435.353176465461729
99449.957827640479081
99467.250929801914026
99477.969398199726129
99478.135235617344733
99470.66986774202087
99462.595525977405487
99459.305852858582512
99635.373524067545077
99627.928320427497965
99626.796349991331226
99632.051465855140123
99642.978450092632556
99658.241175549512263
99676.121900486410595
99694.70632377959555
99712.035582464523031
99726.373853531695204
99736.467484713895828
99741.686133001931012
99742.013454607265885
99737.94142317083606
99730.317597393979668
99720.237722929450683
99708.956160053086933
99697.721502497515758
99687.563541996045387
99679.271739344272646
99673.422201141293044
99411.340466372392257
99409.625821019566501
99407.782717139984015
99406.726814069435932
99405.499674202044844
99402.707888132805238
99397.912082104914589
99391.962291678166366
99386.255787411762867
99381.516040752554545
99378.102799554442754
99375.852374067806522
99373.618710643640952
99369.379154028458288
99360.925304386022617
99348.230364264643868
99334.911203399329679
99327.27004788267368
99331.765093706548214
99351.458024079343886
99383.196970939417952
99417.579482430272037
99442.816375361871906
99451.048168341993005
99442.513313044866663
99425.283678105392028
99410.217464544126415
99405.022913796303328
99410.169680677965516
99419.600173764003557
99425.829650804051198
99425.269462829906843
99420.239906926886761
99416.375575711674173
99661.693767700708122
99660.947605908033438
99666.092432599398308
99676.358677363867173
99690.490335201349808
99706.942559999559307
99724.04825185550726
99740.093610449592234
99753.426539875741582
99762.634790834563319
99766.77443894262251
99765.54466954820964
99759.25543738786655
99748.703854150342522
99735.033840713556856
99719.672821265601669
99704.23291831703682
99690.264821435630438
99679.12081590561138
99671.782959378353553
99419.750281165470369
99419.923119584287633
99418.971203933717334
99416.798425696702907
99412.191446325115976
99404.263006232053158
99393.503139202308375
99381.017474215870607
99368.173582071467536
99355.286242208283511
99343.308711061850772
99333.073895863679354
99324.544743851831299
99316.782418047092506
99307.876572874301928
99296.650372281219461
99285.387976045531104
99279.803765075921547
99286.918655307701556
99310.493384029716253
99347.62302525328414
99388.323086404256173
99420.095671582472278
99433.999749449096271
99428.408784580940846
99409.355845806421712
99386.92375530123536
99370.140176002270891
99363.228105893242173
99364.568123780627502
99369.287264747690642
99373.676837105958839
99377.207387797359843
99382.027639467152767
99697.763104702811688
99697.181830167275621
99702.2345383628126
99712.291700172179844
99726.176047665474471
99742.335025461463374
99759.0028815959231
99774.387383328838041
99786.813781499658944
99794.822353966053925
99797.280503086120007
99793.611816260265186
99783.979655022762017
99769.276582581194816
99750.945769417667179
99730.802521608115057
99710.891736865014536
99693.254745801197714
99679.758528785416274
99671.687278059675009
99427.2677392562764
99423.026723294940894
99415.912657960012439
99405.769356639226316
99392.772405656724004
99378.51193227886688
99363.58925280936819
99347.629394118775963
99329.874620066868374
99310.408692010096274
99291.624995529491571
99276.283946174487937
99265.85139696423721
99259.174577115685679
99253.707236601097975
99248.619963792982162
99247.30952158474247
99256.183032572793309
99279.484931370985578
99315.529890085395891
99356.596961811432266
99391.309813444750034
99409.412665485215257
99406.528608760520001
99385.809708028464229
99356.330743600105052
99328.834254822024377
99310.951327165108523
99305.928040273982333
99312.600504883783287
99327.232870815190836
99345.320118642892339
99735.218552966383868
99741.080051414493937
99751.886520856787683
99766.463110538825276
99783.132226757719764
99799.852009580819868
99814.547243618886569
99825.407368289583246
99830.98169011878781
99830.22453641660104
99822.644359246405656
99808.528634264177526
99789.044489853011328
99766.026501785949222