/*--------------------------------*- C++ -*----------------------------------*\
  =========                 |
  \\      /  F ield         | OpenFOAM: The Open Source CFD Toolbox
   \\    /   O peration     | Website:  https://openfoam.org
    \\  /    A nd           | Version:  12
     \\/     M anipulation  |
\*---------------------------------------------------------------------------*/
FoamFile
{
    format      ascii;
    class       volScalarField;
    location    "0.0069";
    object      p_0;
}
// * * * * * * * * * * * * * * * * * * * * * * * * * * * * * * * * * * * * * //

dimensions      [1 -1 -2 0 0 0 0];

internalField   nonuniform List<scalar> 
106891
(
99612.439264376531355
99602.908577711772523
99597.120120862149633
99596.163105125262518
99600.364680653437972
99609.359217137651285
99622.239918661973206
99637.789278198033571
99654.745625034367549
99671.97918326954823
99688.257921731288661
99477.012798489711713
99458.536826734853094
99434.863872649817495
99411.602906802581856
99395.032158540649107
99389.219872586458223
99393.905331096219015
99406.081904588412726
99421.644901179955923
99437.026236152087222
99449.524880691678845
99457.209954179706983
99459.820011530682677
99458.864898854866624
99456.404160094476538
99454.529537602837081
99454.006067515874747
99453.714920072452514
99452.015798239328433
99448.225354254682316
99443.237310218668426
99439.515788637538208
99440.085162807386951
99448.020998154825065
99464.78975391027052
99489.197403654310619
99517.3486196873273
99543.230039177273284
99561.188535070905345
99567.853670408949256
99562.836501034515095
99548.40850507801224
99528.209376548518776
99506.203153826863854
99486.31137845396006
99472.535651714788401
99468.517292875272688
99475.778592643866432
99613.661184847034747
99626.147047173595638
99639.222423211205751
99650.521112334099598
99658.002833992606611
99660.43641111056786
99657.703152331436286
99650.761684713943396
99641.332758342439774
99631.48922431684332
99623.329058164526941
99618.638100781579851
99618.531248424522346
99623.292868794989772
99632.51031374320155
99645.292586919924361
99660.441841221356299
99676.682265340219601
99692.93288958100311
99708.178295833669836
99435.316708110796753
99411.404337135041715
99388.262628059834242
99373.011604232320678
99369.971515199591522
99379.312871630405425
99396.76203588405042
99415.557754702895181
99430.037157125159865
99437.370407155278372
99437.722036178747658
99433.863693731473177
99429.00789171368524
99425.568631640999229
99424.553465512406547
99424.913143322308315
99424.739692293602275
99422.568055631360039
99417.883775930997217
99411.574001774119097
99406.16506943020795
99405.493113874879782
99413.133791489482974
99430.976574568732758
99457.953533454434364
99489.404890412275563
99517.97550972145109
99536.459837355650961
99540.993692216463387
99531.926345443338505
99513.098422947936342
99490.057562235480873
99467.942989262999617
99450.307097062788671
99439.366242308082292
99436.596596767936717
99635.549155506610987
99645.472919806998107
99657.070084199585835
99668.10251204117958
99676.532536508544581
99680.942040197769529
99680.844391802645987
99676.74980148296163
99670.000369099536329
99662.413621415777015
99655.912601542382617
99652.212913398296223
99652.481293486795039
99657.054456059559016
99665.421905001057894
99676.562038031217526
99689.330727621665574
99702.684176671376918
99715.823006638893276
99728.071436979895225
99414.250564569869312
99392.522546748223249
99372.208451861573849
99360.187224559747847
99360.904149670270272
99373.811555572523503
99392.97473834255652
99410.060900202777702
99418.575460528838448
99416.907387390572694
99408.388947646584711
99398.626054352047504
99392.069001666284748
99390.41245563038683
99392.29667756978597
99394.424593522053328
99394.137643213762203
99390.720415935516939
99384.897132486017654
99378.377499427908333
99373.823313220025739
99374.516391359647969
99383.206137630651938
99401.293024934231653
99427.44937330968969
99456.746153495609178
99482.370101381180575
99497.83812279405538
99499.754862014757236
99489.007688183206483
99469.846222946987837
99448.0088730250136
99428.799781338500907
99415.518955794090289
99409.191392558641382
99409.492311547961435
99671.791564651110093
99681.817636827923707
99692.82767906357185
99702.74201016369625
99709.833071223387378
99713.136163882663823
99712.673567391582765
99709.361898550647311
99704.681742548229522
99700.292888786803815
99697.691089741958422
99697.89031394837366
99701.241105317822075
99707.385994648575434
99715.43590334278997
99724.332783766512875
99733.171485331782605
99741.418096706896904
99748.833670257066842
99379.474078476894647
99363.723924496152904
99356.146803036273923
99359.976151840906823
99373.476093744247919
99389.863550614856649
99400.523194284003694
99399.603838705967064
99387.769344891567016
99371.268603457690915
99357.68256212506094
99352.248355007512146
99354.805062925704988
99360.873563564877259
99365.053695020164014
99364.070358745055273
99358.406484698643908
99351.118701104263891
99345.751687248135568
99344.717689188270015
99349.36958479572786
99360.245412654694519
99376.769518662811606
99397.079989866979304
99417.511255342556979
99434.104506471383502
99443.420811870717444
99443.342036453293986
99434.365701656905003
99419.62421332563099
99403.6117443961557
99390.59795164942625
99383.343534259300213
99382.496228458461701
99703.249972419653204
99706.959120915882522
99714.931555512506748
99725.485166343511082
99736.494233775505563
99745.969784094530041
99752.544825114790001
99755.756408615823602
99756.048473039627424
99754.506577624721103
99752.399614449124783
99750.841061084240209
99750.616866115291486
99752.059206069156062
99754.969027883256786
99758.711351378573454
99762.526834551361389
99765.805717796523822
99768.282298482445185
99770.032358522803406
99373.966382810118375
99362.170188953794423
99357.476237297480111
99361.261578722609556
99371.185044554920751
99381.023096159813576
99383.292153634291026
99373.578564133189502
99353.853353553975467
99331.880356414898415
99316.803365593150374
99313.900699198406073
99321.32140948039887
99331.718513190513477
99337.622413255085121
99335.540797741516144
99327.50742545783578
99319.137222663353896
99315.847245439406834
99319.842162414977793
99329.846867492145975
99342.929287327584461
99355.647104591043899
99365.70818714867346
99372.607917483430356
99376.539580310694873
99378.142867500908324
99377.155957663911977
99373.227559952778392
99367.022691337013384
99360.171698668142199
99355.175747270928696
99354.518184449058026
99755.230555170332082
99759.612201145500876
99767.686228281672811
99777.679295069552609
99787.682049796319916
99796.035225832019933
99801.702782613763702
99804.509563716172124
99805.084814900968922
99804.461081884946907
99803.558067751480849
99802.902214926463785
99802.600066830113064
99802.411560311855283
99801.861326408848981
99800.450017572657089
99797.886705009834259
99794.267625616761507
99790.040806360106217
99366.479656149385846
99360.238275743933627
99358.643275709531736
99360.73920368932886
99362.556681445988943
99358.347365548383095
99344.053436125293956
99321.551364519677009
99298.477533176526777
99283.915910554074799
99282.446051971855923
99291.470497782487655
99302.990154796047136
99309.238534773990978
99307.19554486364359
99299.603231079818215
99292.788596710190177
99292.475286718967254
99300.711241181037622
99314.204565470587113
99326.900708124172525
99333.676651608839165
99332.896530628146138
99327.299067115120124
99320.827472987293731
99316.734027606391464
99316.192740283280727
99317.784278703547898
99319.61640910404094
99321.171619719563751
99323.403412733372534
99328.130023795980378
99818.3876565976243
99817.221069167600945
99820.232526071369648
99826.105818915137206
99833.189600190060446
99839.943055178737268
99845.265489849844016
99848.679396437713876
99850.304687274692697
99850.648590580341988
99850.256373586424161
99849.379559875946143
99847.889127019414445
99845.391493629664183
99841.457702698069625
99835.830799268442206
99828.445898464939091
99819.581065038044471
99809.907703084652894
99360.507968244259246
99349.47830389867886
99341.198102067559375
99335.248660997836851
99328.263519764004741
99316.361426817195024
99298.711996149402694
99279.376787806264474
99264.586081854926306
99258.823266111372504
99262.294586779040401
99270.466577278348268
99277.470960414095316
99280.041441215740633
99278.952678206987912
99277.874065350872115
99280.934497012509382
99289.154071609606035
99299.37541559584497
99306.418452598474687
99306.563557042361936
99299.644026905545616
99289.019196482578991
99279.491117244149791
99274.310410528196371
99274.33584624825744
99278.428280178064597
99284.334447782704956
99290.702071509789675
99297.68329011980677
99882.969898013470811
99878.60626768200018
99877.232326080295024
99877.882434398168698
99879.655888904453604
99881.820260857944959
99883.866736582436715
99885.530599467805587
99886.73227123740071
99887.404488713524188
99887.294158671953483
99885.906874040752882
99882.601868332392769
99876.849713183604763
99868.506507497848361
99857.812287982946145
99845.354760373316822
99831.882906219660072
99336.531661396395066
99318.251263134778128
99306.552914953703294
99300.848375953297364
99296.531773113281815
99288.037381708607427
99273.325173047298449
99255.654289841186255
99241.123167593847029
99234.516485627711518
99236.967784273525467
99246.061108262045309
99257.925737354133162
99269.301841825057636
99278.443150552455336
99284.331297165481374
99286.72114441668964
99285.952061848322046
99282.25786446291022
99276.571982165929512
99270.397119825182017
99264.958387166116154
99261.102943076693919
99258.659780186470016
99257.587829663374578
99258.442084873095155
99261.920557895340608
99268.422436108798138
99945.06153633329086
99931.167672035502619
99920.405852710275212
99912.972262363866321
99908.585669174528448
99906.748677416238934
99906.916305775375804
99908.497748864421737
99910.793858063785592
99913.003935302593163
99914.28579461791378
99913.822046834626235
99910.886418847963796
99904.958084174722899
99895.902001168666175
99884.034192733903183
99870.164866624065326
99855.219377575500403
99300.938523648757837
99286.291986499665654
99282.574917841673596
99284.485161855234765
99283.627838501197402
99273.859654924046481
99255.128488250076771
99233.35512869831291
99217.546697574260179
99215.058832321723457
99227.858830737517565
99251.491840883129044
99277.093868530238979
99295.644525984986103
99301.579077976653934
99294.544152338115964
99279.487304785943707
99264.224544197699288
99255.048626187708578
99253.515149858518271
99256.581485592745594
99259.549994815373793
99259.217751886928454
99255.417033332254505
99251.309350396404625
99251.019099325276329
99257.26422997591726
99968.183733608777402
99950.646821289337822
99937.14399484275782
99927.912429340998642
99922.701079500693595
99920.954598026612075
99921.908225862352992
99924.59418171159632
99927.816544075059937
99930.245595114902244
99930.673038585038739
99928.236742829394643
99922.565792858804343
99913.830925594666041
99902.543855121984961
99889.494932035042439
99875.519758267691941
99324.676720689909416
99298.0113723892282
99282.368748890046845
99279.091226384713082
99283.373868977389066
99286.542212515050778
99281.027502839991939
99264.995842173550045
99243.657488640325028
99226.938091862219153
99224.492816069076071
99240.348596783805988
99270.148764253535774
99302.440659825166222
99324.163762668904383
99327.111447093964671
99312.040986400810652
99287.478156052762643
99264.525325858674478
99251.188651165852207
99249.034249657779583
99253.617313320646645
99258.43883567804005
99259.097340766224079
99255.576742267017835
99251.615114350817748
99252.033803140671807
99965.878820251164143
99950.982299596551456
99940.366075884361635
99934.084744875493925
99931.628977933665738
99932.032660750221112
99934.057712410765816
99936.419411486131139
99937.941035882657161
99937.668856638221769
99934.970661722574732
99929.647754085046472
99921.964743678370724
99912.469187097158283
99901.92496013022901
99890.93117029358109
99338.797451827311306
99314.204325626633363
99300.412644963071216
99297.286501679423964
99300.656727502821013
99303.964600008534035
99301.443481332797091
99291.157857793965377
99276.718075330500142
99265.610755410802085
99265.675535744507215
99280.467087903380161
99306.266543685662327
99332.981110698165139
99349.085093418761971
99348.049731338309357
99331.266028584112064
99306.335328077548184
99282.452064582917956
99265.583030321227852
99257.002610625670059
99254.533780828554882
99254.63912449045165
99255.25485172693152
99256.553478420581087
99259.583318270073505
99265.700040288531454
99275.73332563751319
99951.008091385636362
99943.891837484203279
99940.184834238229087
99939.089965576626128
99939.504684941435698
99940.252336363788345
99940.341455190049601
99939.116196040078648
99936.302628841149271
99931.946262054829276
99926.290567218398792
99919.680889022914926
99912.450937315894407
99904.969392673141556
99897.426872282812838
99341.607191131639411
99330.593085935586714
99327.943503175469232
99330.082707816021866
99332.459073523830739
99331.603658596068271
99326.56574331613956
99319.403665619160165
99314.313658472645329
99315.933183730681776
99326.356719653820619
99342.845567482290789
99358.607485264496063
99366.13431702509115
99361.582357377992594
99346.354186836571898
99325.542162924088188
99304.336809214728419
99286.209241317439592
99272.42370660782035
99263.124557435803581
99258.249024164033472
99258.25875816126063
99263.025630548057961
99271.571542047109688
99282.26174931814603
99293.628232583811041
99941.227037237491459
99940.974114801152609
99941.826911512544029
99942.586224497048534
99942.271084806227009
99940.310382476513041
99936.604995869245613
99931.486237667268142
99925.548524622252444
99919.4240343135898
99913.580231957967044
99908.184272316182614
99903.226487158666714
99898.458464618364815
99373.711273078195518
99372.337120430485811
99373.332120573395514
99374.415466012171237
99374.80938696951489
99374.531779015422217
99373.756798218149925
99373.088671483041253
99373.531773378839716
99375.760700009501306
99378.89403396929265
99380.55060743210197
99378.360061719868099
99371.045680837574764
99358.920524662797106
99343.520464860484935
99326.629595621445333
99309.629746744773001
99293.861965650721686
99281.143523771708715
99273.75132368170307
99273.34126824226405
99279.925429579074262
99290.745375646147295
99302.353331581383827
99312.438658507104265
99936.567226446946734
99939.270310085761594
99940.4632338280353
99939.399334881643881
99935.94512194787967
99930.522805760920164
99923.936626440670807
99917.127537358755944
99910.921059626722126
99905.814198804888292
99901.869444235228002
99898.845877878149622
99896.187553131880122
99425.871687220278545
99426.534039230726194
99426.795079890303896
99427.974631437842618
99430.610158944793511
99433.576955099197221
99434.157627697029966
99430.344849693472497
99421.966688521017204
99410.701585702583543
99398.787718160790973
99387.786283051551436
99377.953429761240841
99368.506445677296142
99358.221211040450726
99346.632372549531283
99333.806439081934514
99320.789259567667614
99309.618578383713611
99302.857096122155781
99302.286732871201821
99307.419128358655144
99315.683358868700452
99323.640971353117493
99329.774803784865071
99930.368892823913484
99931.820892719362746
99930.457147538210847
99926.457179585806443
99920.573581928489148
99913.883182103149011
99907.465250847759307
99902.129079443649971
99898.250125931343064
99895.740561518963659
99894.173940619366476
99892.838052356775734
99484.681389400255284
99485.488112394770724
99487.127693977003219
99490.432447639061138
99492.910204670421081
99490.55714465957135
99479.809274417770212
99460.854856034973636
99437.59552424265712
99415.265018493286334
99397.550131679556216
99385.146230720565654
99376.505249539739452
99369.785492428665748
99363.673913749691565
99357.649112628932926
99351.783240595264942
99346.543285422681947
99343.012349195370916
99342.023467780993087
99343.08052056019369
99344.677741470615729
99345.359213317919057
99345.41987287158554
99545.028987525758566
99546.285963945483672
99547.260347493240261
99545.654476284398697
99536.988430438475916
99518.297320966506959
99490.885261690695188
99460.049184723189683
99431.892660794648691
99410.196022257790901
99395.30655260795902
99386.049947928462643
99380.967539709890843
99379.762215425347677
99381.961785093357321
99385.841837325438973
99388.992468648939393
99389.642162087897304
99387.189854154887144
99381.853628246171866
99374.345007269905182
99366.110099740501028
99359.717645504293614
99596.204336700349813
99587.917955032840837
99571.680555786500918
99545.980356687927269
99513.356919644313166
99479.677277528244304
99450.228361084547942
99427.37088482263789
99410.844278327072971
99399.756547025375767
99394.988138598346268
99397.76954879781988
99407.779065506227198
99421.244455164967803
99432.432121587917209
99436.544923911351361
99431.734545803075889
99419.434100325001054
99402.986400006047916
99386.423494505303097
99374.217905313751544
99530.17907788080629
99497.871336276715738
99470.674850665120175
99449.022879453856149
99431.688121801358648
99418.890478416709811
99413.639633921062341
99419.11862468176696
99434.909068229782861
99455.534297900943784
99472.431032448555925
99478.401262015177053
99470.952450611192035
99452.593915563003975
99428.904562740004621
99406.094868669082643
99389.684213710250333
99456.460920085475664
99442.85294778685784
99437.183689046345535
99443.77019684627885
99462.328816643275786
99486.238498552382225
99505.424098509160103
99511.420884107763413
99501.44130606460385
99478.86983864378999
99450.872695666635991
99424.699149802225293
99406.270457968363189
99470.04388839143212
99464.076821753827971
99470.253004249010701
99488.398383681109408
99511.865241361883818
99530.187175826038583
99534.804667021380737
99522.945625474021654
99498.487888001822284
99468.964077255819575
99441.958097995389835
99423.382402478440781
99562.231236288163927
99529.320721603638958
99505.875401317316573
99490.576542149705347
99480.013241645283415
99472.742108600039501
99468.639600483424147
99466.563620366054238
99463.049113449116703
99454.92397041543154
99443.067182860642788
99434.357849786334555
99434.576233884203248
99444.121654746981221
99457.387316600143095
99469.494292653267621
99479.627059832928353
99490.278896548363264
99502.985877251252532
99516.175758200304699
99602.963912944673211
99562.231929930785554
99530.518314078013645
99506.814765992312459
99488.302456330828136
99473.60029533879424
99463.843816936874646
99460.534724178811302
99461.178616731398506
99459.620653545862297
99451.036812705555349
99437.304931398262852
99425.95540572378377
99425.020764913453604
99434.864462666737381
99450.049106150967418
99465.430172457025037
99479.024870750858099
99491.894436258648057
99505.042633894932806
99516.918390741891926
99525.365280052312301
99702.806771067742375
99652.013962545141112
99602.430228427256225
99561.921353637473658
99531.722404752013972
99508.107412858415046
99486.607511647365754
99467.626906492936541
99455.459141195635311
99452.940603850482148
99456.454412199003855
99456.985719331147266
99448.364623815577943
99432.363539165060502
99418.906179118333966
99416.273806071068975
99426.244428919570055
99443.444630558064091
99461.99271383654559
99478.79688287001045
99493.679834445938468
99507.040269083925523
99517.609875619469676
99524.251548031563289
99526.622186114254873
99525.838516020128736
99757.241509179817513
99710.204104333708528
99654.163820850808406
99601.537681046320358
99561.278667516147834
99532.928707118611783
99509.512101398358936
99485.375383585429518
99462.297371947410284
99447.760769421569421
99446.080277421206119
99452.490491826247307
99455.294072906282963
99446.460225109316525
99428.663566704010009
99412.760680060222512
99408.721595706912922
99418.885615673687425
99437.833375733331195
99459.216045888882945
99478.910728503775317
99495.570498242610483
99508.905595785341575
99518.213472871793783
99523.207547439553309
99524.378360991700902
99522.724390798597597
99520.376703946953057
99798.237151850436931
99767.745217727206182
99716.716405041937833
99655.759452287544264
99600.371422784388415
99560.370606363590923
99534.008103260144708
99511.058618975323043
99484.651362408068962
99457.653052263529389
99440.871672317342018
99440.091577627943479
99449.292126484491746
99454.344483553097234
99445.477629366272595
99425.657211456578807
99407.463516606367193
99402.215040666153072
99412.508415364325629
99433.114415824020398
99457.021331756797736
99479.29182392382063
99497.474626282200916
99510.714326782021089
99518.842239787831204
99522.399542699786252
99522.581159824068891
99520.363075288143591
99516.905930472523323
99514.678332949930336
99815.169159946584841
99807.735010891541606
99776.885350860306062
99722.20049882667081
99656.902373899138183
99598.975510681964806
99559.410317302696058
99534.972674079312128
99512.695426805119496
99484.117241963351262
99453.763646770064952
99434.846480814478127
99435.071262517551077
99446.893895554894698
99454.0373363186809
99444.968278881016886
99423.438899020955432
99403.346339789000922
99396.90278244962974
99407.276475159917027
99429.420004855521256
99455.550603689072886
99479.955186865758151
99499.444393664249219
99512.543410174053861
99519.501736437872751
99521.776161688729189
99521.124783249164466
99518.424633697257377
99514.021136891751667
99510.636809415664175
99511.461777492513647
99819.990850141213741
99815.150281070484198
99784.249623843570589
99726.541420270237722
99657.536068065659492
99597.528345717204502
99558.497107385803247
99535.775348309063702
99514.284018688384094
99483.915716273739235
99450.72490139947331
99430.011259764854913
99431.156224927559379
99445.386793194891652
99454.188955454825191
99445.062995848958963
99422.042948143018293
99400.124798822042067
99392.639844880119199
99403.157496803483809
99426.624096300161909
99454.592709484059014
99480.692087845134665
99501.20798881041992
99514.129036300131702
99520.126297624403378
99521.421263270443887
99520.213646701915422
99517.137118827478844
99512.07921579417598
99507.710990895124269
99507.850583825158537
99514.699129239728791
99436.39842313414556
99467.037088479075464
99490.121296071854886
99498.043991574420943
99489.861880180600565
99479.650041653163498
99823.478790800407296
99820.642350383423036
99789.540287409661687
99729.628333722124808
99657.77699659121572
99596.30094913431094
99557.702041043012287
99536.355744458123809
99515.520852181187365
99483.855290829538717
99448.463372655896819
99426.545345095757511
99428.395988203628804
99444.580257906200131
99454.63829832621559
99445.409377956195385
99421.070439246803289
99397.737590002638171
99389.58049896779994
99400.311343509281869
99424.777576557797147
99454.06816945731407
99481.399184682042687
99502.581946662670816
99515.377657424716745
99520.652888988755876
99521.20976747959503
99519.62948029996187
99516.24146362139436
99510.750114234164357
99505.633001169175259
99505.270563263416989
99512.177694885758683
99525.422057611620403
99395.896676479562302
99437.701333138800692
99468.560632655018708
99491.371234255784657
99497.866703062769375
99488.109515320989885
99477.123989723826526
99825.484144867688883
99823.601424889056943
99792.327949893660843
99731.156603635870852
99657.699139846954495
99595.506194206507644
99557.201346643763827
99536.719814998199581
99516.180191078499774
99483.886966864738497
99447.205848897210672
99424.772221357721719
99426.935128628465463
99444.299997806374449
99455.013635093680932
99445.622176254284568
99420.487801838724408
99396.390969902873621
99387.950503786763875
99398.844969672034495
99423.870536386020831
99453.913888601193321
99481.930659847028437
99503.37400355382124
99516.100748318523983
99520.989998051794828
99521.151503482396947
99519.405112433989416
99515.852759545261506
99510.148053817581967
99504.616771936853183
99503.972398034340586
99510.908841946322354
99524.456702550829505
99541.210735102751642
99699.451149809261551
99707.044971518524108
99709.464881749911001
99707.51297681813594
99702.454028926571482
99695.735720172160654
99688.695472520237672
99682.310644480225164
99677.055635080381762
99672.974960045990883
99670.00223416222434
99417.197136898204917
99412.914930888815434
99402.65676881231775
99390.043677765483153
99379.468145152175566
99373.749318533111364
99374.23335577234684
99380.401430363141117
99391.176982080636662
99405.084667067611008
99420.117619556243881
99434.542299698427087
99446.83990154346975
99455.889683968562167
99460.303608336107573
99459.065731936847442
99452.01813212079287
99440.924396965812775
99430.291502352120006
99425.176457418157952
99428.928325204236899
99441.434964479238261
99457.810535882905242
99470.314103888144018
99473.098014536386472
99466.66942617323366
99458.037985229428159
99456.213742424093653
99466.556531720998464
99487.012585563672474
99509.351743975712452
99524.484170617084601
99527.937757059728028
99522.15529499706463
99513.692750256173895
99507.824196242800099
99606.624037543297163
99598.642739822083968
99597.228122979722684
99602.612993151531555
99614.241316955361981
99630.826493942702655
99650.466138537274674
99670.880190793439397
99689.822671129513765
99705.468201914336532
99716.613906832193607
99722.731000816696906
99723.952011562869302
99720.968796464047045
99714.864532463470823
99706.920506858630688
99698.380082754621981
99690.239658228601911
99683.137904750430607
99677.387275834669708
99673.132679928719881
99411.489826514196466
99409.208669363215449
99403.174266925037955
99396.547384711418999
99391.956435171843623
99390.056840750650736
99390.33952393202344
99391.995387028786354
99394.734163974659168
99398.811385439068545
99404.135216605223832
99410.009180959677906
99415.378327879705466
99418.83107734999794
99418.265579306375002
99412.203179555392126
99401.275920173517079
99388.539533501767437
99379.689666577047319
99380.463404265305144
99393.552577617520001
99416.401087948979693
99441.451592499797698
99458.993640005632187
99462.623365117935464
99453.21657627625973
99439.014352109777974
99430.892362180660712
99435.192580295173684
99450.077633213426452
99467.27749425174261
99477.640669956861529
99477.450726357215899
99469.871611312613823
99461.96765219324152
99458.989558375891647
99635.460286578861997
99628.301532699872041
99627.483166462188819
99633.036446595666348
99644.20741845460725
99659.626879990450107
99677.556336495792493
99696.076780471179518
99713.240976129411138
99727.336508822496398
99737.138244419635157
99742.048400204876089
99742.084737800003495
99737.767807117852499
99729.96199075919867
99719.765730291968794
99708.42666434761486
99697.184777341113659
99687.061480024873163
99678.838930863450514
99673.088647038355703
99411.800018405876472
99410.060171303906827
99408.225276698765811
99407.144251510733739
99405.808055236426299
99402.845443754515145
99397.865532591371448
99391.786145006830338
99386.00674208496639
99381.236334465196705
99377.820296994177625
99375.55511088334606
99373.254587001312757
99368.862937860918464
99360.208571815761388
99347.387051719226292
99334.145839280783548
99326.838618370282347
99331.85738249575661
99352.07050845285994
99384.066650604800088
99418.268613208303577
99442.925681976907072
99450.432559295062674
99441.350714504616917
99423.974488275300246
99409.150999002944445
99404.36425405695627
99409.794914047786733
99419.228548394414247
99425.243292350118281
99424.475658580413437
99419.442179703211877
99415.814667856015149
99662.134482534922427
99661.677068105112994
99667.087122368873679
99677.566706803947454
99691.839187397097703
99708.342480634644744
99725.397103336115833
99741.288962252059719
99754.382262522558449
99763.290081157843815
99767.097404779662611
99765.535023427990382
99758.945912227296503
99748.156414529439644
99734.328341537271626
99718.893481320061255
99703.458998827758478
99689.567183415216277
99678.560290470719337
99671.406381276858156
99420.183219814673066
99420.29134400919429
99419.262927340125316
99416.958414665859891
99412.145440721782506
99403.989772079497925
99393.022715068393154
99380.394854211990605
99367.456641120908898
99354.513936761286459
99342.538817378677777
99332.332966085959924
99323.820037478290033
99316.021369727372075
99307.018716943362961
99295.723332267923979
99284.56196226098109
99279.344140745510231
99287.049121241070679
99311.226751536582015
99348.685936134163057
99389.237365274806507
99420.417347056616563
99433.51560550906288
99427.220174863701686
99407.794431946997065
99385.378470628842479
99368.890584437642246
99362.33341034159821
99363.901321214623749
99368.686664133478189
99373.081292771414155
99376.682163209392456
99381.687976668312331
99698.220293011108879
99697.920438722590916
99703.238151685945923
99713.512094372199499
99727.544174984228448
99743.764515879069222
99760.390218312400975
99775.619067412961158
99787.783578698028577
99795.4503471012722
99797.522685596908559
99793.463408743802574
99783.4750841815694
99768.488457436164026
99749.9750463765522
99729.761938217008719
99709.891789614543086
99692.396348098991439
99679.12860804288357
99671.347991330796503
99427.345141636382323
99422.95587030138995
99415.66501842525031
99405.326820547154057
99392.162246529915137
99377.782682930905139
99362.745215761678992
99346.657372130721342
99328.757927168422611
99309.20486861509562
99290.450646344659617
99275.233428401770652
99264.946595840563532
99258.350374319721595
99252.902148720095283
99247.892318000391242
99246.870318760324153
99256.253843460479402
99280.106816980434814
99316.500228184333537
99357.514750513495528
99391.720217962967581
99409.009189283620799
99405.288095724143204
99383.989474211106426
99354.349078308136086
99327.074644617619924
99309.648104906751541
99305.13732580850774
99312.23760336486157
99327.145491936797043
99345.344526981527451
99735.977751199316117
99742.122611020255135
99753.1648077750433
99767.895749728006194
99784.61181829002453
99801.25833881010476
99815.760514056571992
99826.317329417870496
99831.500227640732192
99830.302903152332874
99822.28356663537852
99807.779507188533898
99787.999342680632253
99764.808722527217469