/*--------------------------------*- C++ -*----------------------------------*\
  =========                 |
  \\      /  F ield         | OpenFOAM: The Open Source CFD Toolbox
   \\    /   O peration     | Website:  https://openfoam.org
    \\  /    A nd           | Version:  12
     \\/     M anipulation  |
\*---------------------------------------------------------------------------*/
FoamFile
{
    format      ascii;
    class       volScalarField;
    location    "0.0069";
    object      rho;
}
// * * * * * * * * * * * * * * * * * * * * * * * * * * * * * * * * * * * * * //

dimensions      [1 -3 0 0 0 0 0];

internalField   nonuniform List<scalar> 
106891
(
1.1554302907054774252
1.1553496768825104457
1.1552990839855443728
1.1552881771838086067
1.1553202148991501552
1.15539214026963033
1.1554971884317450925
1.1556247197174078778
1.1557651598077738342
1.1559085598444298615
1.15604413842196041
1.1523449487431607352
1.1527444211972597277
1.1530153798371505225
1.1532038060059359719
1.1533682902925816993
1.153554505960790566
1.1537744118509274394
1.1540160119640623382
1.1542554444078165776
1.1544696950135391322
1.1546400557603848647
1.1547521931594670885
1.1548048729829269998
1.1548123664222071927
1.1547950359523335706
1.1547747823456917526
1.1547633256691940407
1.1547561114815190209
1.1547423125052094228
1.1547168425342657638
1.1546856869116823852
1.1546665265255928734
1.1546810688430402259
1.1547518179019193862
1.1548892343998378163
1.1550832786897498039
1.1553030537032364933
1.1555011139248032581
1.1556332106899995793
1.1556738410844835663
1.1556217046130061732
1.1554967982784083436
1.1553295405598515977
1.1551518101994822096
1.1549938807753796777
1.1548859666979074401
1.1548556636257103492
1.1549141432320033651
1.1554276980395699059
1.1555309237799464839
1.1556400045148367273
1.1557353499752374137
1.1557996734807749473
1.1558224739581748342
1.1558021852176181277
1.1557461292467050562
1.1556686266907938432
1.1555861886368348213
1.1555169613414808527
1.1554757011387064569
1.1554719314585915058
1.1555087177033589452
1.1555829327398334794
1.1556871139258195758
1.1558117137511336736
1.1559464475935306016
1.1560815838076090589
1.1562084432891419628
1.1525226085660227326
1.1527719897077248756
1.152950413828466969
1.1531242566554724682
1.1533399937992196982
1.1536106590840820019
1.1539116992814451024
1.15419513278585395
1.1544186334578443454
1.1545607645854873979
1.1546232171036587832
1.1546291907806789379
1.154606651278912377
1.1545784263952163506
1.1545572859495891738
1.1545399790886790026
1.1545161014032800928
1.1544784249765960293
1.1544264887472444059
1.1543697821908633916
1.1543293665681626514
1.1543353964901950093
1.1544146183252104176
1.1545791677437065026
1.1548170162340016809
1.1550872782251133675
1.155327794107866568
1.1554783591761705885
1.1555073427854634094
1.1554190948551275042
1.1552476605747523664
1.1550414887832247679
1.1548453150014144075
1.1546896489825269061
1.1545924525145487838
1.1545645696694981641
1.1556087872059028765
1.1556904345856564564
1.1557867898691958075
1.1558793918029761638
1.1559510411802180752
1.1559897250294766113
1.155990998960449323
1.1559584918636272022
1.155903343441795128
1.1558399380312054383
1.1557847000276115779
1.1557521123192839863
1.1557518262829493683
1.1557874184935423845
1.1558551969146573235
1.155945814410839434
1.1560511683100183067
1.1561622811631944163
1.1562715034951400739
1.1563734392159066289
1.1525899625335525034
1.1528340490236779203
1.1530022928305101448
1.1531659291212830176
1.153377844490413251
1.1536485364108139962
1.1539405349592339878
1.1541917751546906246
1.1543510758045012476
1.1544050067784747959
1.1543807041411779934
1.154325665784588395
1.1542799537658705589
1.1542624030793684486
1.1542673414194539738
1.1542724421153416348
1.1542592389484822579
1.1542241689853458553
1.1541744355403369404
1.1541241562751658467
1.1540940268485260223
1.1541090658883927933
1.1541894721444951877
1.1543445492971000643
1.1545620978352435504
1.1548011933593274048
1.1550062301647674445
1.1551248732795429408
1.1551303953117499912
1.155031505236165934
1.1548645399844708059
1.1546777295289514242
1.1545150670174215701
1.1544033336482113494
1.1543498094356858807
1.1543501797854660573
1.155907417303726703
1.1559900958000990379
1.1560817967968448627
1.1561651562019652495
1.1562256417935381503
1.1562549294569972602
1.1562525752917960364
1.1562261719969548768
1.1561873491477954179
1.1561500622997717969
1.1561272145002183809
1.1561269113683212417
1.1561529414316766839
1.1562031287494767273
1.1562683957027246606
1.1563422266453853293
1.1564161955327931786
1.1564846962701171851
1.1565465813520257043
1.1524507583481671258
1.1527121665603110579
1.152963463179043746
1.1532427632281907481
1.1535499122212049539
1.1538424251028165379
1.1540593365363676082
1.1541578809449568599
1.1541450140848408257
1.1540720661147536585
1.1540013048859689704
1.1539770369390005555
1.1540008840638471543
1.1540400177791356739
1.1540547654914632414
1.1540232239891536903
1.1539543502234201888
1.1538778236687792234
1.1538260928661709936
1.1538200660657096375
1.1538692960865553072
1.1539748530356137568
1.1541278123957681156
1.1543089647077167115
1.1544855393523181242
1.1546238253004343921
1.1546961580281698279
1.1546868649580537269
1.1546020344027216886
1.1544693529168637003
1.154327283716399144
1.1542118169441557551
1.1541457744930183615
1.1541339982114300344
1.1561680147467621182
1.1561972416719619172
1.1562623063302386317
1.1563496005845130821
1.1564415130406793253
1.1565213552116915263
1.156577587029131049
1.1566057666033617846
1.1566095756344489942
1.1565974297743066845
1.1565797297744033756
1.1565663671127073275
1.1565632810186232682
1.1565741416176074097
1.1565983392003267305
1.1566282463362214106
1.1566605804390979184
1.1566887684442199724
1.1567093176200624605
1.1567243500039894322
1.1526145238436813489
1.1528720711134423649
1.1531153018908404384
1.1533649860517380947
1.1536140969207442364
1.1538242706002330706
1.1539448450081382092
1.1539467340564069087
1.1538495799283701171
1.1537181806297063247
1.1536278903545735819
1.1536228086970636841
1.153689400657054609
1.1537695034203894195
1.1538046792124125872
1.1537702504252578262
1.1536878567786581495
1.1536090757746129132
1.1535827680841441722
1.1536287759472565462
1.1537344510756093463
1.1538701378440268108
1.1540002662443544779
1.1540990263261452498
1.1541579215190715946
1.1541778890286993331
1.1541672048708069287
1.1541291542437803752
1.1540666368731815616
1.1539900383561001451
1.1539159245280017352
1.1538659815198921699
1.1538601548128044616
1.1565954218625429384
1.1566303984324342036
1.1566967024965082445
1.1567797587429613504
1.1568635936468731895
1.1569343677480030674
1.1569828960122892081
1.1570077371846319014
1.1570136984929819679
1.1570090096450900141
1.1570020368200326644
1.1569962523803742904
1.1569933908752760843
1.156992703302349268
1.156987425468700259
1.1569770204841023364
1.1569570232498509466
1.1569269350010469299
1.15689258881592405
1.15294141993885213
1.1531670914014244822
1.1533692129149635264
1.1535541831485225384
1.1537025832985126073
1.1537770167581493652
1.1537490943844121993
1.1536350107908774909
1.1534964437309001006
1.1534075761743887156
1.1534074263360876156
1.1534777796568120856
1.1535569731901169632
1.1535856920066378528
1.1535440794289546496
1.153459848095275353
1.1533899679566759211
1.1533850863187620206
1.1534634589311290043
1.1535963064868957062
1.1537287434877541159
1.1538116890298673045
1.1538248399595365523
1.1537863885382904083
1.1537280432969507782
1.1536788047863657525
1.153652696563704616
1.1536427037101628645
1.1536367038326624801
1.1536324536485615955
1.1536385301576663753
1.1536698364775301862
1.1571179914497655705
1.1571069598519820865
1.157130933515578386
1.1571793267002898897
1.1572384209578114866
1.1572955111932861083
1.1573409050420848665
1.1573706381442310231
1.1573854554776654702
1.157389114147062692
1.1573870425210228685
1.1573802685449179339
1.1573683846408910902
1.1573493941961838782
1.1573166013998565926
1.1572717991567322837
1.1572119684815562746
1.1571382832518686268
1.1570589146201228914
1.153117300730905681
1.153249648827942675
1.1533571977239298612
1.1534478227934588102
1.1535029666527809589
1.153495961719337215
1.1534214700019065347
1.1533124470639832815
1.1532202153329098593
1.1531833859598465963
1.1532076005430551557
1.1532610206860463009
1.1533010025228789264
1.1533058863775955682
1.1532864861820457669
1.1532760091248357437
1.153309880624396877
1.1533958913887514264
1.1535048832956520393
1.1535886769653267425
1.1536102229923457241
1.1535627699012220848
1.1534713551010136179
1.1533765104143489655
1.1533088700990528075
1.1532806494843834688
1.1532875141024627741
1.1533145469578758302
1.153352211552672868
1.1534019287769110562
1.1576530870854879751
1.1576160070007672775
1.1576040204597930483
1.1576090512591863391
1.1576239194490514084
1.1576422094887499625
1.1576598273014919727
1.1576745532593091248
1.1576851987123284449
1.1576922160452649546
1.1576923800708116552
1.157682014382073632
1.1576569509951619708
1.1576095689674414935
1.1575426497619618615
1.1574554078611660746
1.1573519218986354495
1.1572412029148944068
1.1531416762258477338
1.1531801127264984519
1.1532292212867187864
1.1532945906852281048
1.1533466197154285116
1.1533439027797285359
1.153270445123602439
1.1531524735929277181
1.153040777793939986
1.152977681851852898
1.1529777870753168401
1.1530278370146476163
1.1531028168465069506
1.1531819997584722426
1.1532554772467265014
1.1533167246418540852
1.1533621968878546848
1.1533903114457075834
1.1533963987466240297
1.1533806519028748649
1.1533491091421559371
1.1533079582213583425
1.1532634294879082759
1.1532164334777892378
1.1531710678633682043
1.153137703611986753
1.1531281239932957838
1.1531505785253490792
1.1581714066196975299
1.1580556128628871626
1.157965389079127716
1.1579024234817683059
1.1578649452235427741
1.1578487654433198273
1.1578496483593962996
1.157862898998728074
1.1578821458076196116
1.157901756961067008
1.1579136663908831117
1.1579113379216037227
1.1578896829191207551
1.1578412418591743638
1.1577685663285559592
1.1576713875618331873
1.1575561903680242626
1.157433432938409501
1.1529979085718535803
1.1530128994095487638
1.1530879352378398117
1.1531886113754441503
1.153250956884121381
1.1532255411063563333
1.1531109318346002279
1.1529550598978541842
1.1528333000627475347
1.1528100686385662765
1.1529072399154620676
1.1530940108605869376
1.1533016249564060907
1.1534574930123695502
1.153515019565300781
1.1534687272993910945
1.1533559425604447135
1.1532384161310871296
1.1531666999464098566
1.1531534021395917211
1.1531733427899104605
1.1531875486325999791
1.1531697243151293186
1.1531194067012455751
1.1530648360883415382
1.1530434002624847523
1.1530811082912360011
1.1583663739876712828
1.158219546062684735
1.1581055964242910061
1.1580271111157851571
1.157982031937953904
1.1579660930077788628
1.157973336096268957
1.1579951770102121511
1.1580226683811645216
1.1580438384992337575
1.1580487812257442837
1.1580311085346783884
1.1579850335263499606
1.1579150392500279221
1.1578225044125027843
1.1577143680094630351
1.1575998823788700154
1.1531168617302993695
1.1530587300207622015
1.1530537474413888877
1.1531240604596688648
1.15323826350955283
1.1533285312714254278
1.1533319193102931077
1.1532305121806760706
1.1530653863314381802
1.1529198502394291115
1.1528793217770152424
1.1529860786638117531
1.1532138296839922198
1.1534751277151711335
1.1536643043842353951
1.153710524010456373
1.15361336756158539
1.153435938141530448
1.1532643229979264721
1.1531618886716565875
1.1531414407665243615
1.1531676344805197321
1.15318870681977792
1.1531705613879743577
1.1531157425595117694
1.1530584314145226887
1.1530419499280539775
1.1583476602011943957
1.1582221338159175428
1.1581320306802660447
1.1580778541286780303
1.158055689422335055
1.1580579992368975617
1.1580740175721371266
1.1580938942156460136
1.1581070976781757675
1.1581057474523912543
1.1580851748557652314
1.1580417841400649781
1.1579801113773295906
1.1579021546652332741
1.1578152031120894083
1.1577257595357304254
1.1532024198576236174
1.1531584972815935863
1.153164446185413583
1.153230615134758219
1.1533314367696478886
1.1534184479231777143
1.1534465006788865438
1.1533995478535750134
1.1533063808178689591
1.1532286222630965256
1.1532328575955181904
1.1533524738192051373
1.153561783223716164
1.1537815554718140465
1.1539180691841863791
1.1539161692722288421
1.153784655200625231
1.1535838348698632672
1.1533882315261663187
1.1532468241326563341
1.1531701524598054753
1.1531404624431802475
1.1531288635591605551
1.1531188445208906401
1.1531132808483088859
1.1531228926882572949
1.1531608333513292397
1.153235543254341966
1.158222277232497488
1.1581614998476930101
1.1581291178638952744
1.1581187177847855896
1.1581215316958675121
1.1581272832183482357
1.1581283317551744894
1.1581186125185907176
1.1580958082101429074
1.1580606642362720748
1.1580140490473120884
1.1579604799321925324
1.1579007636644518264
1.157839286254727762
1.1577783950263480506
1.1533100828662454784
1.1533649148362947745
1.1534592076901026836
1.1535710091116280207
1.1536673239483434816
1.1537213407491102579
1.1537252617698412482
1.153695537778535174
1.1536668685515356625
1.1536793969715577468
1.1537545369040083099
1.1538752189136738391
1.1539906248583906567
1.1540422477385310351
1.1539996081009766815
1.1538740478192515138
1.1537067155257683115
1.1535390049254998779
1.1533977527501737548
1.1532911110966475032
1.1532181024623966437
1.1531767026290551392
1.1531707370426389492
1.1532004016108827749
1.1532595199151398635
1.1533363469138420143
1.1534197382252990849
1.1581386670362512348
1.1581354861554313818
1.1581418861936443321
1.1581481732002540941
1.1581456621127319551
1.1581299626727536989
1.1580997386777527325
1.1580576731897012088
1.158008853410629202
1.1579580139106429026
1.1579100558730091031
1.1578650198342916866
1.1578243522703082213
1.1577861114830840794
1.1536703462856827684
1.1537840153145999533
1.1538920511668335767
1.1539801053348341942
1.1540445007360800034
1.1540874811741670403
1.1541122381446478062
1.1541255033559647547
1.1541378612730333053
1.1541579211991814802
1.1541818139232362661
1.1541926145741556731
1.1541723659264297996
1.154111044624061444
1.154010815602166895
1.1538833392151497392
1.1537424260414721466
1.1535984120285551757
1.1534615866874733392
1.1533469243803042836
1.1532743842559864955
1.1532596956351579554
1.153305555501196622
1.1533909000365625275
1.1534870900596851939
1.1535731555024957284
1.1580988089029655708
1.1581211571443774666
1.1581316108287280642
1.1581234354364524641
1.1580956356500249349
1.1580512954233435075
1.1579970303398772202
1.1579406050267690986
1.1578889200615536392
1.1578464972929125576
1.1578130802343915562
1.1577882662966205718
1.1577669618762997938
1.1542860582573422068
1.1543807714154292743
1.1544515805065957981
1.1545123422871885754
1.1545699846202506222
1.1546176014581728264
1.1546349329707294995
1.154607371570813612
1.1545356528528611939
1.154436128596908695
1.154330140334446142
1.1542332861629025498
1.1541496736279617252
1.1540734502286891239
1.1539936466454714381
1.153904495384134421
1.1538038701493382732
1.1536978804292361556
1.1536017572072607695
1.1535366561040254485
1.1535190745760359743
1.1535477887121232676
1.1536042045534056211
1.1536611450167548742
1.1537056347347829366
1.1580481004042801896
1.1580610080052422539
1.1580506405659629632
1.1580184433820825962
1.1579703252836537342
1.1579151822836790675
1.1578617434243292372
1.1578172580787975399
1.157784672802380177
1.1577630028451917354
1.1577502363018226106
1.1577394015823454509
1.1548428448045695571
1.154914099857894394
1.1549770829791727866
1.1550423721468494609
1.1550918682463378051
1.1550940088849004361
1.1550197825200672064
1.1548707294790905298
1.1546797973313376318
1.154492113283725141
1.1543408717979053435
1.1542343146923381703
1.1541609597124744546
1.1541054015272660394
1.1540553739443859538
1.1540046026244037414
1.1539519885629307971
1.1539003874579316644
1.1538590395059424853
1.1538366234875701011
1.1538316504179804145
1.1538339917064523998
1.1538328627758749345
1.1538301630204104153
1.155429299930151199
1.1554899318436970823
1.1555349497861846508
1.1555479990243677779
1.1554939219959017294
1.155349174897785991
1.1551252914153027351
1.1548675048148868694
1.1546287804226531559
1.1544432883141029222
1.1543160248663042466
1.1542380749284508745
1.1541964854269506358
1.1541871715075286975
1.1542047703546380877
1.1542340068095771066
1.1542543373879752266
1.1542512177194361733
1.1542206942998953778
1.1541662639608250007
1.1540954311816389311
1.1540209754014600918
1.1539637812980561016
1.1558911754306941955
1.1558621267064346227
1.1557591043623769433
1.1555705547335943795
1.1553174751582386826
1.1550486502035330894
1.1548087695845461464
1.1546185681863834205
1.1544767461858211899
1.1543760574112076345
1.1543242404309133065
1.1543325532321373483
1.1544004024115599449
1.1544986848616487496
1.1545813417340178297
1.1546089271070878457
1.154565743676304157
1.1544630341591135547
1.154327866024727367
1.1541927978409725064
1.1540935274903219021
1.1554529306270129307
1.155192674006633391
1.1549702261954311044
1.154790425348458438
1.1546440096382297735
1.1545332000447121601
1.1544833247184198566
1.1545220517982093256
1.1546476568554266962
1.1548159058350575545
1.1549554083545707783
1.1550045087630813612
1.1549400507626061962
1.154781090287219758
1.154573698745073651
1.1543704582095528632
1.1542187061278290638
1.1548565712846858844
1.1547397589686527741
1.1546848837203274041
1.1547295111595985428
1.1548742274255956453
1.155066642654243525
1.1552237286024256147
1.1552735580014996675
1.1551900104359804633
1.1549986461748176225
1.1547579940892791495
1.1545287392369081303
1.1543614125180179375
1.1549801969086515019
1.1549185512504751561
1.1549526356665067439
1.155084856093108403
1.1552644148420854187
1.1554072946601094962
1.1554428386704127529
1.1553463766438989424
1.1551476545327605816
1.1549070688076672475
1.1546861540998167861
1.1545326997040132877
1.1473355866388430524
1.146838146383274859
1.1464631618577147965
1.1462586915789056974
1.1462608493635444429
1.1465063904733843181
1.1470070867170247819
1.1477142961879580607
1.1485040929941789933
1.1492125624389535332
1.1496998705230969673
1.1499102111079799737
1.1498496983824075812
1.1495581331840054595
1.1490795489873648627
1.14847844203580296
1.1478325619194029716
1.1472146031239032204
1.1466661529180612877
1.1462008070410598659
1.1480989618034611599
1.147553931375482339
1.1470768504998289927
1.1466740890818329923
1.1463617401084955638
1.1461863584617797418
1.1462208485403380109
1.1465281529595756638
1.1471009656313768676
1.1478425357837354071
1.148601987312105166
1.1492391043943890327
1.1496616933508210234
1.1498352470405210912
1.1497466268348617291
1.1494128903198204128
1.1488983396377476787
1.1482943472431728082
1.1476871168404454426
1.1471247955784855677
1.146610501970762197
1.1461423994470449905
1.1495288858163461576
1.1488276399359156343
1.1481994525665422113
1.1476652991057441078
1.1472063544541901692
1.1467873333798028757
1.1463953602789480613
1.1460844484206120786
1.145959878369138929
1.1461155728493723771
1.1465662866032364509
1.1472263551359509481
1.1479629672095839066
1.1486493845986198714
1.1492066052165499368
1.1495732094900452669
1.1497033935034874919
1.1495721820223196996
1.1492106779757451651
1.1486975984067206991
1.1481240146745173014
1.1475536217500870162
1.1470042689577073514
1.1464803877741669424
1.1460026396995324216
1.1456308938726649238
1.1499178682835822229
1.1492087764873553102
1.1485109099003061317
1.1478920104330954111
1.1473931591192887414
1.1469940896640857808
1.1466424774185652868
1.1463194548229085346
1.1460841862276924807
1.1460502722860559377
1.1462949204326415842
1.1467898306374080253
1.1474017633157764795
1.1479775599777539696
1.1484219864281817181
1.1487108266856000949
1.1488496812191557606
1.1488376600068050948
1.1486640791511468773
1.1483457981376707924
1.1479286233003846984
1.1474695463010413654
1.1470131152126186169
1.1465830102269574109
1.1462012368138529972
1.1459043884378636857
1.1457460855852368287
1.1457950323427634753
1.1491129696381510161
1.1487458434043147371
1.1482316055817725076
1.1476517686554239539
1.1471437276726004217
1.1468121436552682901
1.1466708522419994942
1.1466538449652035059
1.1467007774509436757
1.1468055443960600837
1.1470082037568867239
1.1473009568740963893
1.1475855307488436186
1.1477137485586281773
1.1475950204547262778
1.1472650805996496004
1.1468549746989875615
1.1464935564427682912
1.1462374907036003702
1.1460756827920370871
1.1459804154417270183
1.1459434485148531913
1.1459787987356033767
1.1461096734206142056
1.1463503554455378719
1.1466955596527788064
1.1471151626013369462
1.1475508070254913928
1.1479325620913238826
1.1482072566148457948
1.1496098904588305523
1.1495565295895318059
1.1492734332829519506
1.1487610528746916572
1.1481400522959770427
1.1475809385638420235
1.1472036471149715808
1.1470088494399206525
1.1469024945412551464
1.1468051414046334102
1.1467254740055519147
1.1467349397431276792
1.1468643442394437226
1.1470317891943191402
1.1470993142605385717
1.1469834412638386656
1.1467382374424746061
1.1465077710990254634
1.1464196124786738551
1.146516375520866049
1.1467598898392377116
1.147077481515970554
1.1474073521642162987
1.1477074265979467782
1.1479522408405729017
1.1481343082322337246
1.1482602831177375347
1.1483427161151698037
1.1483893773952722484
1.1484045702012546375
1.1484130388791058408
1.1484451159409416743
1.1506294907174376974
1.1506315976992784744
1.1504262847171020656
1.1500074474249157852
1.1495026663629654973
1.1490806772455584017
1.1488428402351305024
1.1487523070550684778
1.1486814205604474193
1.1485382701026143337
1.148364036859927495
1.1482810902559921207
1.1483700859744063738
1.1485648739980183208
1.1487161640098544346
1.1487198822461528458
1.1486066632839058155
1.1484998649820445937
1.1485113455567890206
1.1486727573093415966
1.1489430219779983577
1.1492510790825942735
1.1495424895302726043
1.1497858187277947284
1.1499643339344312043
1.1500836328251753393
1.1501625344991206479
1.150219827360041025
1.1502614616580961737
1.1502863216514784828
1.1503162053971334178
1.1503828119538601626
1.1505052704813980569
1.1472952390297603831
1.1475513973317383876
1.1477475337755753682
1.1478217889855411027
1.1477603145350467884
1.1476738557387859974
1.1523880863233750826
1.1524215165362043933
1.152226623543489481
1.1517931528874769675
1.1512548590334217291
1.1507949185205359477
1.1505199435304689359
1.1503885917365559433
1.150264463575229934
1.1500506673019597059
1.1498009115121361479
1.1496558205704412448
1.1497038335652947083
1.149872330591817704
1.1499939315198492995
1.1499567335595421991
1.1497909355905202577
1.149627999063626449
1.1495865770759994273
1.1497001583882362485
1.1499280094119226359
1.1501970825522436215
1.1504507478668439813
1.1506541231513309764
1.1507880727814974176
1.1508587673774393068
1.1508888872328335573
1.1509000026734172994
1.1508950920951122043
1.1508710087150995083
1.1508474022718131469
1.1508603799538859036
1.1509321064417283864
1.1510564195936174858
1.1494531676326913416
1.1498029361751658239
1.1500612260472584669
1.1502549406778752594
1.1503169416317482465
1.1502439863940618903
1.1501568246209441515
1.1537829829828696315
1.1537831927782038477
1.1535436004460117854
1.1530553930769444904
1.1524598619620778361
1.151951427414334983
1.1516379925719790744
1.1514738720625536939
1.1513128101347844812
1.1510549467111454991
1.150756899564619129
1.1505718765364527645
1.1505889875240700171
1.1507356617808615074
1.1508321921366648777
1.15076361211230771
1.1505616297782437218
1.1503634666218682803
1.1502918177820584678
1.1503798256032493619
1.150585976568449631
1.1508354586484199622
1.1510694560446284029
1.1512500481111920259
1.1513587943766705468
1.1514019964641515337
1.1514048345423710806
1.1513911668470631078
1.1513625109055758422
1.1513158050560319268
1.1512697067915664828
1.1512628468408390159
1.1513180455207288055
1.1514278907361679138
1.1515644940819067532
1.1561383365125306177
1.1562042946124475584
1.1562270968300112362
1.1562130802047168032
1.1561728197109431004
1.1561180322673474397
1.1560597095622997532
1.1560067100280990715
1.1559627309682689589
1.1559278424011905084
1.1559029337767110501
1.152436976418774961
1.1528497520151055333
1.1531283616083265464
1.1533131116512440606
1.1534536648464925879
1.1535867908385444291
1.1537348387520034443
1.1539014958446702774
1.1540823554015222641
1.1542672498308736984
1.1544405688730781101
1.1545893824022284146
1.154704167908841228
1.1547807746363170089
1.1548142915212720183
1.1548027459546879037
1.1547495349569345535
1.1546706478790773609
1.1546015303097949545
1.1545800520950508794
1.1546289075548163972
1.1547425944424054567
1.1548777260798559485
1.1549687043384311291
1.1549669467241712173
1.1548782360064673291
1.1547648968883357234
1.1547084615458809154
1.1547614159094119479
1.1549134445395874415
1.1550994617370415884
1.1552421342329457499
1.1552982045230884012
1.155280085092700304
1.1552355446720083965
1.1552045502240737562
1.1553811251577239538
1.1553117291171546288
1.155296370542792106
1.1553373796691772668
1.1554306548359718487
1.1555657835041128756
1.155727321532623364
1.1558964503575066551
1.1560543115812846882
1.156185924088957151
1.1562805893396139734
1.1563338834603844596
1.1563465830904549048
1.1563238528965606999
1.1562748714871187161
1.1562104307504725842
1.1561398795399675521
1.1560730621519406114
1.1560144991375960188
1.1559662368300540614
1.1559307845523640879
1.1524016482952923468
1.152823628654936261
1.1531313492175505608
1.1533626322687247079
1.1535527683332369442
1.1537200893526311507
1.1538704675346487249
1.1540039944004238937
1.154121913051471271
1.1542280274848857324
1.154322754349851099
1.154402121299762829
1.1544606539479969065
1.1544918219978486107
1.1544845579918052714
1.1544324008522379721
1.1543445991781819959
1.1542476888542945179
1.1541872894340914346
1.1542076935454965714
1.1543274656853985682
1.1545221226872566245
1.1547266369349822313
1.1548590558593203603
1.1548657704238809441
1.1547550914215651829
1.1545989276870896045
1.15449383922142923
1.1545003535908793246
1.1546101402602308994
1.1547575777286553933
1.154864326765229432
1.1548930054435391224
1.1548617471534599055
1.1548225224598585026
1.1548150677218138593
1.1556175878113947864
1.1555551723152543975
1.1555450999186642758
1.1555879614454245274
1.1556779010362956406
1.1558037398540266238
1.1559512958940529881
1.1561047708582317117
1.1562477570251543657
1.1563662794328777306
1.1564496514871493993
1.1564927831825173588
1.1564958911496323601
1.1564624285973428286
1.1563997628248934291
1.1563175290598943779
1.1562242090369014846
1.156132392734392722
1.1560492666588366717
1.1559806551378966066
1.1559326053368217391
1.1528111296285985521
1.153158063594033278
1.1534341954393307894
1.1536594367471142419
1.1538375933676434659
1.153966661959083595
1.154049558005354692
1.1540970905846947847
1.1541226539474880308
1.1541334451309777087
1.1541342791407633861
1.154127149466909863
1.1541076993212198154
1.1540655574827476393
1.1539889044210134283
1.1538826373809289993
1.1537793115851344705
1.1537307263599017038
1.1537873176022124255
1.153969683612223518
1.1542465076067680574
1.1545355082473325314
1.1547364043648282728
1.1547837919058421274
1.1546818517647212676
1.1545019437671149021
1.1543400357679434176
1.1542662880893350685
1.1542897290407903022
1.1543629147370364496
1.1544235488888896501
1.1544388017892726062
1.154422912566423598
1.1544170297879043918
1.1558331383094522238
1.1558263199860714376
1.155868310129190446
1.1559527773326627731
1.1560692290304253049
1.1562048825169255473
1.1563460480911871286
1.1564783300629362106
1.1565884682441487374
1.1566645804297661648
1.1566987909555073166
1.1566892690122227982
1.1566377020303610923
1.156551047798735965
1.1564397152942773594
1.1563128377164968441
1.1561867030957164726
1.1560724029296478577
1.1559804052005386854
1.155920130437172233
1.1530128617681629777
1.153346374538438468
1.1536098098123326317
1.1538132203502105
1.153955795868987666
1.1540369417564686483
1.1540649027187861453
1.1540511739668970481
1.1540085282938095101
1.1539412652524407843
1.1538600780204526508
1.1537762549185619498
1.1536954864317052749
1.1536169423560771463
1.1535316312582131193
1.1534352702712222793
1.1533497030020145591
1.1533220153101977346
1.1534070707384453947
1.1536305135972355629
1.1539618542602441131
1.1543124549528516187
1.1545746435489518955
1.1546728807366852809
1.1545953009680300916
1.1543963301926458698
1.1541659424141477164
1.1539860406714541607
1.1538978807808959459
1.1538922354880831733
1.1539301174771745551
1.1539793150222827922
1.1540316470890299438
1.1540997310196587922
1.1561301046201744036
1.1561246186250262458
1.1561657677802521516
1.1562483868951749511
1.1563626933380646289
1.1564958263763542856
1.1566333485730511121
1.1567602042920144267
1.156862931755496815
1.1569293516550736012
1.1569498257854742285
1.1569204735663387584
1.1568415352578886868
1.1567207284505165443
1.1565712663286640272
1.1564048673013123114
1.1562419919219852904
1.1560974401463053329
1.1559860418139180638
1.1559197240320622235
1.153290002513619017
1.1535522332296714865
1.1537336026236251207
1.1538442722437169952
1.1538946103572425006
1.1539035106916062379
1.1538788298083932915
1.1538186183678500463
1.1537174690347007378
1.15357809343179607
1.1534243703249167368
1.1532855155056653818
1.1531817076483434903
1.1531117136446480398
1.1530612959336890011
1.153027362148991708
1.1530378642031968717
1.1531418816142773309
1.1533679577386448667
1.1536946623269432877
1.1540514908433610053
1.1543400225550926042
1.1544742670788834538
1.1544201051528784063
1.1542083981268820292
1.1539207409736826904
1.1536530073899962101
1.1534745039685916357
1.1534162379959214118
1.1534699693517935781
1.1536032956442789921
1.1537749964199528474
1.1564378624523790062
1.1564855126182134182
1.1565741315572259929
1.1566940354597847751
1.1568313315076921288
1.1569693622046701709
1.1570907048505989501
1.1571807030037755126
1.157227309897387757
1.1572214033711807346
1.1571599627295523494
1.157044097197918342
1.1568837444104147494