/*--------------------------------*- C++ -*----------------------------------*\
  =========                 |
  \\      /  F ield         | OpenFOAM: The Open Source CFD Toolbox
   \\    /   O peration     | Website:  https://openfoam.org
    \\  /    A nd           | Version:  12
     \\/     M anipulation  |
\*---------------------------------------------------------------------------*/
FoamFile
{
    format      ascii;
    class       volScalarField;
    location    "0.0069";
    object      rho_0;
}
// * * * * * * * * * * * * * * * * * * * * * * * * * * * * * * * * * * * * * //

dimensions      [1 -3 0 0 0 0 0];

internalField   nonuniform List<scalar> 
106891
(
1.155427553832948373
1.15534808163174052
1.1552993231734691726
1.1552906167941974225
1.1553248657956869394
1.1553987088340766931
1.1555051697101244024
1.1556335002829734027
1.1557741336132147936
1.1559171938711219063
1.1560519883264777086
1.152343805932231291
1.1527405648886748235
1.1530103193033180986
1.1531996810323779101
1.1533670796736408271
1.1535570454856280964
1.1537801823615976282
1.1540238112669018999
1.1542637900018495323
1.1544772924960713389
1.154645803147048122
1.1547554252231930771
1.1548056599121734322
1.1548113401829389613
1.1547930496259686262
1.1547726427550795147
1.1547612523849626331
1.1547537919081845015
1.1547394266142647634
1.1547133683377956981
1.1546820437773597234
1.1546634457021442977
1.1546794582344750424
1.1547524225785925633
1.1548921487290806365
1.1550877642474595142
1.1553075959576319942
1.1555038608847969517
1.1556327175795855222
1.1556695173570876722
1.1556139056235847917
1.1554865891210071016
1.1553182532855228448
1.155140812594325439
1.154984570895452034
1.1548797311947112121
1.1548534285714193715
1.1549158670831016771
1.1554371236602338779
1.1555412539635230296
1.1556501674610870634
1.155744280799331225
1.1558065273561684005
1.1558268090382293192
1.1558040731703684845
1.1557461391801937545
1.1556676643150645134
1.1555852600422984455
1.1555169641296307859
1.1554772975748968111
1.1554754835769931454
1.1555142359235273108
1.1555900979935904704
1.1556954069664697737
1.1558205544991984048
1.1559552883332320228
1.1560899690335562084
1.1562160352235633098
1.1525191081457901721
1.1527673456532587792
1.1529469514278800624
1.1531240966316893548
1.1533440195162620867
1.1536183135991175952
1.1539210320016299871
1.1542038101167810815
1.1544249644587460946
1.1545639832375471645
1.1546236238496627724
1.1546277313088455507
1.154604337313244633
1.1545760397471160896
1.1545550854972754795
1.154537682715536473
1.1545133321978124918
1.1544749044565985052
1.1544222160286152778
1.154365182397877998
1.154325378974419225
1.1543331820582412028
1.1544150679233449175
1.1545825131469218405
1.1548224081972076061
1.1550927815344438354
1.1553309264172673121
1.1554772352398285928
1.1555014045764508968
1.1554091162632003087
1.1552353299911091167
1.1550287563823702364
1.1548337571919835565
1.1546802751419247279
1.1545859399825864067
1.154561352894978743
1.1556168714878407577
1.1556999855872136518
1.1557968673556544559
1.1558889622122749952
1.1559592333470016801
1.1559959898071763273
1.1559951894497626501
1.1559609006724038682
1.1559046476758367827
1.1558410130596039611
1.1557863848022904563
1.1557550083613787884
1.1557562204482894064
1.155793302116232768
1.1558622958942790238
1.1559536575505702238
1.1560592186167508721
1.1561700680622148951
1.1562787209673568434
1.1563799342112286439
1.1525875848247530975
1.1528307123151060321
1.153000195858615573
1.1531671294931205018
1.1533831631957371933
1.153656948231513768
1.1539495186046164754
1.1541986207267447284
1.1543541654033846466
1.1544044333111893597
1.154377886416478205
1.1543223047815309723
1.154277160631252519
1.1542604431290153233
1.1542656176163657022
1.1542701016716325757
1.1542558764194523757
1.1542198279511035608
1.1541694577759968876
1.1541191247810864695
1.154089838164688242
1.1541066743876979839
1.1541896172477739135
1.1543473553122163278
1.1545665795535879905
1.1548054226318376081
1.1550079625980291809
1.1551224034914455707
1.1551233245084007173
1.1550207785777533154
1.1548519643912122934
1.1546652767704010945
1.154504295929073443
1.1543950221131105138
1.154344080860424393
1.1543468558141485314
1.1559157687165506623
1.1559997829311154938
1.1560918592738800292
1.1561746218775468265
1.1562337562121351997
1.1562613095564564514
1.1562572656802019289
1.1562296146709669653
1.1561902456302390885
1.1561531507627180737
1.1561310352069404939
1.1561316855003449522
1.1561585906631604015
1.1562093642889104128
1.1562748326087719519
1.1563484827575958303
1.1564219691313430971
1.1564898403049157505
1.156551111912417884
1.1524493906218973294
1.1527122158496805326
1.1529663842970545584
1.1532488954790842683
1.1535578133960713298
1.1538494094546800639
1.1540628316450873836
1.1541568678334828135
1.1541406422727238379
1.1540666322699679736
1.1539970135055084288
1.1539748497737236654
1.1540000858582553089
1.1540390500997828038
1.1540522689957146696
1.1540188054141073959
1.1539486720996325886
1.1538720174029073462
1.1538210903865511181
1.1538163903982501246
1.1538672833716359101
1.1539745239595320392
1.1541287834245199662
1.1543104093812981414
1.1544861968240109906
1.1546225196744055452
1.1546920100868185433
1.1546796001169457035
1.1545923090625607177
1.1544585166489065298
1.1543168861322297136
1.1542030722740657112
1.1541392972371864456
1.1541297058898567496
1.1561724469382128611
1.1562041243411911307
1.1562711687442615016
1.1563595757310498602
1.1564515971464379707
1.1565306764745919565
1.156585564929978327
1.1566121809001761456
1.1566145728606653797
1.1566014672886781867
1.156583409702306886
1.1565701935650942733
1.1565674801954464179
1.1565786480434667727
1.1566028774286820635
1.1566324840696797782
1.1566642441632699612
1.1566917007304380327
1.1567115346963741107
1.1567260297877866027
1.1526143672516135918
1.1528732526406402226
1.1531185646830777181
1.1533701490834242787
1.153619674257768235
1.1538279065005501156
1.1539445034749813424
1.1539420033156035927
1.1538421368567659542
1.1537109412374249029
1.1536233741438670641
1.1536216622553094879
1.1536900274783254972
1.1537693642161934715
1.153801926300395575
1.1537646638204470673
1.1536808708909063181
1.1536026211325844937
1.1535781956981645546
1.1536261911847449646
1.1537330821277274051
1.153868904390760175
1.1539982130030759233
1.1540957537845237812
1.1541534856298978351
1.1541725881786666363
1.1541612676750061528
1.1541225442039280136
1.1540594358515119389
1.1539825822906690789
1.1539088267770043483
1.1538600584603739829
1.1538559911872290353
1.1566007044027106776
1.1566379631911969383
1.1567058421493943143
1.1567895292731076307
1.1568730718975051008
1.1569428532400358733
1.1569900113295592536
1.1570134286796933676
1.1570181674774626668
1.1570126200815531448
1.1570051825573672843
1.1569991911858041878
1.1569961391354048885
1.1569950586469139875
1.1569891161827265957
1.1569778524520886176
1.156956941585946419
1.156926070203917245
1.1568912130763890911
1.1529423035128549824
1.1531687514254398419
1.1533715912615822852
1.1535564404805316308
1.1537030992452352862
1.1537741357697330891
1.1537425002962062859
1.1536264148601624857
1.1534887939707036963
1.153403240424572207
1.1534066816557018154
1.1534786900059628145
1.1535567525968188907
1.1535824979718130034
1.1535379318082814581
1.1534524469824187776
1.1533834905500683909
1.1533810148534642259
1.1534616320979815818
1.1535950357409383571
1.1537260530981625628
1.1538063847827313424
1.153817213126040464
1.1537777758807687967
1.1537198453376591445
1.1536719939258395229
1.153647322885979376
1.1536381355400116
1.1536324111828639705
1.1536283687583817059
1.1536350657409499831
1.1536675013566053405
1.1571207903119833382
1.1571119915869894079
1.1571378346494323175
1.1571873294759122963
1.1572466224350919095
1.1573031467636802905
1.1573475116316140898
1.1573760714176855036
1.1573897959184802353
1.1573925473510933148
1.1573897548429832316
1.1573823674273386874
1.1573698472443847418
1.1573500453164407009
1.1573162364407274527
1.157270324056702826
1.1572094417863196814
1.1571349405049695669
1.1570550921120721366
1.1531156753411673233
1.1532479751921875799
1.1533557072172317959
1.1534459552034053154
1.1534995627591657641
1.1534903059985714968
1.1534141643426416568
1.1533052868509545696
1.1532149164423368681
1.1531806572264171606
1.1532066453722737975
1.1532599886036427606
1.1532983507218790287
1.1533012890442022602
1.153280795162964889
1.153270735200817132
1.1533060619338439956
1.1533932486119833349
1.1535019607153478294
1.1535838959362822997
1.1536028815151928573
1.1535534703479342067
1.1534616548919400802
1.1533679544890464985
1.153302278082448673
1.1532760449280246018
1.1532842755119483424
1.1533119045024073923
1.1533498761061222737
1.1534000020055499292
1.157654094746471074
1.1576186443665139603
1.1576079111437305169
1.1576136973515278594
1.157628812216061176
1.1576469485371452262
1.1576641808661121136
1.1576784185821122897
1.1576885141180177641
1.1576948826075896815
1.1576942571303299179
1.1576829542561868358
1.1576567825157937364
1.1576081461107650128
1.1575399334211522451
1.1574515041343171884
1.1573471242083943622
1.1572359206782363295
1.1531357739472294366
1.1531752567417217215
1.1532260315786355687
1.1532923465190609846
1.1533436379970378738
1.1533388242801403401
1.1532633624192880628
1.1531449025346576231
1.1530344933398346541
1.1529736740953113738
1.1529758510503613778
1.1530269611890575643
1.1531019060793636921
1.1531803357883407823
1.1532527098598017723
1.1533126891152052362
1.1533570160202628596
1.1533841277833345451
1.1533894061645086904
1.153373310251758932
1.1533418955078840185
1.1533012135922204866
1.1532572652927488566
1.1532107649819209882
1.1531659898905342043
1.1531334594915889635
1.1531249139549366589
1.1531485242407379932
1.1581669694502751966
1.1580523611452386845
1.1579636232031003118
1.1579021863390219771
1.1578660543047218923
1.157850904109515966
1.1578524710977535772
1.1578660698824059239
1.1578853210330897205
1.1579045565690975206
1.1579156784429356364
1.157912194129763428
1.1578891299330218434
1.1578392039902238864
1.1577651435780442757
1.1576668145879784877
1.1575508282683688588
1.1574276733601362999
1.1529907039733990892
1.1530089388980091503
1.1530866619761352965
1.1531877509329859777
1.153247957654711886
1.1532191933778976889
1.1531020628387735893
1.1529461136443148739
1.1528270870352670396
1.1528083081249820285
1.15290966775792314
1.1530984268748283306
1.1533050051560662652
1.1534573626904918164
1.1535103931713068803
1.1534603988500249372
1.15334624994767454
1.1532299128751892781
1.1531608281957153039
1.1531498196158624925
1.1531705589133873779
1.1531840518340275015
1.1531647905525634901
1.1531135067973299346
1.1530593246129738905
1.1530395980616701124
1.1530794970149511602
1.1583584645772069255
1.1582133757743124924
1.1581014591819576154
1.1580250317890217193
1.1579818285714622572
1.157967419525123276
1.1579757270924759816
1.1579980902651763053
1.1580255082040562531
1.1580460109084222964
1.158049788719278439
1.1580306231425632202
1.1579829763241564766
1.1579115828595778481
1.157817978127652081
1.1577092045802499509
1.1575945118919630517
1.1531060675901996238
1.1530503562316181121
1.1530491966336280374
1.1531229170482639734
1.1532383079035459783
1.1533269615601664526
1.1533269565141226476
1.1532225848139836533
1.1530569709329709926
1.1529142926857784968
1.1528790633123773279
1.1529912062408635975
1.1532217381620852859
1.153481606871916032
1.1536656523485715464
1.1537053957015579453
1.1536033898981290502
1.1534245657797683737
1.1532549642161613601
1.1531562624969156072
1.1531390000607280033
1.1531663296039154076
1.1531864750274296583
1.1531664922991362587
1.1531104670880922836
1.1530535150958893809
1.1530389066291684141
1.158339879109573145
1.1582164241342023381
1.1581285478927032528
1.1580764904912916879
1.158056100671602362
1.1580596501177213842
1.1580762709356235973
1.1580961200347257289
1.1581087479534717399
1.1581064215831211595
1.1580846538631868192
1.1580400570571991459
1.1579773462815279306
1.1578986401883590851
1.1578112908310262963
1.1577217417926981557
1.1531916883166415388
1.1531505962506365393
1.1531601722657147668
1.1532293325670865958
1.1533314075461635895
1.1534175837997053815
1.1534434087633693711
1.1533944065836236881
1.1533009983352873196
1.1532255966917865919
1.1532341795683824781
1.1533581751736952103
1.1535695106898606888
1.153787488771558456
1.1539189944872754179
1.1539111335397393976
1.1537752535163348089
1.1535730247597399956
1.153378734490442703
1.1532399101452590617
1.1531656865225257125
1.1531374048705864688
1.1531261289858905084
1.1531160948897150043
1.1531107206687505329
1.1531209049514707932
1.1531598248102006288
1.1532356114047430662
1.1582180691141767959
1.1581592401616709331
1.1581285014341904382
1.1581192594225624415
1.1581226624588341068
1.1581284560550695328
1.158129117469474556
1.1581187487937663061
1.1580952154607402349
1.1580594004402593455
1.1580122524730613875
1.1579583178963359646
1.1578984035095554184
1.1578368851948652729
1.1577760382864294986
1.1533035107552194187
1.1533614511117946666
1.1534580816881814247
1.153570900053565218
1.1536668626761914513
1.1537197850372491459
1.1537227767541193835
1.153693129539608675
1.1536660219853065446
1.1536812662533773022
1.1537589941483132883
1.153880537339414758
1.15399420224064575
1.1540419939543391514
1.1539950691209435174
1.1538663552496286613
1.1536976421110223257
1.153530142763310451
1.153389949899079836
1.1532846530903881899
1.1532130262304773893
1.1531731609139805883
1.1531687707147826316
1.153199806005135386
1.153259793729390692
1.1533368504426606549
1.1534200459376771075
1.1581382897983638625
1.1581361188571395182
1.1581429081736220876
1.1581490094719937289
1.1581459077828109017
1.1581294399023911446
1.1580984903094506677
1.1580559136768717732
1.1580068744962068727
1.1579560858351560793
1.1579083502363791691
1.1578635906768484087
1.1578231723326082303
1.157785065724675766
1.1536682881238242704
1.1537833139040190034
1.1538918272570108936
1.1539798606611377796
1.1540442158800943151
1.1540872427867761019
1.1541121882501406137
1.1541259193809438877
1.1541389784072582092
1.1541595871959089425
1.1541832591363008209
1.1541928722646623839
1.1541707321872638481
1.1541072706859609731
1.1540051491942477924
1.153876408989263691
1.153734728977678925
1.1535904764806472755
1.1534541019925441674
1.1533407726798432513
1.1532703370791104192
1.1532581446640028933
1.1533059872321345107
1.1533920891586930679
1.1534878716031398138
1.1535730028345732023
1.1581006122115125034
1.158122662061757735
1.1581322835391767434
1.1581230274886398224
1.1580942089798322847
1.1580491489415960515
1.1579945904320654293
1.1579383016380033755
1.1578870771442728582
1.1578452645273109578
1.1578124381043888302
1.1577880662810982049
1.1577669482411037105
1.1542861510994055774
1.1543806551283402051
1.1544515929836380863
1.1545129155827971168
1.1545711565398388831
1.1546187977678978864
1.1546353142578937856
1.1546064348940092703
1.1545334499892037083
1.154433178738464516
1.1543269872630983475
1.1542301657349260946
1.1541463672957612552
1.1540695549956807575
1.1539888560756681457
1.153898669537958277
1.1537972882583480416
1.1536912330020301365
1.1535960324133054389
1.1535327799097163659
1.1535173452450599996
1.153547626351308919
1.1536043928710766338
1.1536606414346737282
1.1537042604826652781
1.1580497850768141088
1.1580615602739949832
1.1580499553874947782
1.1580167310571050088
1.1579680232166618126
1.1579128116414612037
1.1578597605477027876
1.1578159511935131043
1.1577841202507546114
1.1577630992168783663
1.1577507398434436769
1.1577399986581802249
1.1548435997931203456
1.1549146447078300071
1.1549781806282917174
1.1550438707151415851
1.1550927955846357342
1.1550930010197184572
1.1550160835626821498
1.1548648664247651574
1.1546732000414701158
1.1544862397644379826
1.1543364038954628814
1.154231034823681501
1.154158156413324976
1.1541023931332041741
1.1540518263016736888
1.1540005628602181265
1.1539477144479755033
1.1538963684418956923
1.153855769652641694
1.1538341920541215213
1.1538296238564968998
1.1538317286655550564
1.1538299341677551446
1.1538270282536760014
1.1554305846538872604
1.1554909353543696415
1.1555356104843939047
1.1555472659988097472
1.1554904887657173607
1.1553426498282244328
1.1551166698524697463
1.1548586459789575986
1.1546213126262880877
1.1544378654514562133
1.1543124290100623686
1.1542356352451490498
1.1541947996154351408
1.1541861206945793761
1.1542040956176495836
1.1542331368879750197
1.154252718290794899
1.1542485478329842508
1.1542169297113460402
1.1541614900209895556
1.1540899004976807873
1.1540152632314282233
1.1539588934573639101
1.1558902726729662902
1.1558591283365442504
1.155753232276100162
1.1555619094716595985
1.1553074590491807516
1.1550391389981800039
1.1548010116253366597
1.1546127817726035136
1.1544725433008675708
1.1543733985263280317
1.1543233811435440472
1.1543337160442557199
1.1544029538502131871
1.1545011315331368262
1.1545819215305561656
1.1546065297541141526
1.1545602740130300745
1.1544552928300275685
1.1543191197783877477
1.154184472861017996
1.1540871076870491407
1.1554428152672908681
1.1551836846414011983
1.1549630035497955305
1.1547847439273764003
1.1546395547149319594
1.1545303196602332285
1.1544830330624107351
1.1545248616889247639
1.1546526435399377952
1.1548207284263927175
1.1549573992968713565
1.1550019928459800411
1.1549329998329029845
1.1547709394868017618
1.1545625023314813884
1.1543602349406645313
1.1542111742757152903
1.1548521090501546738
1.1547367399193109172
1.1546847885066757744
1.1547330899644885349
1.1548803800968532318
1.1550725392485714504
1.1552261809774555523
1.1552706021702403572
1.1551817986213737122
1.1549870420702854634
1.154745492503181703
1.154517670243369043
1.1543534889770101781
1.1549772016054917767
1.1549183996058818291
1.1549561307235407526
1.1550909133857218958
1.1552701217434344638
1.1554093905369660078
1.1554393905852062829
1.1553376350860020683
1.1551356499219092022
1.1548944902719264771
1.154675258366762769
1.1545251250846935154
1.1473286337060881745
1.1468333541619786242
1.1464608735498451608
1.1462582610420164464
1.1462615008412178064
1.1465079448109285476
1.1470092617223213161
1.1477163009341899702
1.1485047149099298913
1.1492109760963795662
1.1496965908549623414
1.1499070009983229923
1.1498474514285084158
1.1495560316675330625
1.1490763596652593392
1.1484735017667462298
1.1478265569670422774
1.1472084776883144652
1.1466601522649007006
1.1461942895811205734
1.1480906460918203216
1.1475471307457438819
1.1470720478717699731
1.1466707577246946226
1.1463593741430833095
1.1461849348386792258
1.1462209673775152208
1.1465298353420625421
1.1471029687069111969
1.1478431549378538268
1.1486002657710243646
1.1492357827924966074
1.1496586705140059426
1.1498336613387187821
1.1497454476473358831
1.1494107937143867026
1.1488946121574630244
1.1482892263756325768
1.1476812750026965659
1.1471183883202900056
1.1466030119341790172
1.1461333158756759065
1.1495201069873164368
1.1488176016237510169
1.1481905343536236153
1.1476587286440615987
1.1472016066906938203
1.1467831920896269793
1.1463911806367024226
1.1460811519435867289
1.1459587502555008687
1.146116959688482817
1.1465683896734013558
1.1472268707289188239
1.1479607512171678962
1.1486456770356492374
1.1492035921007230925
1.1495719382722986435
1.1497032136651870182
1.1495714394185594376
1.1492083115533751059
1.1486934251140490382
1.1481184613915271786
1.147546814980775931
1.146995949781378199
1.1464703824744266747
1.1459913214672170501
1.1456191991396393881
1.1499119134087927296
1.1491987024467495981
1.1484996369718041276
1.1478826713014607108
1.1473869751573535503
1.1469897367406955979
1.1466380975528807085
1.1463143317583719405
1.1460800094479242084
1.1460489998743130791
1.1462968159837449988
1.1467924822315349598
1.1474019041225000937
1.1479740783211569433
1.1484165124749337039
1.1487061105420477425
1.1488474553348964058
1.1488373910415010659
1.1486639631705304332
1.1483445539451757611
1.1479255891089421571
1.1474647056036453296
1.1470065316786781651
1.1465746815712072326
1.1461913847032652036
1.1458934527242827794
1.1457348739395158965
1.1457843570446615278
1.1491141321860243174
1.1487403288041908578
1.1482208502141595385
1.1476397636482402742
1.1471344540262351508
1.1468069752826079988
1.1466679231332557176
1.1466503804207002215
1.1466959091685309247
1.1468013021160605724
1.1470070709048307833
1.1473028602159625056
1.1475873367001592218
1.1477117415607871465
1.1475881768376989811
1.1472558699130945836
1.1468473163248911195
1.146489618095341001
1.1462369785625174945
1.1460766149240479983
1.1459811112430324798
1.1459427586599530979
1.1459763033577299307
1.1461053289083393825
1.1463442984640825895
1.1466880873858151801
1.1471064800066432809
1.1475410717546905559
1.1479219937130600293
1.1481966676490487078
1.1496175997342301667
1.1495586140326226054
1.1492676005189568222
1.1487490943533833487
1.1481268503753314647
1.1475710837988664093
1.1471985451609563178
1.1470059400732348642
1.1468980933297658886
1.1467985903027568817
1.1467193597982032749
1.1467326329540155072
1.1468659786833537151
1.1470337186247905326
1.1470973186063337934
1.1469763487647808287
1.1467290438132569097
1.1465005517810902269
1.1464166390804861884
1.1465174238774360482
1.1467628376290048831
1.1470802160102619993
1.1474083157566610236
1.1477057660376577264
1.147947697351941132
1.1481272452155002473
1.1482513017636672981
1.148332331794384098
1.1483777919486919394
1.1483923283072290378
1.1484012654109443385
1.1484348491101310508
1.150638238016144399
1.1506343636453737478
1.1504202393539844085
1.1499947454642658329
1.1494888682181478856
1.1490708588481581831
1.1488383168743192542
1.1487498206893029806
1.1486767211144586209
1.1485306301652609129
1.1483567457083401209
1.1482782713899570837
1.148372084803432891
1.1485675433956918923
1.1487146771201690587
1.1487129510344122885
1.1485973644388429715
1.1484924907365250402
1.1485084613186908875
1.1486741164562237483
1.1489464560730857645
1.1492542231568290134
1.1495437039377471855
1.149784041295516257
1.1499593153064238127
1.150076002569040412
1.1501531292342002111
1.1502091892737764667
1.1502496343581323224
1.1502738508586578536
1.1503042202896616164
1.1503725795698303003
1.1504972963841861855
1.1473004147472130043
1.1475531558882510197
1.1477453162385664598
1.1478145406715711818
1.1477506206200840388
1.1476665131420140664
1.1523977367487210355
1.1524246130338253735
1.1522202479182492851
1.1517795710981282298
1.1512402351380588428
1.1507847599678129313
1.1505154835212398901
1.1503861774077821511
1.1502594304014714943
1.1500421845658346243
1.1497928393166547689
1.1496526464650351773
1.1497060551449000965
1.1498753541861590488
1.1499924148672560076
1.1499493663355171424
1.1497809699307581788
1.1496200940451564154
1.14958343939222285
1.1497014824979192582
1.149931643416433058
1.1502004485590240357
1.1504520918554614894
1.1506522594376893398
1.1507827230292644316
1.1508506890184384552
1.1508791248381309291
1.1508890565856204624
1.1508829344428896935
1.1508581282214955799
1.1508349935926209806
1.1508498744672401859
1.1509240238285098901
1.1510501971273987554
1.1494638598815147823
1.1498082253131869379
1.150062927449781558
1.150252384548090534
1.1503091787683015212
1.1502338528442224153
1.1501494770304405701
1.1537928478256147535
1.1537861914852525214
1.1535367401406315668
1.1530410726518594
1.1524445828665399461
1.1519409645148694921
1.1516334475828347017
1.1514714162097783312
1.1513074997562802171
1.1510459682306091178
1.1507483163391198921
1.1505684420338380125
1.1505912840561183241
1.1507387925228060865
1.1508305511343790428
1.1507558914635047653
1.1505512448768395739
1.1503552808421615428
1.1502885417557922043
1.1503810968370304924
1.1505896786940668086
1.1508389218231613871
1.1510707980073198176
1.151248048398278323
1.1513532074241565883
1.151393606781120349
1.1513948163421148241
1.1513799970560241182
1.1513501230184910451
1.1513026454335224535
1.1512570364302721071
1.1512521555906345405
1.1513098459895025893
1.151421654702384334
1.1515592330290929102
1.1561454423683354964
1.1562087522071422541
1.1562291735596716968
1.1562132753269431795
1.1561717256277888044
1.1561162215063509606
1.1560576623976208666
1.1560047679174230151
1.1559610885875146735
1.1559265597838030981
1.1559019597220356879
1.1524427741590390628
1.1528531743892720396
1.1531302708745492236
1.1533148815600153814
1.1534564555514346118
1.1535911608201889766
1.1537408109650695298
1.15390863308968461
1.1540900785968641884
1.1542749491615853508
1.1544476701194703594
1.1545954396143882636
1.154708868517098308
1.1547838062414252924
1.1548152897181114263
1.1548015279178720505
1.1547462587061596562
1.1546662491294275021
1.1545975388889768709
1.1545777850147553867
1.1546288963796096372
1.1547441480928009039
1.1548788333656436755
1.1549671838699531179
1.1549619982293517495
1.1548713154218939181
1.1547589009395027304
1.154705935636470393
1.1547629455802728149
1.1549173572266699939
1.1551027093934524981
1.155242319650872318
1.1552949905467262415
1.1552751422282332427
1.1552310782009418411
1.1552016130998339349
1.1553809226909301788
1.1553140316129080212
1.1553015194501197183
1.1553453398450661549
1.1554409932423264085
1.1555777145351000534
1.1557398477485065769
1.1559085250380822796
1.1560649958155375661
1.1561945094926764366
1.1562866811046830229
1.1563374345522199338
1.1563478510211808725
1.1563233113090347626
1.1562730823373537081
1.1562079183589821785
1.1561370699455517652
1.1560702572356205131
1.156011878563362405
1.1559639322775214776
1.1559289171587441292
1.1524078373555572963
1.1528281349927678168
1.1531350537017812652
1.1533664256159206207
1.153557100545617331
1.153724748568091929
1.1538750422596939504
1.1540080995338108938
1.1541254585805713617
1.1542311154817039842
1.1543254084903744605
1.1544042080908618608
1.1544619218728768839
1.1544918103172085999
1.1544826806417465281
1.1544285277196622008
1.1543393098665828411
1.1542423618359818338
1.1541837685497708943
1.1542073540281763133
1.154330331045913427
1.1545265308570327178
1.1547297521280701638
1.1548582164701122199
1.154860100077199192
1.1547462323745283364
1.1545902084297325896
1.1544883102769152305
1.1544989415106929886
1.1546111113127048853
1.1547578450244617709
1.1548617110078611692
1.1548874767899903748
1.1548552766356550148
1.1548174332013898535
1.1548125116644427646
1.15561829473493205
1.1555582450277581685
1.1555507636319923837
1.1555960893893282293
1.1556880461250003123
1.1558151813763928306
1.155963142095928653
1.1561160902144407281
1.1562577148349566514
1.1563742345195291428
1.1564551966232237135
1.1564957822682868649
1.156496487649045557
1.1564610011366092124
1.156396833905108279
1.1563136368584154834
1.1562198396298994929
1.1561279659686185539
1.1560451216473048852
1.1559770789737215946
1.1559298498950576484
1.1528165996672139482
1.153163014621271909
1.1534389502826496443
1.1536637703393310961
1.153840856836307216
1.153968377845261406
1.1540496367174601922
1.1540959929858594091
1.1541208541183267666
1.1541312987006400181
1.1541320274491644327
1.154124711582228402
1.1541046692004830465
1.1540612577538669203
1.1539829594445278893
1.1538756743387537096
1.153773025553225029
1.1537272269040339534
1.1537881584403346658
1.1539748158207361328
1.1542537371406185187
1.1545412011774855987
1.1547372528885040399
1.1547785983222167427
1.1546720982101859043
1.1544909605045823309
1.1543310683636269776
1.1542607284088988173
1.1542865727474505011
1.1543598483838370949
1.1544187638644058946
1.1544323387337460662
1.1544164288023834875
1.1544124924706147262
1.1558367688818527164
1.1558323362172451265
1.1558765181930645838
1.1559627488931045747
1.1560803649942656968
1.1562164420868625836
1.1563571875074643014
1.1564882035917938286
1.1565963653417730139
1.1566699976999452737
1.1567014663456876011
1.1566891994590444703
1.1566351546531938865
1.1565465380741648538
1.1564338978533077462
1.1563064068676056628
1.1561803195033086844
1.1560666434200395081
1.1559757737596614291
1.1559170157060685291
1.1530179713734503011
1.1533506769922596824
1.1536132513445342962
1.1538153858203150648
1.1539561042753023745
1.1540352392852719632
1.1540613667987820179
1.1540463490528141133
1.1540028159470503422
1.1539349978311139733
1.1538537481273074548
1.1537701042455292821
1.1536894375415551739
1.1536105898635449218
1.153524501425524651
1.1534276094876712015
1.1533429237971573045
1.1533183047903543539
1.1534082608518476665
1.153636686362314645
1.1539707237452185851
1.1543200461933591505
1.1545772727834777704
1.1546687828986297308
1.1545853241001267087
1.1543832374488034453
1.1541529781832551294
1.1539755470696948514
1.1538903725655480503
1.1538866770085991487
1.1539251729069208707
1.1539744666069537971
1.1540274137996895387
1.1540970417197260467
1.1561338709300559291
1.1561307095691251146
1.1561740481809994474
1.1562584588590991697
1.1563739866120354982
1.1565076283365109955
1.1566448046219319767
1.1567703775081934481
1.156870945880529522
1.1569345450698431677
1.1569518361776935933
1.1569192610092497997
1.1568373797131785707
1.1567142338444198479
1.1565632605657045762
1.1563962794415485469
1.1562337418294639235
1.1560903519898302338
1.155980835690169739
1.155916912318839973
1.1532920260757844044
1.1535527696384555441
1.1537324651367928396
1.153841352516180363
1.1538901638648944026
1.1538979548581900225
1.1538722085218022784
1.153810826487921215
1.1537083741422031746
1.1535681839359275269
1.1534146316557045697
1.1532767589200496605
1.1531741495565828171
1.1531048488815276443
1.1530546392828546765
1.1530214034927421807
1.1530343391021435906
1.1531425995401585194
1.1533732291230922584
1.1537027827673254077
1.154059121512515107
1.1543433908977491775
1.1544708398881045053
1.1544097030369167012
1.1541931698339740198
1.1539041722885561292
1.1536382977460071242
1.1534636161826661294
1.1534096508305278217
1.1534669845640497243
1.1536026431732626651
1.1537753018366743163
1.1564441214297458416
1.1564941122152223585
1.1565846793002376725
1.1567058597084194371
1.1568435462008666015
1.1569809750656951941
1.157100726785553757
1.1571882246793645521
1.1572316016980372932
1.1572220632959040465
1.157156998568766415
1.157037923401705859
1.1568751280380400459