# Forces                    
# CofR                      : (0.00000000000000000000e+00 0.00000000000000000000e+00 0.00000000000000000000e+00)
# Time                      forces(pressure viscous)	moments(pressure viscous)
0.011                       	((-1.75735433518080776506e-15 1.53758664022688208206e+04 -2.43359609040113910000e-14) (5.22898097745113976664e-01 -5.45602080236934176838e-03 -4.75583523728385438104e-07)) ((4.48178138200692188775e-02 6.40823409457123955761e-15 -5.58384887260012874322e+00) (-5.24222277743522025372e-06 -2.92377248131839642675e-05 -5.05184853647662052145e-02))
