/*--------------------------------*- C++ -*----------------------------------*\
  =========                 |
  \\      /  F ield         | OpenFOAM: The Open Source CFD Toolbox
   \\    /   O peration     | Website:  https://openfoam.org
    \\  /    A nd           | Version:  12
     \\/     M anipulation  |
\*---------------------------------------------------------------------------*/
FoamFile
{
    format      ascii;
    class       volScalarField;
    location    "0.0055";
    object      k;
}
// * * * * * * * * * * * * * * * * * * * * * * * * * * * * * * * * * * * * * //

dimensions      [0 2 -2 0 0 0 0];

internalField   nonuniform List<scalar> 
106891
(
0.013559337961988514321
0.013552828166703109053
0.013540595971145735765
0.013533958185433968974
0.013522124292493395772
0.013515720256110369188
0.01350429942497473855
0.013498084600322582047
0.013486806941268567051
0.013480875449511943096
0.01346679574558599414
0.01869398960837566695
0.018825187303292596069
0.018938127446492446226
0.019031215351348163001
0.019104068229197503082
0.019158297280008115132
0.019196060483544157005
0.019219947004556529879
0.019233042660169064053
0.019239132210028396519
0.019241217617386549565
0.019241551706211272588
0.019240762659091213693
0.019238402705223093397
0.019233546715383777193
0.019222397474282303109
0.019191375589039324362
0.019146695043827419158
0.019101108559074261167
0.019059551263908923457
0.019019442894648828229
0.018985048731878347017
0.018952058702504395726
0.018924124241757069725
0.018897584574003676444
0.018875099343479171538
0.018852495862374391011
0.018832908148946902321
0.018812702410327057645
0.018795487798709525212
0.018777231977608242752
0.018760157373691757621
0.018741334558263177124
0.018724534355722879247
0.018706539045480641281
0.01869104109393767213
0.018674465185032365633
0.018659781396733774589
0.014337768947544848874
0.014325000812979641132
0.014318269869476032627
0.014305252134079448137
0.0142980895888049752
0.014284767700773991217
0.014277426972133739139
0.014263784690865321386
0.014256303161988344297
0.014242387248018396201
0.014234619374614057227
0.014220529214075745827
0.014212924120292749763
0.014199254943415869426
0.014191928524291819516
0.014178656438456694114
0.014171561192325312847
0.014158755521008866557
0.014152016174253644401
0.014135667111207624036
0.019840319536974147796
0.019959723802086326572
0.020058051805829448661
0.020135796726915986682
0.020194240372097743697
0.020235549970040251494
0.020261911414619363653
0.020276488753116397867
0.020283211566828777267
0.020285342496165415654
0.020285322219049408549
0.020284104893536717557
0.02028116780485707954
0.020274493958926071563
0.02025610541751576843
0.020212606832193707324
0.020161655382477498138
0.020114035633186404944
0.020067601671735827568
0.020027018306302313971
0.019988189229993007234
0.019954876683006460281
0.019923647485996794082
0.019897253473211484048
0.019871550383205496826
0.019849098670838741243
0.019826101351273633933
0.01980631224134267801
0.019786221675481226179
0.019767910323442147713
0.019747745481716226512
0.019729146713336986191
0.019708958604136298659
0.019691354733696334045
0.019672807143201895275
0.019656466091112132638
0.015065631823258348113
0.015051602374979513449
0.015044324193244992469
0.015029861460135726658
0.015022118303990472654
0.015007251988487194105
0.014999158120939558997
0.014983897707283984346
0.014975570561229167854
0.014959836992078744469
0.014950999453254201071
0.014934852019598947662
0.014926096234133143237
0.014910396521833796032
0.014902072695274446237
0.014886972008476103552
0.014879094595987527386
0.014864648622553796112
0.014857141979148790617
0.014838576150928421693
0.020823967149057542869
0.020946854824063988049
0.021054035086883193806
0.021145413001608270864
0.021220996054656528218
0.02128166026100040964
0.021328532549916755234
0.021361992590890492572
0.021383431557909664267
0.021394828405547978295
0.021399979347291191861
0.02140159573012096958
0.02140153578556717312
0.021400496304737354897
0.021395509285728666476
0.021377416694683452902
0.021325697053618759835
0.021264722581908031968
0.021205695189609800183
0.021153556374338956109
0.021104154258430169594
0.021061969368664352348
0.021022923668906973865
0.020989858136802964916
0.020957990149394631341
0.020930391742424503398
0.020902710110231717544
0.020879034762005973386
0.020855121104507479829
0.020833490500410011687
0.020810154192252031113
0.020788911556483220811
0.020766212939224117789
0.020746555645209815988
0.020725965806100782318
0.020707905235909190161
0.015815194247484034434
0.015807274750133836622
0.015791229503576455218
0.015782669123458475252
0.015766135070085972314
0.015757226841946365969
0.015740175808999504886
0.015730854233011050403
0.015713214806033819204
0.015703318120929576213
0.015685132845583524275
0.015675047458344474466
0.015657209644304920237
0.01564781876440098779
0.015630826866451705964
0.015622223610067697067
0.015606119720427734723
0.015597885317066923633
0.015577170622322058027
0.022228780814590249487
0.022364371855634584962
0.022472958256133202665
0.022555463621780957872
0.022613161438956849714
0.022650239323684571296
0.022670173207892153205
0.022678085982982459923
0.022679405977531347238
0.022678386555031852106
0.022676422562333129612
0.022672499077489548236
0.022660894650885242407
0.022624210290153292519
0.02255336602683213898
0.022483103554765342114
0.022413026990938292315
0.022349371259633855902
0.022288631547539648758
0.022235788543824030333
0.022187035152115425207
0.022145377929184910382
0.022106149868985697921
0.02207236169390298583
0.022039384762875494084
0.022010971154017993506
0.021982943241734539952
0.021958304296795388283
0.021932887553219818783
0.021910159318303125409
0.021885739855310500784
0.021864427170301275333
0.021842484160644614483
0.021823946938547906377
0.016635329290817582604
0.016618022846293163675
0.016608950725038023472
0.016590953484035518561
0.016581265562247638617
0.016562734651211673959
0.016552766262884380938
0.016533727456463948036
0.016523379075608940481
0.016503676231391203183
0.016492658269920617425
0.016472435425483999277
0.016461245541853498919
0.016441468871154860804
0.01643111240045193322
0.016412182052289902429
0.016402765944844417689
0.016384848432381374228
0.016375785478619099556
0.01635286051382714434
0.023278036514229206305
0.023420660373343001742
0.023541243483616604987
0.023638472346796206985
0.023713088771707437757
0.023766247949725576721
0.023799439319743331128
0.023817771142930412032
0.02382528127869375581
0.023827294547901379379
0.023827687663234113635
0.023827622962528258177
0.023825741612625992577
0.023814252509033493471
0.023772516647891879515
0.023699711985951936455
0.023630671925290679808
0.023562960480339054103
0.02350256709461115423
0.023446162049964486968
0.023397145184251729594
0.023350381737374116542
0.023309036965235504363
0.023268495952880229732
0.023233181323628938203
0.023198730308624779251
0.023168817484379281013
0.023138705803746321965
0.023112481607183359839
0.023084811328342540876
0.02306085097871723652
0.023036128077871961817
0.023015816207543119548
0.017461803248616580148
0.01745141905473725219
0.017431108721684653723
0.017419978772327225636
0.017399134297629726548
0.017387867030022451098
0.017366629035163273082
0.017355084534341640168
0.017333403565119569895
0.017321380488151093269
0.017299299903571936643
0.017287128552925863645
0.017265483324904129514
0.01725409544044066712
0.01723327627051312802
0.017222916361229145127
0.01720310735800228974
0.017193192665406916569
0.017168122689013784465
0.02456294336043441176
0.024692281237403107541
0.02479881263798815183
0.024881832316315136838
0.024943059519071313773
0.024982772781814210905
0.025006082370430619127
0.025017105000044653068
0.025021589890839714826
0.025023958807081914113
0.025025293122495354675
0.025025462882496237599
0.025021017171521265504
0.024998758315946927738
0.024936802838801865739
0.024869217449744563525
0.024803192663700259629
0.024744733193720985093
0.024689672075837467563
0.024641410372106539034
0.024594002357606413456
0.024551168317625413767
0.024508289105530014357
0.024470758677099978956
0.024433979210370673774
0.024402303073595983662
0.024370771978307597533
0.024343748041255539039
0.02431579862017142421
0.024291923405797426899
0.024267362731324300384
0.024246924975932494101
0.018349035590271046969
0.018336970311739329842
0.018314081027079185532
0.018301490131942724227
0.018278164441241310373
0.01826549773566007312
0.018241909122318083342
0.018229137618816955435
0.018205530693616984311
0.018192677016596395245
0.018169053575176574017
0.018156296882354611838
0.018132923611655134971
0.018120570735461753037
0.01809789816422734815
0.018086427328573018158
0.018064403525441974363
0.018053558002686580924
0.01802671493735100855
0.025960523717780681352
0.026084191896890505935
0.026186577626524092099
0.026266876702150020184
0.026326827129081287887
0.026366727551411880959
0.026391863062176841581
0.026405021413548054182
0.026411795580099328012
0.026416079412752781902
0.026417802932902346297
0.026416792514284040405
0.026406588312532380119
0.026365651575911846355
0.026286140781893885948
0.02621260175054304295
0.026142879515120995282
0.026081659855824747968
0.026023023361141466719
0.025970422939170585003
0.025917924511639437585
0.025870876872323977924
0.025824400297890414552
0.02578437563304031635
0.025745364143686007286
0.025712545886831646158
0.025679287606528971438
0.025651281065111053437
0.025622561472763281942
0.025599057839378502183
0.019270285395064448014
0.019245255474664730438
0.019231310971383405728
0.019206056780108161225
0.019192275914422345096
0.019166757657226165396
0.019152919153501039157
0.019127647519987533292
0.019114138912618209437
0.019089408696737541343
0.019076215890576630335
0.019051314009131695149
0.01903792003775291175
0.019013301889897134961
0.019000599505849383175
0.018976580316327817943
0.018964819447871535812
0.018936573945316153428
0.027403311510614852126
0.027522887937174399936
0.027617233975087734227
0.027688765892624100234
0.027738536774208250729
0.027770110406162423766
0.02778709933192623216
0.02779513539662121363
0.027799391295152461184
0.027802126442734723805
0.027801787637801955028
0.0277960994420985881
0.0277657058082880423
0.027695964270863158291
0.027624998363693639009
0.027561329472037970206
0.027499655615510716633
0.027444014396220385577
0.02738948884263040992
0.027340591577638091031
0.02729179928425332774
0.027248190111878067832
0.027205223288118512287
0.027168135980374572697
0.02713112733666726839
0.027099108568310468353
0.027066941755624421284
0.027040278115689219546
0.020301348163517980716
0.020276297532388350836
0.020261918086061054406
0.020236777473520331516
0.020222722714428976315
0.020197424069529481411
0.020183265236369724721
0.020158135827649754923
0.020144538845258994769
0.02011984650173930661
0.02010651636455387456
0.020081550545087745868
0.020067880333041819563
0.020042353779601677216
0.020028738537969926342
0.02000365699695503402
0.019991373889155766158
0.019964594399876234992
0.028860644307205720466
0.028947866248104556913
0.029014551007531023952
0.029062319322030724655
0.029093476571345072007
0.029111121542278284996
0.029119132756733768358
0.029123338690018828884
0.029126722720488943535
0.029128179287471297337
0.029125093421790978349
0.029103030261614901836
0.02904511831479887965
0.028981357404436056818
0.028922219964263307102
0.028862557545866831393
0.028808634443243028717
0.028756909910288796367
0.028712829206738538224
0.028669731889836465311
0.028632052693455603554
0.028593621571914598634
0.028559609084123940143
0.028524657860923268576
0.028494592081906446046
0.028464071565077173065
0.028438585355412604461
0.021168488121423117282
0.02114114615593520527
0.021117536813177649468
0.021090346524565869307
0.021066349428635652852
0.02103831143766132436
0.021015283785352761176
0.020986209993060483264
0.02096481269456839866
0.020935734537841626385
0.020914188552530597887
0.020885344966697350771
0.020862211211830870849
0.020833097615065240132
0.020809919725314339478
0.020780646478222562085
0.02075797827933802478
0.029325536316654379071
0.029406943938819110618
0.029468036007613957611
0.029511467971006521277
0.02954126154147687297
0.029560120905086556542
0.02956996000339323985
0.029574701179789754379
0.029577339943315603815
0.029579236113199198349
0.029578149774708920039
0.029569462389559104942
0.029532083905556390929
0.029471032120635457657
0.029414253468249908913
0.029355114529374864984
0.029299673122718097873
0.029245572916334554303
0.029200442446589643802
0.02915898579506114377
0.029126303400156192125
0.029094117755875670284
0.029066080220017258967
0.029035538196644651576
0.029008958091377393118
0.028980725363459684807
0.028957404888632583273
0.021165950592527876806
0.021142737227463088284
0.021099859163064862283
0.021076868184083337454
0.021033101879348314878
0.021009933234678191544
0.02096542530403566057
0.020942567211214228873
0.02089868348308172516
0.020876181294020922791
0.020831510176337865448
0.020808684838027172864
0.020762569470124780935
0.020739093783941692922
0.020680504448597331751
0.020687664769486507205
0.02387571134755111027
0.023933773764130378964
0.023974949204406428155
0.024002570323543259007
0.024020924028965710828
0.024032742303826654107
0.024039830205179756745
0.02404386748407306984
0.024046470889374792906
0.024047529904731947126
0.024045476832043621157
0.024033135204457444639
0.023993736111015635804
0.023948354609822739003
0.023903264593751305522
0.023861262238692792365
0.023819424039607052512
0.023782718972062355522
0.023749367863806152001
0.023723646249261782365
0.023700583481691045451
0.023683868595492849757
0.023667649480177497395
0.023654966733135978502
0.023641854335556981848
0.02363256274575355545
0.023622705165256798615
0.023615392660533050806
0.016882989982369745602
0.016847645993171605355
0.016827617464229310817
0.016791531858717966691
0.016771512532652889382
0.016734713459524892115
0.016715005618871865006
0.016678517214507526667
0.016659167393712794036
0.016622773930571425882
0.016604178053371471124
0.016567474232559709774
0.016549116671857159316
0.016503283977151554651
0.01651775607317157793
0.022421057129388816814
0.022455413676450743099
0.022475773744029477891
0.022486392143482858419
0.022491906094447310094
0.022495117536168812711
0.022496023094597923653
0.022494471588002731832
0.022486192521723551846
0.02245457445091865456
0.022390979742216248621
0.022326461683865445745
0.022266312294270156763
0.022207683208471107328
0.022155083355545363011
0.022104772178855269099
0.022060624745309832112
0.022019769222165960776
0.021986040772282489791
0.021955077581248261254
0.021930380003613879347
0.021906966263042951942
0.02188726941726577141
0.0218672532911773701
0.021850279926162802929
0.021832692768831155755
0.021817598181175967137
0.015905895257915188962
0.015890691414735862164
0.015861996220217399606
0.015846827898163492326
0.015817635050887891152
0.015802730938397499538
0.015773646331826190331
0.015758881209014051483
0.015729807903152051574
0.015715073462119418662
0.015685568571212782363
0.015670624284176457724
0.015634593480416739825
0.015630943439559154273
0.02150985806136721662
0.021535411110759999226
0.021551440730502680748
0.021560753188880458359
0.021566559426448552589
0.021570461450956340821
0.021572462862589476124
0.021572190927060877486
0.021566784986476780772
0.02154336302375462267
0.021487349527447730663
0.021430820662193209719
0.021375458253868037661
0.02132640271329156248
0.021279623038166679133
0.021238791581554557902
0.021199702129546704049
0.021166464094824203462
0.021134550929869391767
0.021109208268911213574
0.021084990175183542654
0.021065539221326493036
0.021045040701292889312
0.02102810719042091589
0.021009534026530572726
0.020994424255915106192
0.015325603011304646597
0.015298501036148992593
0.015284294470445231734
0.015256641107022564027
0.015242507244958883664
0.015214783824796455913
0.015200731653392796777
0.01517302477245837701
0.015158929170696472388
0.015130817230412610397
0.015116571770849901793
0.015083361190643377811
0.015077766465315674271
0.020755570153064277494
0.020771984395849311944
0.020781268505910586303
0.02078684717025316292
0.020790258379750344714
0.020791900138879486348
0.020790904999975167583
0.020781933836625781503
0.02074882142857206388
0.020688207279291315893
0.020630724241860326496
0.020575679130620482676
0.020527775041657810723
0.020483260902543782428
0.020444725677413660286
0.020408183007847077034
0.020376250190085855307
0.020345451957642736451
0.020320061226290091205
0.020296479121238029247
0.02027677380952502828
0.020256957881206641425
0.020239512954618451429
0.020221642419032868909
0.020206162324618418685
0.014716408181387204135
0.014702850391600979021
0.014676442488040380291
0.014662846782658929198
0.014636051849723821436
0.014622333653020560748
0.014595461239905415524
0.01458178748989223672
0.01455466555682568934
0.014540899198259833389
0.014508839091806892754
0.014503539649580118182
0.020077370334193041929
0.020081313681975691138
0.020084027039693985034
0.020085785405020251809
0.020085565432667536884
0.020080150319610533954
0.020058762417387656501
0.020004611400979255276
0.019941368878061853376
0.019881988859235526224
0.019825176055888210636
0.019775970728576078295
0.01973079834491863957
0.019692534035947475285
0.019656700142929774827
0.019625884087903174013
0.019595719945286270425
0.019570878604394166544
0.019547151047966268567
0.019527586765913183126
0.019507119084280325622
0.019489408314574213632
0.019470703009393706961
0.019455350528646865593
0.019290628884231594831
0.019294368249675064586
0.019296745606282396379
0.01929744556912170797
0.019295026693626433911
0.019283490854230270206
0.019246517645228864574
0.019184600124588405134
0.01912637910330982835
0.019071279354853733212
0.019023915744598555305
0.018980980965928165305
0.018945441724214626134
0.018913161753892415023
0.018886134434962804224
0.018859623976565941667
0.018837377409464766548
0.018815415441250805256
0.018796738126334339158
0.018777006187454745034
0.018759665947293925614
0.018741324319233317042
0.018726034862509774448
0.018635982217101682706
0.018636469768371188849
0.018634143284418088621
0.018624526799680015537
0.018594851973564804209
0.01852959121225872946
0.018464421806639617907
0.018402258238502045701
0.018348108541833212104
0.018299443012925013796
0.018259495535912113884
0.0182242166650036716
0.018195142855486713673
0.0181672597791509155
0.018143701923843985613
0.018120336573268898406
0.018100054954498654564
0.018078881540139497136
0.018060366571323507173
0.018041214716902415766
0.018025102653398902136
0.017828397084688217544
0.017787509035804723728
0.017731282277809925357
0.017677071153367640566
0.017629695614536464165
0.017586905703256515421
0.017552070197271552737
0.017521437657393192783
0.017496491830947844687
0.017472308730418197042
0.01745170037912545033
0.017430690548123298905
0.017412110880097080023
0.017392291325310508393
0.017374759229154122797
0.017356364235589567813
0.017340622775796572796
0.016987135169426917369
0.016944739504912251227
0.016910330718408222994
0.01688021701571745109
0.016855899915667663796
0.016832576715416096291
0.016812728014147394068
0.016792368501302713107
0.01677421119145841924
0.01675479585541193514
0.016737550122622357057
0.016719323361914138759
0.016703397674031464359
0.01628595073224231235
0.016258806153543550049
0.016234416007232202461
0.016214504461546552089
0.016194825489550104813
0.016178116633929314622
0.016160686639960449712
0.01614506513992074177
0.016127851209705851981
0.016112449789694498203
0.016095989027582177644
0.016081562264492692271
0.0083244810673449090577
0.0083989714171940049042
0.0087013725905808018968
0.0092766390970556514284
0.0097257537513058059386
0.010022650034456358908
0.010184490167434145577
0.010249475855612316319
0.01026057703165515235
0.010253440226052153508
0.010208022142524168438
0.010042929122601103667
0.0098039016622290271058
0.0096135615133421236517
0.0094758113163922810807
0.0093899351624931598481
0.0093457452990130668313
0.0093312678625061280108
0.0093317324365460932456
0.0093473144738940392579
0.016257696576923733045
0.01625186107962348428
0.016303563599149358682
0.016550647662442134062
0.017018357119510000436
0.017338910374244117379
0.017500754143234719534
0.017551685895947251315
0.017553747164045348239
0.017535997329441149056
0.017456972206957910299
0.017290984196894947089
0.017163849834266598632
0.017080926198841557551
0.01703009766590928703
0.01700063739532155227
0.01698312028098462878
0.01696942560992846169
0.016961447888219637753
0.016961423093596689204
0.016967576668691024266
0.016997598129380855903
0.047061334585249935125
0.046567687364029011765
0.046513325437158060949
0.046572090337405218363
0.046829680982068751238
0.047457448259879908559
0.047916794028116341253
0.048118019295101163713
0.048139188296111266874
0.048106226572486823767
0.047983541601849415137
0.047619502274930065877
0.046936834348140714368
0.046325576243559159206
0.045832486025848245825
0.045452818410911442759
0.045171825597520892659
0.044957587307840822521
0.044771450282871307069
0.04460319507981751197
0.044477547767100993059
0.044391254895200620012
0.044337782593248470375
0.04432296591204627767
0.044328422256051630557
0.044343405738905834756
0.2329815189601860681
0.233077693983462092
0.23397676005781786746
0.23711009850025174805
0.24074206797169753203
0.2429584088103274031
0.24379074062488048646
0.24390203973519661296
0.24363365494937821998
0.24247758145966305521
0.23997348883954566778
0.23770135172456680062
0.23592518109778193303
0.23465949062030611039
0.23381655037535400976
0.23326601339213917652
0.23289537764116979845
0.23261253929834940779
0.23238626811985471643
0.23217182517756826399
0.23191444577019110218
0.23161570451530588688
0.23131015205491692321
0.23102360397268462133
0.23074061221389793874
0.23043200346083389518
0.22986531744788654685
0.22867097410111938971
1.3451843888353727241
1.345742176511800503
1.3495769031915143543
1.3561561323666280199
1.3603404861165315776
1.361894928590988707
1.3621231929423902596
1.3613121885332031269
1.3574221311618053232
1.3502396208345515127
1.343514238246171999
1.3375784981041614063
1.332527351789848602
1.3284070713865478996
1.3250813743427052316
1.3223810342083937019
1.32006447572490071
1.3181142664722922397
1.3163817230540943992
1.3148844548718074954
1.3136699338575916762
1.3127709879624500644
1.3120534113039865609
1.3114064478653881807
1.3106808020598161857
1.3093074371402830813
1.3063461610771502919
1.3021136293617714408
1.296996756256433736
1.2916967847326357166
3.8654861676113974056
3.8591089361147994374
3.8517946761712518189
3.8429888975655241978
3.8325961089922637726
3.8209038278703895131
3.8084679105287748691
3.7960000631800969728
3.7841154005178618824
3.773256225196377045
3.763528008679434933
3.7547569689371051993
3.7466295454843625556
3.7388303604660255708
3.7310669354151779764
3.7231253051415560407
3.7149195566882657893
3.7065258753314211937
3.6980935414789408711
3.6897760743665366512
3.6816383597572088782
3.6736849624700433914
3.6658482592390053689
3.658074827188650513
3.6503109366246664358
3.6426521460632064198
3.6351002989788949726
3.6277965916437491245
3.6207645730878428303
3.6140162376822555501
3.6075082262309345893
3.6012669514217132694
6.3187706098127387477
6.3027346188534520977
6.2873008505011140912
6.2724926524044244402
6.2581209546426155299
6.2438726901308907458
6.229501168918562648
6.2151116837060547127
6.2010487468524990717
6.1875683691562697319
6.1747321344520296194
6.1624542628028242675
6.1505568029268493646
6.138816955492453431
6.126969666669412895
6.1148049665758952287
6.102352605041898137
6.0898629163112447671
6.0776427869985862884
6.0658843958158570331
6.0545771344259513569
6.0435980938816253882
6.0327313930801427233
6.0218223088629159179
6.0108576631633665599
5.9999746042249659794
5.9892417925786407551
5.978701243021096623
5.9681497258017222052
5.9574961288994936481
5.9466144891985104337
5.9358162688477555946
5.9251003727624178552
10.188174263432635769
10.101722410784876871
10.017554718572862171
9.9352508699144372883
9.8546989047524409244
9.7757679378121498104
8.0493175155620324546
8.0318188573139561726
8.0147729497272415244
7.9981505535690908815
7.9816355362157143105
7.9648502587333194214
7.947734428827855524
7.9306647738399460579
7.9142001911439718853
7.8987596802382622485
7.8843991471003862515
7.8708107964361939679
7.8575654596315622769
7.8442055313181775489
7.8303270371387103665
7.8157670094647722081
7.8007193297251529174
7.7856267751066559057
7.7709338595160772911
7.7568555341364966438
7.7433337324063957752
7.7301169783239283007
7.7169302347686663524
7.7036087096063701196
7.6901878763386317672
7.6768892207937131644
7.6638729646817864705
7.6510057369119222059
7.6379934800047024623
7.6245545427442937836
7.6108391342583781025
7.5971726223630433594
7.5841792060922790242
7.5719387034136058645
9.8515603523771595462
9.7840856292742888201
9.7200714731051078843
9.6578747112041209988
9.5953543132989604914
9.5310617937096200336
9.4653175323249083561
7.6426094355092848431
7.6300139115469951534
7.6192478400789500625
7.6097286818815232934
7.6009329649330332757
7.5929763467672604094
7.5867469026273655075
7.5832654003436594792
7.5828613906177206871
7.5847239657510865385
7.5872855189574535117
7.5889327566464048758
7.5885761607964585806
7.5857601576644091423
7.5808679545703725466
7.5750888798817079817
7.5699612115588115202
7.5667004787358091988
7.5656647857800791712
7.566348544221127348
7.5677539056519487204
7.5690281975095139444
7.5697229265070955506
7.5699144221005170152
7.5699522221812900469
7.5701266517511252019
7.5703052011689759837
7.5701388025575520047
7.5695160943621209171
7.5689348635156061817
7.5692731395836156949
7.5711008193779516517
7.5740998404973662872
7.5770707644880204157
7.5785787515213698384
1.0771529128862801218e-06
1.0856923641648871147e-06
1.0925281013982337015e-06
1.1014561856809739867e-06
1.1104474586590066524e-06
1.1165310422887054371e-06
1.1266301706282806588e-06
1.130206330643462007e-06
1.1377762537147485045e-06
1.1404479824396301207e-06
1.1496070721090281769e-06
6.2677846806979405992e-05
6.2613896244942998225e-05
6.2572338506332688584e-05
6.2544065781442335027e-05
6.251445843271707188e-05
6.245987319578727567e-05
6.233515079288240435e-05
6.2003988388434854275e-05
6.1036798056089653719e-05
5.8047166628628485885e-05
5.2407001036530909035e-05
4.6700964188793032776e-05
4.1200386876486404968e-05
3.6018422394469546246e-05
3.1230194193659258463e-05
2.688181566907454212e-05
2.2991650293458144481e-05
1.9561831893378061318e-05
1.6577938675005556457e-05
1.4014375233764106166e-05
1.1833662331238167591e-05
9.9967309481836456035e-06
8.4632444464184954748e-06
7.1981088947133796491e-06
6.165258680170348604e-06
5.3325436348391731938e-06
4.6673018019913117211e-06
4.1411523592161373196e-06
3.7266836439223107729e-06
3.4021903523589246592e-06
3.1472056503280923612e-06
2.9461237469073531309e-06
2.7828375480238127452e-06
2.6490136551972952009e-06
2.5380689392719843752e-06
2.4500017614999317401e-06
1.0902886794750976865e-06
1.093915535435811733e-06
1.0983315277609312499e-06
1.102914326200806885e-06
1.1080738311178282873e-06
1.1135211441293591383e-06
1.1185505057010833465e-06
1.1222135409619361612e-06
1.1248946877323064819e-06
1.1287602716632749538e-06
1.1325192273192032356e-06
1.1401585899854333964e-06
1.1465816457259091142e-06
1.154936016077403715e-06
1.1629116284723053115e-06
1.1680200380339284655e-06
1.1765891128036468453e-06
1.1794345779216928138e-06
1.1860062074356647482e-06
1.1882028092096730908e-06
1.1965833642100359132e-06
6.5191107572765480535e-05
6.5374699591437055563e-05
6.5482311225807896004e-05
6.5530484727003481134e-05
6.5543496747173918249e-05
6.554185848916253181e-05
6.5508038186902801275e-05
6.5334182723689431926e-05
6.4692165566205110942e-05
6.2548928409202365626e-05
5.6859746625295333759e-05
5.0303223442450437607e-05
4.4124561640568674137e-05
3.8379227463854771729e-05
3.3123285552996404072e-05
2.8390207389703752354e-05
2.4188722387854429412e-05
2.0511737044182624294e-05
1.7333990688130985672e-05
1.4618352077455492173e-05
1.23166428806645224e-05
1.0382325851998249893e-05
8.7699155441521509856e-06
7.4432677965361617156e-06
6.3663028135835780374e-06
5.5065125221436195474e-06
4.8276023813302897095e-06
4.2967192600772475712e-06
3.8812962463152958861e-06
3.5576698683734121563e-06
3.3054933213120992066e-06
3.1106741335028815598e-06
2.9567935627210354722e-06
2.833638763233950044e-06
2.7308435306627608311e-06
2.6458449830522280025e-06
1.1482214624237070597e-06
1.1513644864567642391e-06
1.1559854795535936045e-06
1.1615889664688884506e-06
1.1676650939872187666e-06
1.1739969250029401241e-06
1.1794987863059041858e-06
1.1838367723490245663e-06
1.1867904856368500996e-06
1.190223675151549722e-06
1.1934276098759535858e-06
1.1994179885309356401e-06
1.204236805090029272e-06
1.2113502985993222647e-06
1.2178359136651039839e-06
1.2217711051425077869e-06
1.2285280639946689019e-06
1.230524355887296293e-06
1.2360324485268086182e-06
1.2380085380735198095e-06
1.2456540412852815783e-06
6.7078881453891902285e-05
6.7240653398770337877e-05
6.7330983274953098115e-05
6.7367507180827643741e-05
6.7373788922724694821e-05
6.7360066546824358164e-05
6.7258383967834238135e-05
6.6832546177125309373e-05
6.5351793005914086531e-05
6.0703037671900529518e-05
5.3741140241146846809e-05
4.713657586536369932e-05
4.099298383889226152e-05
3.5372952145105760022e-05
3.03133779314379074e-05
2.5826637956745742444e-05
2.1899090002650526435e-05
1.8502547177782477833e-05
1.5593365880193978557e-05
1.312394502778910246e-05
1.1044035933202388635e-05
9.3120024430057416381e-06
7.8883610292947349839e-06
6.7382741572387943547e-06
5.8222896390264930062e-06
5.1012181615118201751e-06
4.5319122204874831713e-06
4.0806061996609826754e-06
3.7223473307833410249e-06
3.4442954352979407243e-06
3.2330998142413598939e-06
3.0773064547545823384e-06
2.9599011197759577352e-06
2.8702709283406117114e-06
1.2121854642092395981e-06
1.2165380742242673927e-06
1.2226147424668907645e-06
1.2291025198331788169e-06
1.2357720960892693189e-06
1.2418219388505268267e-06
1.2470030012243041345e-06
1.2504311322285125331e-06
1.2535117274975306599e-06