/*--------------------------------*- C++ -*----------------------------------*\
  =========                 |
  \\      /  F ield         | OpenFOAM: The Open Source CFD Toolbox
   \\    /   O peration     | Website:  https://openfoam.org
    \\  /    A nd           | Version:  12
     \\/     M anipulation  |
\*---------------------------------------------------------------------------*/
FoamFile
{
    format      ascii;
    class       volScalarField;
    location    "0.0055";
    object      k_0;
}
// * * * * * * * * * * * * * * * * * * * * * * * * * * * * * * * * * * * * * //

dimensions      [0 2 -2 0 0 0 0];

internalField   nonuniform List<scalar> 
106891
(
0.013559042885143994875
0.013552526955659829552
0.013540290483598456384
0.013533651988770429089
0.013521818817690166997
0.013515418425422653231
0.013504001251144440165
0.013497790920838650952
0.013486516586579698485
0.013480587691530801844
0.013466513856934455087
0.018694068411208845937
0.018825199115134610972
0.018938067295477936658
0.019031088493788095306
0.019103884280198664414
0.019158065750249510251
0.019195786182536825337
0.019219632002143893085
0.019232691217833788877
0.01923875072528451538
0.019240811474389191149
0.01924112700474150256
0.019240318957428181185
0.019237944445100289836
0.01923307727680136775
0.019221893952464923216
0.019190774744294373383
0.019146081062672400813
0.019100492716158535417
0.019058937816016897904
0.0190188427721432185
0.018984474020148890683
0.018951517254359315917
0.018923617188162485808
0.018897102851682744118
0.018874628527443156056
0.018852024510798762874
0.018832430358626393169
0.018812215467031715571
0.018794987875804341354
0.018776712904923435754
0.018759619996842811368
0.01874079109940419291
0.018724003807324238191
0.018706039895154343705
0.018690581949779332821
0.018674039718870726751
0.018659373940402027015
0.014337488924938645435
0.014324719898663823558
0.014317987061204313221
0.014304966006068151746
0.014297799697510821595
0.01428447320172093922
0.014277126476097960761
0.014263477632563427086
0.014255988532924096165
0.014242064776621127242
0.014234290595300165203
0.014220197368930445614
0.014212592982963376947
0.014198926623735723396
0.014191606123664176828
0.014178340619774774251
0.014171254069383052571
0.014158454297702734864
0.014151717812930699608
0.014135371790570238487
0.019840341956284781449
0.019959675312058958174
0.020057941993060508096
0.020135638270483681433
0.020194039989057034623
0.020235304477076849344
0.020261613639007254595
0.020276136764495255455
0.020282809602707237151
0.020284903007301551686
0.020284862810954314843
0.020283630585580320754
0.020280687131997755107
0.020273997197228769973
0.020255534922159722233
0.020211954685173109947
0.020161002772212440609
0.020113378674305730509
0.02006694484188197361
0.020026371654612361989
0.019987568254312526594
0.019954296918295651164
0.019923112349656858788
0.019896752897716672021
0.019871067414974311061
0.01984861639901448413
0.019825608413193709922
0.019805802965761842849
0.019785691409138092545
0.019767357686681932827
0.019747177013657125216
0.019728576604475779599
0.019708406899229979903
0.019690837598597348002
0.019672329085808116372
0.019656020765108351417
0.015065347787151749798
0.015051312469897335303
0.015044026702115052135
0.015029555891588965849
0.015021804982576313428
0.01500693083658176212
0.014998828862777414256
0.014983560507186688415
0.014975224953143106629
0.014959483386403606142
0.014950639712568741801
0.014934490091888007537
0.014925736881968510589
0.014910043048235439508
0.014901728679380148862
0.014886637810318233827
0.014878771729214762196
0.014864333416444637861
0.014856830946650322056
0.014838266370080434309
0.020823992122547128197
0.020946831843103738691
0.02105397491812872543
0.0211453246435067653
0.021220878269063554733
0.021281498877432660638
0.021328305286114412204
0.021361681929112256301
0.021383039245067635842
0.021394377799666273315
0.021399502161593857152
0.021401115367012328583
0.021401064623025035233
0.021400028277643909358
0.021395017042107521144
0.02137682749073185548
0.021324958632562857758
0.021263983944853070973
0.021204958262653644807
0.021152832601081389408
0.021103461379220513072
0.021061323897758114226
0.021022328895927176046
0.020989304876481807566
0.020957461431776805427
0.020929869252689803361
0.020902180339852572538
0.020878489632280217841
0.020854554588707392704
0.020832903061948727236
0.020809555676374075217
0.020788319036855462674
0.020765646390062147963
0.020746029004202682505
0.020725479981838532129
0.020707451275114231726
0.015814888916751430881
0.015806957690105857828
0.01579089722484858932
0.015782325951980050172
0.015765782294677354453
0.01575686517515673471
0.01573980575733118295
0.015730475670075939887
0.015712828470088282401
0.015702926262814075054
0.015684739540929450163
0.015674658522693927371
0.015656829932929317711
0.015647452221206070017
0.015630474138101771442
0.01562188530656064521
0.015605790663565330748
0.01559756156741539182
0.015576846009786041863
0.022228902077124908926
0.022364410706983302995
0.022472920742746493178
0.02255534640127639448
0.022612952562467508733
0.022649925820561033624
0.022669754647483140314
0.02267758933581384348
0.022678878459942038853
0.022677861805750796492
0.022675923147212277697
0.022672013045831492656
0.02266036198630669643
0.022623498283689730259
0.022552595333482014506
0.022482315034115702562
0.022412234743172630702
0.022348585969732735756
0.022287865049580173754
0.022235054448422931356
0.02218634213923836862
0.022144727579661314942
0.022105536084946419972
0.022071772565019426998
0.022038808069413138441
0.022010397158770754478
0.0219823627280193723
0.02195771139364679006
0.021932282893954210129
0.021909551572005563774
0.021885147395185558516
0.021863869699538202723
0.021841971228918552472
0.021823473936810812435
0.016635023198341786221
0.016617696010693912279
0.016608602386896875736
0.016590586560138110422
0.016580884755337015751
0.016562344590288980567
0.016552369180696278189
0.016533324654517147362
0.016522969950333976641
0.016503260689708382919
0.016492238274234270051
0.016472014793235137398
0.0164608306846491248
0.016441065386872254217
0.016430724574166739177
0.016411811384596224767
0.016402412703242368747
0.016384506311900366715
0.016375450020978843391
0.016352523711172600729
0.02327820583646224295
0.023420761425430296904
0.023541272402990136292
0.02363841449348710877
0.023712922532915004653
0.023765951918466095283
0.023799015534680837552
0.023817253637902137398
0.023824725928632609767
0.023826759476488910267
0.023827200749986798128
0.023827174805250577599
0.023825288420701251635
0.023813708270051650584
0.0237717518352804566
0.023698904431181670033
0.023629862725011586966
0.023562168351837924768
0.023501802353718143773
0.023445423092981466234
0.02339642521284188495
0.023349676332526655281
0.023308344429503764089
0.023267818397067142194
0.023232522100013173333
0.023198089706701195689
0.023168191429267525477
0.023138088614000518195
0.023111869256609008511
0.023084209896599663936
0.023060274997634043481
0.023035591773780179914
0.023015322889936393191
0.017461436187374397566
0.017451028310424533674
0.017430697116689871512
0.017419554087504326989
0.017398703466692515968
0.017387433262102063025
0.017366193856642613003
0.017354647468464347998
0.017332963726058747689
0.017320938757587382717
0.017298858929005553331
0.017286694126050043685
0.017265060633427073422
0.01725368885717557671
0.017232887933970177791
0.017222546805313720258
0.017202751070251345172
0.017192845650321978562
0.017167776366980067038
0.024563080550371631239
0.024692327855061778352
0.024798752775261737047
0.02488164897687898322
0.024942737047853821147
0.024982317152366161767
0.025005533160159437722
0.025016526431740845199
0.025021043340289567114
0.02502346917715899538
0.025024844622882298772
0.02502502174385230066
0.02502051878464831014
0.02499810058170189031
0.024935988188962022322
0.024868430337912725975
0.024802434508583926648
0.024744004026343364988
0.024688955371392404953
0.024640684399397091292
0.024593253621085286315
0.024550401327506399946
0.024507523114237643458
0.024470015919070265548
0.024433274248103237225
0.024401639848753604867
0.024370145354378567465
0.024343149645530151592
0.024315225251644298488
0.024291379601067891736
0.024266852977684987003
0.024246445623225018617
0.018348617317950916689
0.018336528628042945283
0.018313621673328325801
0.01830102214642054595
0.018277695234830915183
0.018265030551927463609
0.018241444901351884511
0.018228675945758505972
0.01820506997908606997
0.018192217694082659513
0.018168597313969081508
0.018155847522390522464
0.018132484878090212449
0.018120147025450977774
0.01809749117288917894
0.0180860372505696268
0.018064027663074907343
0.018053194390505410832
0.018026358595644519089
0.025960580539751924173
0.026084145649787903593
0.026186420001118888151
0.026266600293538243382
0.026326431090640270427
0.026366235871507021082
0.026391322135784045511
0.026404481829223690192
0.026411294259893618869
0.026415616292193831033
0.02641735582953376113
0.026416335049066031609
0.026406048135814680355
0.026364889459720108195
0.026285354529841434973
0.026211840305377567123
0.026142138016307926024
0.026080916103459101524
0.026022252451170676396
0.025969611248776055396
0.025917080410132634777
0.025870027760433466496
0.025823580563197064131
0.025783610865708052329
0.025744662542693350082
0.025711899536566371061
0.025678684511399808149
0.025650713846653634687
0.025622027158733420849
0.025598551520936336373
0.019269798062695457641
0.019244757483356977196
0.019230810678508250544
0.019205560636148005793
0.019191785384626718763
0.01916627275630294891
0.019152439247495427199
0.019127170703413045455
0.019113665500829202931
0.01908893874044708186
0.019075750819208019821
0.019050856468372828062
0.019037474635381631399
0.019012870859293189846
0.01900018381530063985
0.018976179516931417079
0.018964432627861169123
0.01893620183527675721
0.027403268982538829535
0.027522742085734765854
0.027616995225859572449
0.02768843287695961497
0.027738106048606062104
0.027769597830394048693
0.027786545267874204757
0.027794592324071464018
0.027798894011005763349
0.027801676603352566686
0.027801369720496228038
0.027795654452986203603
0.027765069345136225015
0.027695227572213865913
0.027624267497981143393
0.027560585100007084502
0.027498886008318245561
0.027443211341119742169
0.027388654780249842291
0.027339740518647782236
0.027290954321228241136
0.027247375120113385277
0.027204454955393770482
0.027167418642885170915
0.027130458000491287224
0.027098483709242063983
0.027066359309729906557
0.02703973193349139964
0.020300833232904470782
0.020275781798298680297
0.020261406055104045493
0.020236272737766285157
0.020222224434527719811
0.020196930714514879646
0.020182775751019246813
0.020157649013688810208
0.020144054207782247784
0.020119363572197099949
0.020106036212842164773
0.020081074854200818558
0.02006741188489318678
0.02004189546664250296
0.020028293575556306572
0.02000322687449048592
0.019990957418385631866
0.019964192345203930073
0.028860429138618658162
0.028947607423933499615
0.029014245057349147272
0.029061942514039505736
0.029093015664358581884
0.0291105926650146625
0.029118587003016165038
0.029122837121544647987
0.029126295488032930003
0.029127818601376594121
0.029124743785873190988
0.029102527760350785369
0.029044454362100183969
0.028980640043441165815
0.028921431857284352063
0.028861725027107175412
0.028807797606582859901
0.028756100469014167498
0.028712056777977543187
0.028668991795786791937
0.028631334862514991324
0.028592917574433426853
0.02855891858665584801
0.028523987628060437638
0.028493951532031613211
0.028463465359765977719
0.028438008201655182866
0.021167953866202644103
0.021140620637246577279
0.021117019083182798217
0.021089833320802331418
0.021065836895853420202
0.021037803500104777787
0.021014772827326631821
0.020985703669917893377
0.020964306670565105439
0.020935229820635212206
0.020913688255487117296
0.020884845668334036523
0.020861718507531882422
0.020832613251652983
0.020809442835627516011
0.020780178619871067514
0.02075751876663153167
0.029325291673249428287
0.029406643495329922583
0.029467722168164584701
0.029511150515864829902
0.029540920859136021032
0.029559727860983032316
0.029569510323067798446
0.029574226444237579348
0.029576890648040570636
0.02957885135989257383
0.029577829947433433716
0.029569126628027471437
0.02953154803381597901
0.029470413326166889495
0.029413519597854029253
0.029354276890218748003
0.029298791573742256206
0.029244719997096664532
0.029199664198978941138
0.029158290487835497595
0.029125667414691053247
0.02909350610268360629
0.029065467938114396274
0.029034918167624108876
0.029008337319751584943
0.02898011647379111419
0.028956814685455561226
0.021165413084789821974
0.021142203225908932224
0.021099328229802271489
0.021076335772922043937
0.021032569004518403971
0.021009398847091870915
0.020964892630999033135
0.020942038183509738281
0.020898157467207145038
0.020875655782710264563
0.020830986566153394252
0.020808161811505170719
0.020762043654377410756
0.020738569409901919799
0.020679980319518734971
0.020687140466271132511
0.023875537915393176686
0.023933550769139028125
0.023974704538972435586
0.024002319430898245295
0.024020669271095002051
0.024032474273019396871
0.024039540552528354533
0.02404356304806087169
0.024046172868432170999
0.024047265632708873101
0.024045242359057444892
0.024032848632814692025
0.023993314092103180946
0.023947882385931682642
0.023902704630802157348
0.023860624962400944077
0.023818754400069534066
0.023782071630212484742
0.023748779814517697456
0.023723123031905973129
0.023700112803417171942
0.0236834329916304695
0.023667234183739536274
0.023654567106149815975
0.023641471389330398489
0.023632194161807146271
0.023622342853178317224
0.023615026101600204711
0.016882565442110971515
0.016847221598690256122
0.016827191674869634158
0.016791107278100771139
0.016771088406353090033
0.016734292966604384645
0.016714588912293854017
0.016678103313216504494
0.016658755003488762148
0.01662236344355911416
0.016603765503120478803
0.016567059362254846211
0.01654869859886111752
0.016502861189259622476
0.016517329157210283719
0.022420808032300943574
0.022455123434324666953
0.022475467622871021095
0.022486084973060916498
0.022491603678770195202
0.022494814181680675841
0.022495716849962179434
0.022494157527262609308
0.022485844497225904171
0.022454079606109920986
0.022390452795538518665
0.022325919923435494363
0.022265732895075100728
0.022207055167366020199
0.022154414214043821607
0.022104083973932139862
0.022059945687013738508
0.022019122327445534576
0.021985436725702044158
0.021954518424798261794
0.02192986445778626059
0.021906489373138292309
0.021886824332758018224
0.021866831887008050112
0.021849873481709990164
0.021832292179424155759
0.021817195288667375758
0.015905494683616492463
0.015890291306503892543
0.015861600360610034893
0.015846436450868448681
0.015817250312744883523
0.015802351913704004022
0.015773270910727926059
0.015758506651507239033
0.015729431203593515626
0.015714691468296123483
0.015685179214274411197
0.015670227448679779209
0.01563418633844045405
0.015630530092592503227
0.02150959378807865835
0.021535125696363746628
0.021551152616060775813
0.021560472299363850346
0.021566286421500064502
0.021570184875632586463
0.021572175971154627927
0.021571893176755188581
0.021566441330168609897
0.021542883299880240949
0.021486770809355858897
0.021430233974827638671
0.021374852979041038953
0.021325780988793233833
0.021278988995561361197
0.0212381514670739735
0.021199064753495169139
0.021165842387437072691
0.021133961955675354544
0.02110866488506689051
0.021084496868296737776
0.021065089634893379572
0.021044620717894282208
0.021027700760108517658
0.021009130333238770771
0.020994020059330830569
0.015325208579454100907
0.015298114510357726376
0.015283915874718318959
0.015256272169129678554
0.015242146049524766052
0.015214427340033675681
0.015200375734721783758
0.015172664959766143933
0.015158561337851334666
0.015130440091279145909
0.015116184929020320266
0.015082963703430872157
0.015077362981526724883
0.020755289497525378217
0.020771699455459528838
0.020780993839692129405
0.020786582299888410608
0.020789990543596342798
0.02079161374587755462
0.02079058805081141631
0.020781531559292392569
0.020748245126298227314
0.020687599413343821936
0.020630116987322841965
0.020575082835765885064
0.020527188932178412617
0.020482676818135266139
0.020444135533811542277
0.020407583502709311651
0.020375648213424874672
0.02034486717000098463
0.020319513725145454952
0.020295976771242570103
0.020276313745644636982
0.020256526018429213409
0.020239093233323252746
0.020221226786976322781
0.020205753458487688695
0.014716034931855607668
0.01470248726413506124
0.014676090828307000388
0.014662503200308450724
0.014635712502855623834
0.014621993983787112334
0.01459511674751192041
0.014581434331490771353
0.014554302299073689289
0.014540525837848504442
0.014508456211151070023
0.014503152040781385271
0.020077066295694060566
0.020081030287222006309
0.020083760014341249522
0.020085514940162727676
0.020085271517841826738
0.02007978323568612028
0.020058250561522959765
0.020003962528317969366
0.01994072332795110078
0.019881357834651131739
0.019824572248950258352
0.019775396949276317915
0.019730245113073911767
0.019691986638432107393
0.019656148886904888096
0.019625327677646693669
0.019595170139420737404
0.019570350797218430405
0.01954665276202984317
0.019527112907118199248
0.019506659821456745485
0.019488958777289362018
0.019470263953437032256
0.01945493069808587952
0.019290354648323796566
0.019294099305844386594
0.01929646697587409504
0.019297139602701404021
0.019294665347026753593
0.019283031566530408479
0.019245887432851740279
0.019183948503317612561
0.019125748277873184239
0.01907068386422755904
0.019023359792003282503
0.018980459654879457826
0.018944944717810014573
0.018912676316532130161
0.018885650559806965026
0.018859139196264387145
0.018836894380690687167
0.018814935213937542674
0.018796259417578679157
0.018776528818145836464
0.018759193064786031102
0.01874086664336682001
0.018725607424818511981
0.018635685765380795992
0.018636143733408949003
0.018633766135440928829
0.018624073942765679429
0.018594247561812337483
0.018528908517987923571
0.018463764733767127485
0.018401637683463905465
0.018347533407172808562
0.018298916468098017085
0.018259014001870872007
0.018223767794704005818
0.018194708339348750897
0.018166824373376289775
0.018143254775374168669
0.018119870191432362744
0.018099570054832897492
0.018078385861269589269
0.018059875468085274941
0.018040746731066516217
0.018024674048176647645
0.017827907187736993094
0.017786890421780457427
0.01773066854333444145
0.017676487712536406022
0.017629153377532603975
0.017586413899328745547
0.017551631795744773723
0.017521042525454950944
0.017496118916758778006
0.017471934090980863197
0.017451303366876304984
0.017430257898321262211
0.017411642279643198966
0.017391801565373447847
0.017374272785313980144
0.017355905068270050667
0.017340207271348311718
0.016986605785426756726
0.016944263323696008572
0.016909911896918039531
0.016879847376592316266
0.016855557975883537353
0.016832236083558403672
0.016812363050232669026
0.016791962492340155311
0.016773762903789665724
0.016754322855254282637
0.016737081086989208378
0.016718883833985471316
0.016703001012449154861
0.016285525057773669877
0.016258429585000747086
0.016234082273294626886
0.016214194482177705231
0.016194515273745810346
0.01617778273992822799
0.016160312471194905604
0.016144649651974655319
0.016127412338038434741
0.016112016547662904448
0.016095585029173551522
0.016081196794653682125
0.0083242848351654363109
0.0083992371296861597502
0.0087031097760063205054
0.0092783486705321459309
0.0097268967036563819262
0.010023206531118209958
0.010184571199996368326
0.010249245484594248987
0.010260208461390606105
0.010252985384482587311
0.010207286847038751082
0.010041576749215243639
0.0098026644738222583342
0.0096125498923072070362
0.0094750306032866955103
0.0093893584667641364488
0.0093453214640913159078
0.0093309352148760616591
0.0093314282279354805044
0.0093471202039090220404
0.01625709297080929136
0.016251528618640785628
0.016303630086882937855
0.016551956118419166447
0.017019470985395697415
0.017339360916063327467
0.017500625362190068424
0.017551217292269830766
0.017553174896059019899
0.017535283623771151518
0.017455835160190332628
0.01728980134023663795
0.017162845647310104313
0.01708008848758510792
0.017029393747560066241
0.017000031447995691408
0.016982573410919365314
0.0169689166773034604
0.016960972274942490157
0.016960955930621784277
0.016967142644230218812
0.016997287751691757263
0.047056932769202593214
0.046565847175294952653
0.046512688302487115166
0.046572101114547050094
0.046830926415560504561
0.047458980904847639093
0.04791686299858386594
0.048116810015271190004
0.048137290759023620978
0.048103929854605154137
0.047980702261989513491
0.047615248651523285617
0.046932353477025935684
0.046321461018878393179
0.045828813100044045459
0.04544959433157867712
0.045169023435740474071
0.044955115876025665556
0.044769220363223970194
0.044601202523403875311
0.044475769813279587839
0.044389591142810470858
0.044336198148996669444
0.044321478513732193161
0.04432713760761516214
0.044342354857343641017
0.23296896882993817224
0.23306796187725320468
0.23397429125401106309
0.23711837574905023085
0.24074673120233500145
0.24295706779159209621
0.24378367410827614381
0.24389129393955680247
0.24361870239816896255
0.2424553528847116779
0.23994897728496905609
0.23767877595842110128
0.23590500807782416315
0.23464137150046965319
0.23379971029052451503
0.23324988761874723697
0.23287982650630831283
0.23259773528694493994
0.23237236982795644868
0.23215866335681564769
0.23190166113691743077
0.23160296850070721808
0.23129716988756593432
0.23101036398472907241
0.23072751000192917581
0.23041938061531114235
0.22985264538275332336
0.22865669562345275478
1.3451414559084393652
1.3457072140383077308
1.3495664967561573633
1.3561462921761433531
1.360324317440839037
1.3618718791174859728
1.36209576658661069
1.361275543338447358
1.3573631817880493777
1.3501756007587073505
1.3434499327317355188
1.3375164144817610623
1.3324687162783306338
1.3283514298786278651
1.3250272160473193228
1.3223273047943435721
1.3200117068968701961
1.3180639555325284196
1.316335069138350633
1.3148419644177080645
1.3136309475577234718
1.3127338945550739435
1.3120163849756247831
1.3113682313702281768
1.3106405192131391768
1.3092640902396908142
1.3062986707218842142
1.3020650677593996747
1.296947443599187233
1.2916455041754997257
3.8654667497976538115
3.8590894940341868846
3.8517763152711745889
3.8429714535821895005
3.8325762182390055166
3.8208783167263820069
3.8084371714450835356
3.7959668170152016664
3.7840841601002410677
3.7732303210819666539
3.7635076004305783037
3.7547404737801914898
3.7466145548438003487
3.7388133267635517143
3.73104357778970952
3.7230931895940497789
3.7148806794747808446
3.706485787747957783
3.6980579787577156914
3.6897480476529884719
3.6816170704038357897
3.673666923997616518
3.6658295082363121509
3.6580530053115074551
3.65028639356081408
3.6426273593806497431
3.6350778018460081498
3.6277770417028283312
3.620745905985220503
3.6139958496891768647
3.6074842302571470398
3.6012398719839699979
6.3188002612993541263
6.3027701532954161223
6.2873466365157879565
6.2725465834414206867
6.2581751893580817026
6.2439170490033522043
6.2295343279152559646
6.2151427742050309178
6.2010875978583968049
6.1876199556405113711
6.1747957123574321869
6.1625250699710498736
6.150628224406593958
6.1388812791695652749
6.1270196651603336946
6.1148385464769363651
6.10237576957636918
6.0898863673659917595
6.0776755319625355156
6.0659296891885059466
6.0546319208953223168
6.0436557093880240998
6.0327855583247860238
6.0218701912925141073
6.0109015086973931474
6.0000189514303707838
5.989288880184067132
5.9787482230735431443
5.9681904769321203474
5.9575268938770546967
5.9466378569314448654
5.9358396912531414813
5.9251313006990491417
10.188261471343723841
10.101813344650850013
10.017651670268561404
9.9353417795960208281
9.8547677033474645469
9.7758098993058855086
8.0494172074078278456
8.0319275987005429585
8.0148923641659504113
7.9982725027618686298
7.9817453309484527324
7.9649374952251843496
7.9478038119769056635
7.9307330604915193817
7.9142861826379844459
7.8988747032651112079
7.8845402087029743399
7.8709661557011658672
7.8577201157325626824
7.8443441834003158064
7.8304388170623981935
7.8158519933299244187
7.800789319154324275
7.7856982351074384141
7.771018278958647052
7.7569548865200710352
7.7434417617604944795
7.7302240151548149427
7.7170287476061307785
7.7036968589348600034
7.6902711448340159706
7.6769742725719964938
7.6639599312137995923
7.6510854027230505991
7.6380547187096468065
7.6245944541723273957
7.610870124902661793
7.5972127016795214516
7.5842452416807502047
7.5720362698565502058
9.8521328560047631839
9.7846343164041478246
9.7206045890720016445
9.6583769643238870373
9.5958077244322712573
9.5314736684831569136
9.4657226700880592318
7.6425614267493493514
7.6299662400661096839
7.6191874868826374723
7.6096388091810887033
7.6008079009065978582
7.5928393589548006659
7.5866375180150802393
7.5832142259963442044
7.5828649031595407592
7.5847441581377239572
7.5872692617804977644
7.588837774800566649
7.5883802116621676959
7.5854662182121543879
7.5805092238388143144
7.5747156143333533862
7.5696224881802125495
7.5664223009514666174
7.5654415855633461163
7.5661538323634180969
7.5675559378675405497
7.5688069839051825838
7.5694757380192605467
7.5696532674774701377
7.5696926370655814864
7.5698745955008996944
7.570055137036600712
7.569885973149798275
7.5692739518459708492
7.5687356926485245268
7.5691500000442069052
7.5710642849505047636
7.5741241670700256705
7.5771060008715362954
7.5785703897580569688
1.0771231488562098449e-06
1.0856663652116698303e-06
1.0924873038415506535e-06
1.1013979532634224176e-06
1.1103503535033241263e-06
1.1164099168902765093e-06
1.1264770263971019871e-06
1.1300410201725968534e-06
1.1376050809822597725e-06
1.140292524155348277e-06
1.1494711553366983921e-06
6.2677382714095084947e-05
6.2613583037578996013e-05
6.2572105806102780922e-05
6.2543914770159985198e-05
6.2514337146935537205e-05
6.2459626582165838076e-05
6.2334391844570520244e-05
6.2001713027352213666e-05
6.1030003331481510738e-05
5.8026840880838744603e-05
5.2383233140616211078e-05
4.6677500706500126926e-05
4.1178015467314533582e-05
3.5997514985135462722e-05
3.1210982753172678103e-05
2.6864420190298831103e-05
2.2976126306212537134e-05
1.9548213444398765691e-05
1.6566198098421351008e-05
1.4004358068862932658e-05
1.1825130589490550213e-05
9.9894842045639228883e-06
8.4571595276701118376e-06
7.1930857559602548866e-06
6.1611849771038941094e-06
5.3292942564296865509e-06
4.664736318067370695e-06
4.1391270755499928499e-06
3.7250778903779945645e-06
3.4009145971634034858e-06
3.1461842744401089675e-06
2.9452854179560011186e-06
2.7821327141751912852e-06
2.6484234612070065961e-06
2.5375905082257981688e-06
2.4496254083750641419e-06
1.0902305732979038199e-06
1.0938760486983129764e-06
1.0983066470658511e-06
1.1028997620739815976e-06
1.1080647287018902342e-06
1.1135097417618909787e-06
1.1185292540089480476e-06
1.1221807579472922142e-06
1.1248584347161470994e-06
1.1287230732764794305e-06
1.1324862736344287674e-06
1.1401213275043393687e-06
1.1465254159522932298e-06
1.1548572396055804313e-06
1.162794233164369762e-06
1.1678837649162103878e-06
1.1764321209238536682e-06
1.1792763672990477471e-06
1.1858539181964071072e-06
1.18807041453479727e-06
1.1964815952651519576e-06
6.5191973951115483096e-05
6.5375288802242852485e-05
6.54825682161936821e-05
6.5530538131769401535e-05
6.5543526752707024162e-05
6.5541918709020454228e-05
6.5507807783389529932e-05
6.5332812188152551897e-05
6.4687381348409826449e-05
6.2533523099412763649e-05
5.6831170877850835182e-05
5.0276566168433483488e-05
4.4099600042673750685e-05
3.835617475497449209e-05
3.3102308622774460846e-05
2.837138226134911721e-05
2.4172073912013782504e-05
2.0497256131292414868e-05
1.7321583372761744908e-05
1.4607796231668063056e-05
1.2307666168126152862e-05
1.0374719613854849215e-05
8.763544663481685564e-06
7.4380125328189774326e-06
6.3620444055450244773e-06
5.5031369678791310876e-06
4.8249733937827100184e-06
4.2946731227580210651e-06
3.8796850036398734769e-06
3.5563929897949444785e-06
3.3044820381831045301e-06
3.1098675397678668724e-06
2.956141592018945643e-06
2.8331060746147204384e-06
2.7304039559225156444e-06
2.6454755790279655862e-06
1.1481607096177131333e-06
1.1513288663749171007e-06
1.1559701153287698441e-06
1.1615877822964146951e-06
1.1676701695203873476e-06
1.1739992753392194582e-06
1.1794913568817287711e-06
1.1838170182464850038e-06
1.1867622013427245759e-06
1.1901879456780137187e-06
1.1933863576664112588e-06
1.1993612596300871384e-06
1.2041576339808918873e-06
1.2112488590885708872e-06
1.2177019296415932729e-06
1.2216270791574860364e-06
1.2283759517238712548e-06
1.2303803818769757628e-06
1.2359062850982737461e-06
1.2379023973468599393e-06
1.2455852331955408292e-06
6.7079674265434595794e-05
6.7241062929340668537e-05
6.7331089215671237379e-05
6.7367519829488665853e-05
6.7373842086881582415e-05
6.7360012338162222217e-05
6.7257576220752072235e-05
6.6829328068730947492e-05
6.5341106335317229964e-05
6.0675251397580247782e-05
5.3712817084873736343e-05
4.7109950866826837839e-05
4.096838448026684273e-05
3.5350565934594785974e-05
3.0293300779320157806e-05
2.5808895733406166708e-05
2.1883660076484858414e-05
1.8489307384959735602e-05
1.5582066869152163809e-05
1.3114314192981406019e-05
1.1035892091247224227e-05
9.3052147299721183621e-06
7.8827719638685206751e-06
6.7337244255631943101e-06
5.8186569650685033005e-06
5.0983728092985749954e-06
4.5296845008867275698e-06
4.0788364692434659261e-06
3.7209373330652380862e-06
3.4431942279721247225e-06
3.232263837749365769e-06
3.0766786297475561228e-06
2.9594208589878293598e-06
2.8698834940761477215e-06
1.2121523004221940337e-06
1.2165285457822446854e-06
1.2226205749116639332e-06
1.2291140051119355053e-06
1.2357822118242990516e-06
1.2418254178172208764e-06
1.24699454979700899e-06
1.2504089807773194793e-06
1.2534741355579827736e-06