/*--------------------------------*- C++ -*----------------------------------*\
  =========                 |
  \\      /  F ield         | OpenFOAM: The Open Source CFD Toolbox
   \\    /   O peration     | Website:  https://openfoam.org
    \\  /    A nd           | Version:  12
     \\/     M anipulation  |
\*---------------------------------------------------------------------------*/
FoamFile
{
    format      ascii;
    class       volScalarField;
    location    "0.0055";
    object      nut;
}
// * * * * * * * * * * * * * * * * * * * * * * * * * * * * * * * * * * * * * //

dimensions      [0 2 -1 0 0 0 0];

internalField   nonuniform List<scalar> 
106891
(
6.6935144465697698891e-06
6.6872613274089656293e-06
6.679601992813904632e-06
6.6733280976927406881e-06
6.6657786968865059509e-06
6.65957314226023894e-06
6.6521371110695319391e-06
6.6459887587471496215e-06
6.638599464945422622e-06
6.6325313443008125395e-06
6.6244643345472606415e-06
9.9386370714812268651e-06
9.9665271240824331663e-06
9.9894386548937945148e-06
1.0007006810360221091e-05
1.0019181188493101589e-05
1.0026425264160739327e-05
1.0029333861676192926e-05
1.0028604248626926519e-05
1.0025055016710769312e-05
1.0019680504803942238e-05
1.0013266534655693561e-05
1.0006401242947871036e-05
9.9992488192169142039e-06
9.9916935732902001203e-06
9.9834961771219085858e-06
9.9736726736695136691e-06
9.9587023827939845475e-06
9.9401966886410548444e-06
9.9214630894985839668e-06
9.9037834794873825931e-06
9.8864884637970506896e-06
9.8706872798607933308e-06
9.8552602666060537399e-06
9.8411570741327070204e-06
9.8274260354201306957e-06
9.8147586560724234175e-06
9.8020699083637695572e-06
9.7901744245072044518e-06
9.7781274760485753934e-06
9.7668669024694240038e-06
9.7553447385890181194e-06
9.7441383330000690821e-06
9.732486851690836093e-06
9.721369462179907446e-06
9.7099506979010452519e-06
9.6991888472036827493e-06
9.6881559801563621047e-06
9.6776225236126224674e-06
7.1062373592321703873e-06
7.0981408866624324291e-06
7.0915460286612857038e-06
7.0834001995655734285e-06
7.0767099328587461116e-06
7.0685013549771861244e-06
7.0617785581364809621e-06
7.0535033223040275246e-06
7.0467573270223243166e-06
7.0384270934879156984e-06
7.0316220212413551441e-06
7.0232614245041091069e-06
7.0165082523590457716e-06
7.0082642184342423439e-06
7.0015914026481444835e-06
6.9934578463179065179e-06
6.9868534948224512448e-06
6.9788473136014094801e-06
6.9723419783631515641e-06
6.9634753627141348536e-06
1.0497787813504366871e-05
1.0522019190822227332e-05
1.0540581412345281385e-05
1.0553656836694462809e-05
1.0561623623060009379e-05
1.056508022084543174e-05
1.0564619641006246049e-05
1.0561081689175429366e-05
1.0555498621924075639e-05
1.0548724065106972485e-05
1.0541394868917628068e-05
1.0533759949359924768e-05
1.0525684281834674652e-05
1.0516645587385937553e-05
1.0504576973138076096e-05
1.0486006543808983142e-05
1.0465510567463692841e-05
1.0445886466201331308e-05
1.0426577998800060166e-05
1.0408797860098700989e-05
1.0391482727239855245e-05
1.0375611092632447554e-05
1.0360290949034918752e-05
1.0346237901945295852e-05
1.0332374453404905395e-05
1.0319366164996278789e-05
1.0306225849805992253e-05
1.0293929077110197448e-05
1.0281563521441378783e-05
1.026966969808857264e-05
1.0257303877497397665e-05
1.0245354244922799856e-05
1.0233001397338918202e-05
1.0221328813205637673e-05
1.0209420589846865309e-05
1.0198094117885124415e-05
7.4738065894269507632e-06
7.4651392814325631905e-06
7.4581524277580296103e-06
7.4493909808224470598e-06
7.4423010837809632081e-06
7.4334530199332431142e-06
7.4262885876922983959e-06
7.4173563940815670717e-06
7.4101466449732872379e-06
7.4011108886089047376e-06
7.3937874216482023891e-06
7.3846629125721393436e-06
7.3773722771473396862e-06
7.3683720074173376176e-06
7.361200602769555048e-06
7.3523617467771316012e-06
7.3453128872508221831e-06
7.3366489350369521721e-06
7.3297036850718834728e-06
7.3200367729934021364e-06
1.1034545587912045545e-05
1.1059372760536893336e-05
1.1079932711075776594e-05
1.1096241608724309634e-05
1.110833753198610972e-05
1.1116480355942356544e-05
1.1120988885601477392e-05
1.1121981426331636005e-05
1.1119835244254598812e-05
1.1115075645584751053e-05
1.1108695506145322527e-05
1.1101402024774796134e-05
1.1093678839150087652e-05
1.1085707323742865682e-05
1.1076719725772217546e-05
1.1064348096102419913e-05
1.1043283052416245265e-05
1.1019827935386013393e-05
1.0996882300310464964e-05
1.0975729176645175429e-05
1.0955293808403021181e-05
1.0936740514732561571e-05
1.0919011998308154491e-05
1.0902846679622864469e-05
1.0887002832487339786e-05
1.087227841360181819e-05
1.0857542855447913503e-05
1.0843858174346163471e-05
1.0830121901345305272e-05
1.081698862778836266e-05
1.0803422715094029236e-05
1.0790410401871737502e-05
1.0777030336648912195e-05
1.0764449464062252347e-05
1.0751636574756456759e-05
1.0739489519517711659e-05
7.8511463133668532138e-06
7.8437306792356809628e-06
7.8343056618598618917e-06
7.826744051052052486e-06
7.8172120731499328256e-06
7.8095773903450127024e-06
7.7999316236613630099e-06
7.792207810776115824e-06
7.7824307222569208409e-06
7.7745779225751881239e-06
7.7646802066125140311e-06
7.7567942523244474029e-06
7.7469970373205620059e-06
7.7392963532703673736e-06
7.729722740443637516e-06
7.7222299841361036611e-06
7.7128900541307683457e-06
7.7055013644109469646e-06
7.695036699587750497e-06
1.1689021726457493987e-05
1.1716477509092358794e-05
1.173673233029137676e-05
1.1750093527199967832e-05
1.1756944083092325711e-05
1.1758409349505516753e-05
1.1755414948324285446e-05
1.1749303167134380558e-05
1.1741487379304073186e-05
1.1733071616603111073e-05
1.1724417690507364623e-05
1.1715263862886363095e-05
1.1704133608702901222e-05
1.1686536669510964761e-05
1.1660123828133566937e-05
1.1633863811774481847e-05
1.1607654394333139118e-05
1.1583111411286845272e-05
1.1559329615421227769e-05
1.1537602698528442384e-05
1.1516945576386414688e-05
1.1498140038786811284e-05
1.147997566157978802e-05
1.1463234616875379746e-05
1.1446715245956330857e-05
1.1431391926988965259e-05
1.1416179759423243745e-05
1.1401858463885161118e-05
1.138734605419409569e-05
1.1373542302189180533e-05
1.1359310282334682677e-05
1.134589512310330696e-05
1.1332326911599794838e-05
1.1319652506315741375e-05
8.2672752847616310051e-06
8.257236823329127957e-06
8.2492512235944042423e-06
8.2390563110796584113e-06
8.2309317859012979434e-06
8.2206196311879721418e-06
8.2124396242043959154e-06
8.2020167606130377794e-06
8.1937567195360935324e-06
8.1831845611009342061e-06
8.174772883195721422e-06
8.1640872808091704925e-06
8.1556474779038430856e-06
8.1450878520674946918e-06
8.1368688417775659956e-06
8.1265340988721744271e-06
8.1185619653352324138e-06
8.1084930117941676222e-06
8.1006220456795468188e-06
8.0893296208915590074e-06
1.2272775098374118918e-05
1.2301768162485275364e-05
1.2324832798890396696e-05
1.2341683552300676771e-05
1.2352564597475991344e-05
1.2357816688380228061e-05
1.2357857031321401112e-05
1.2354032210460038374e-05
1.2347401075482425414e-05
1.2339349648203361875e-05
1.2330884217448545231e-05
1.232230621495601522e-05
1.2313264761887693797e-05
1.2301748612100702946e-05
1.2282430563935933646e-05
1.2255093763141118357e-05
1.2228734226888725366e-05
1.2202723342735399343e-05
1.2178613699648802244e-05
1.2155545474174556887e-05
1.2134401842417227185e-05
1.2113852940994986033e-05
1.2094720503761465628e-05
1.2075807855679755669e-05
1.2058262831051321494e-05
1.2040953513188899177e-05
1.2024833523700466812e-05
1.2008673504669126729e-05
1.1993533737476301355e-05
1.1978030188143349476e-05
1.1963500442765846122e-05
1.1948784107683150605e-05
1.1935222762637902073e-05
8.6843810125456496958e-06
8.6757706822554475244e-06
8.6647006501376079671e-06
8.6559200179430861432e-06
8.6447335320683509925e-06
8.6359339637418749074e-06
8.6246660507422702924e-06
8.6158128694006268309e-06
8.6044513240503988673e-06
8.5954946704400925401e-06
8.584050326511693575e-06
8.5750722673613355207e-06
8.5637522559240284391e-06
8.5549837605860407086e-06
8.5438847882943303271e-06
8.5353860987919324157e-06
8.5245535151138841318e-06
8.5161798266135789871e-06
8.5040602668133465487e-06
1.2925800017672436944e-05
1.2950788267952157841e-05
1.2969684339244191699e-05
1.2982355838922132258e-05
1.2989294321522498551e-05
1.2990605125610716299e-05
1.29876404815959357e-05
1.2981483386249408651e-05
1.2973633160262452925e-05
1.2965239327808995252e-05
1.2956583043941129169e-05
1.294763126672619697e-05
1.2937492479795015534e-05
1.2922758120132768055e-05
1.2897773594940058472e-05
1.2871340814390089106e-05
1.2845318888365606926e-05
1.2821264252517083004e-05
1.2798099761412255805e-05
1.277670824277840553e-05
1.2755549397309148002e-05
1.2735588332131460475e-05
1.2715627432803274641e-05
1.2697066117040508256e-05
1.2678711821810748433e-05
1.2661693774757513327e-05
1.264472554430239219e-05
1.2628938639920187363e-05
1.2612923645660988181e-05
1.2597977140453885992e-05
1.2582864561931930987e-05
1.2568832316093574868e-05
9.133772801234498132e-06
9.124429934980901209e-06
9.1124022396696900423e-06
9.1029448004642151413e-06
9.0908258882626718546e-06
9.081365858027844957e-06
9.0691989136823961077e-06
9.0597291035554021086e-06
9.0475749293350392214e-06
9.0381009600278326639e-06
9.0259599707318744925e-06
9.01652632174638856e-06
9.0044646998014158724e-06
8.9951474496269264927e-06
8.9832769172717773465e-06
8.9741945009099399045e-06
8.9625019633012029889e-06
8.9535903487696643803e-06
8.9407197059949592241e-06
1.3624531571588779401e-05
1.3647462664949661443e-05
1.366472701369207786e-05
1.3676159992957436233e-05
1.3682251926551187795e-05
1.3683109560593459519e-05
1.368012544616134017e-05
1.3674034901015044303e-05
1.3666293781146076884e-05
1.3657912820573734855e-05
1.3648875437812960659e-05
1.3639138250313443738e-05
1.3627035994568452337e-05
1.3607015413146077843e-05
1.3577049580713970478e-05
1.3548631179415055348e-05
1.3521206121279168399e-05
1.3495988601566988275e-05
1.3471449640211648931e-05
1.3448484106569964886e-05
1.3425556602869635766e-05
1.340405282997066419e-05
1.3382709339977436947e-05
1.3363050189817907352e-05
1.3343666406764309314e-05
1.3325900407026416484e-05
1.330803320289050718e-05
1.3291539505972962368e-05
1.3274873626491866518e-05
1.3259571242097386489e-05
9.5969953009239444646e-06
9.5841017519411776529e-06
9.5739771703768239175e-06
9.561046123347236226e-06
9.5509795474194330754e-06
9.5380011041114049207e-06
9.5279374413787317762e-06
9.515038635040387404e-06
9.5050742049509942528e-06
9.4923282409157642709e-06
9.4824593717693714126e-06
9.469688875038279673e-06
9.4597870238535268115e-06
9.4471051309061282296e-06
9.4373920106820377877e-06
9.4248768962846380201e-06
9.4154142589543515345e-06
9.4018679546881635972e-06
1.435205217480252108e-05
1.437334494683460981e-05
1.4387962719124449581e-05
1.4396581514756638448e-05
1.4399510261838150752e-05
1.4397699917373858147e-05
1.4392103975825107015e-05
1.438419112049330716e-05
1.4375304669823314466e-05
1.4366030641774244706e-05
1.4355968902984562636e-05
1.4344533965726820245e-05
1.4326735414838775556e-05
1.4298796766309748645e-05
1.4270551116290863832e-05
1.4244200008248034071e-05
1.4218375385902839783e-05
1.4194122024913060468e-05
1.4170169513950044995e-05
1.4147685675808110834e-05
1.4125242087418932944e-05
1.4104153067195887062e-05
1.4083243758866753381e-05
1.4063869788843753476e-05
1.4044529745457620315e-05
1.4026494688325814275e-05
1.4008434702435301549e-05
1.3991811952841344029e-05
1.0106549503624822568e-05
1.0093299547223774819e-05
1.0082714710554302001e-05
1.0069461510922788434e-05
1.0058975454362843358e-05
1.0045702063764362302e-05
1.0035208081955819989e-05
1.0021995852815593331e-05
1.0011659409377515634e-05
9.9985748038763712532e-06
9.9883223819368552023e-06
9.9751887788830949149e-06
9.964869604185968988e-06
9.9516157196896030783e-06
9.9413279513236024466e-06
9.9282034577338221465e-06
9.9182638306477589749e-06
9.9047369999174767299e-06
1.5101257663613425493e-05
1.5113559215492486541e-05
1.5120451768283660178e-05
1.5122386787636867e-05
1.511998582513690658e-05
1.5114069292735465841e-05
1.5105653734144243092e-05
1.50962560771375823e-05
1.5086651252009522023e-05
1.5076553623135705481e-05
1.5065287967016865767e-05
1.5049124881518323587e-05
1.5023706210311500725e-05
1.4996787424078277963e-05
1.4971077317006476726e-05
1.4945244126416928939e-05
1.4920909997954256621e-05
1.4897158877168557094e-05
1.4875401674332486534e-05
1.4853913493910885594e-05
1.4833843186043596705e-05
1.4813592394578971662e-05
1.4794500405781955474e-05
1.4775179424227074618e-05
1.4757137719985890289e-05
1.4738992107950346506e-05
1.4722163490177317624e-05
1.0581153492782116208e-05
1.0566976092108497186e-05
1.0553741614460812853e-05
1.0539622397533870144e-05
1.0526311130779508168e-05
1.0512000366874962331e-05
1.0498951359492797027e-05
1.0484402082698912801e-05
1.0471780274368463215e-05
1.0457250122368390654e-05
1.0444611023440977831e-05
1.0430159609892887093e-05
1.0417143903476730772e-05
1.0402645184728188024e-05
1.038963834917983071e-05
1.03751198422709927e-05
1.0362260075553627505e-05
1.5629100383647282472e-05
1.5639912263898053213e-05
1.564527957782791613e-05
1.564593441951217119e-05
1.5642961796911614863e-05
1.5637089994192659851e-05
1.5628833621630753317e-05
1.5619234623469738444e-05
1.5609086568552662486e-05
1.5598749241008829942e-05
1.5587632858945771607e-05
1.5574522744534586259e-05
1.5553869348152579905e-05
1.5526995937530701434e-05
1.5501261706222224104e-05
1.5474919179786092384e-05
1.5449564944636990965e-05
1.5424578326020031515e-05
1.5401971525595913964e-05
1.5380348426160490779e-05
1.5361054082884029084e-05
1.5341905259416203336e-05
1.5323864427038784544e-05
1.5305177621349249094e-05
1.5287549135804554879e-05
1.5269499180209089313e-05
1.5252757071330343399e-05
1.0848123196610028282e-05
1.0834645157709072249e-05
1.0816138290108830462e-05
1.0802738405566405223e-05
1.0784024088382442713e-05
1.0770599805105585922e-05
1.0751715362441210507e-05
1.0738391804235956155e-05
1.0719687321106193475e-05
1.0706476056598366383e-05
1.0687589498806115943e-05
1.0674316358472562077e-05
1.0655078894300469423e-05
1.064165989733402216e-05
1.0619239554607876608e-05
1.0613703610908892491e-05
1.2276610945275427705e-05
1.2282995439081771758e-05
1.2285021317452457306e-05
1.2283561617139821854e-05
1.2279725391335429097e-05
1.2274217976792733191e-05
1.226750465546854508e-05
1.2260016738424107577e-05
1.2252167930681185282e-05
1.2243930914984659609e-05
1.2234907698679083391e-05
1.2223274983156243615e-05
1.2204772064648451905e-05
1.2184758916522255362e-05
1.2164830915560924274e-05
1.2145699754372670973e-05
1.2126621678991106624e-05
1.2108861719323203167e-05
1.2091967232440801186e-05
1.2077026544875679064e-05
1.2062773877520502534e-05
1.2050147307785618632e-05
1.2037657035160102844e-05
1.2026075855641407352e-05
1.2014394921159266978e-05
1.2003693877472071443e-05
1.1992857766886568514e-05
1.1982676110456952687e-05
8.4284575130281843858e-06
8.4137848319469552537e-06
8.4029440027566966725e-06
8.3881015510954712121e-06
8.3772794519012213802e-06
8.3622740166197894054e-06
8.3515461324329766152e-06
8.3366334474220483899e-06
8.3260113862287632696e-06
8.3111375587402424312e-06
8.3007202743830685911e-06
8.2857839800564541657e-06
8.2754425922236852261e-06
8.2582376112088539061e-06
8.2561215661742771527e-06
1.1661778763863057148e-05
1.1662607296315955299e-05
1.165979231359773941e-05
1.1654449001287182228e-05
1.1647785204605852813e-05
1.1640529144847813517e-05
1.1632681316527070499e-05
1.1624203932662062014e-05
1.1613995455151338769e-05
1.159776943324385541e-05
1.1573293616787454701e-05
1.1548584069715418825e-05
1.1525009825873412246e-05
1.1501835444770642402e-05
1.1480229868153232637e-05
1.1459225828097388886e-05
1.1439828846634384442e-05
1.1421295592345599948e-05
1.1404621367109915383e-05
1.1388675313428716019e-05
1.1374365216889121934e-05
1.1360398784966149006e-05
1.1347406570622751212e-05
1.1334341879884701383e-05
1.1322075843550806173e-05
1.1309660693555545973e-05
1.1297900879409318697e-05
8.0193450816923054158e-06
8.0099463406848965736e-06
7.9971547035661229075e-06
7.9877803467163201531e-06
7.9748786894992291108e-06
7.9655863428068736582e-06
7.9527273406397561189e-06
7.9434853883578233376e-06
7.9306445682243026114e-06
7.9214256690945338793e-06
7.9084913354927395833e-06
7.8992348544287648146e-06
7.8846703485402940334e-06
7.8782762710185453897e-06
1.119674919521125651e-05
1.1195619453420435133e-05
1.1192009383239315184e-05
1.118665494055616395e-05
1.1180393217603251774e-05
1.1173641408103048668e-05
1.116640160371525191e-05
1.1158578494199968706e-05
1.1149433873975600565e-05
1.1135641181555189377e-05
1.1113433867638149865e-05
1.1091099796772956629e-05
1.1069074126270700705e-05
1.1048688981701267401e-05
1.1028901992142526851e-05
1.101066579001640034e-05
1.099289108601679019e-05
1.0976643757137173051e-05
1.0960750483737516034e-05
1.0946571505725287012e-05
1.0932694542610320543e-05
1.0920063646152783048e-05
1.0907171231211209233e-05
1.0895212470774860676e-05
1.0882838635361774421e-05
1.0871371352659419443e-05
7.7162279893131537057e-06
7.7040496361544644107e-06
7.6951253200676641378e-06
7.682823049338495137e-06
7.673931838312823665e-06
7.6616267750394402672e-06
7.6527708965545458101e-06
7.6404847981110418539e-06
7.6316327164133355662e-06
7.6192593851803422028e-06
7.6103843020218263775e-06
7.5967417858713215105e-06
7.5900593597490524468e-06
1.0781444069920870823e-05
1.0778217938718003623e-05
1.0773141414224163793e-05
1.076710658130044497e-05
1.0760513846012110213e-05
1.0753467436987610423e-05
1.0745744192183864267e-05
1.0735966468779084085e-05
1.0719962120184227636e-05
1.0696860457625400896e-05
1.0674572833337211719e-05
1.0652921426466589483e-05
1.0633125531511131303e-05
1.0614215878291537892e-05
1.0596864435664884419e-05
1.0580039069655571823e-05
1.0564418580650158008e-05
1.0549102344961505602e-05
1.0535198133288391269e-05
1.052177284414610467e-05
1.0509362280685667334e-05
1.0496932738709583422e-05
1.0485127050300888411e-05
1.0473220533704658352e-05
1.0461942308332215955e-05
7.4119691039704759078e-06
7.4034103808034193136e-06
7.3916231978234386987e-06
7.3830691531174342366e-06
7.371198803299361602e-06
7.3626281367690390279e-06
7.3507524979962072484e-06
7.3422072165291386286e-06
7.3302829183884848997e-06
7.3217284952944492498e-06
7.3085746510229633287e-06
7.3021663974114777191e-06
1.0394400291925263486e-05
1.0388203521263960328e-05
1.0381692350738929147e-05
1.0374938527793666558e-05
1.0367678486593770896e-05
1.0359083559640560858e-05
1.0346376792300655446e-05
1.0325227980252584494e-05
1.0301736572170613695e-05
1.0279245451965397757e-05
1.0257421842240855162e-05
1.0237571835494375477e-05
1.0218773017749845395e-05
1.0201771518215775407e-05
1.0185408775517216203e-05
1.017035561325166269e-05
1.0155481107752364922e-05
1.0141995624083985705e-05
1.0128808459348351398e-05
1.0116709485632441014e-05
1.0104385922159328325e-05
1.0092785687781523864e-05
1.0080937151787416328e-05
1.0069965616680420653e-05
9.9874734588138408504e-06
9.9815064898243157266e-06
9.9751908686430650059e-06
9.9684459332121722242e-06
9.9609005470314411983e-06
9.9510087232677103548e-06
9.9345620506211562727e-06
9.911682640189364412e-06
9.8897601462522258822e-06
9.8686480238175283323e-06
9.849542748754312434e-06
9.8315910626132222089e-06
9.8155629758306942511e-06
9.8003882552941284538e-06
9.7865837697948154008e-06
9.7729226393338645171e-06
9.7603756429581756544e-06
9.7479116802869327294e-06
9.7363077292849383273e-06
9.7244397046822025015e-06
9.7131999789005045985e-06
9.7017099117759243851e-06
9.6910186015809613434e-06
9.6159761609031038258e-06
9.6094255331723644651e-06
9.6021543572791766274e-06
9.5930113468838693145e-06
9.5787108603451806278e-06
9.5552485235838254571e-06
9.5318081180154583124e-06
9.5091426380361107303e-06
9.4885493024176026909e-06
9.4693783793666254502e-06
9.4524695963736820919e-06
9.4367772404250839421e-06
9.4227001248807021192e-06
9.4089403464998843903e-06
9.3963096409103219394e-06
9.3837378262694227959e-06
9.3719734335650445523e-06
9.3599870616003910667e-06
9.348697687691976508e-06
9.337252214547702548e-06
9.3266019612017137056e-06
9.200361800471206503e-06
9.1834251485085172757e-06
9.1625332207098413078e-06
9.1421640926666971786e-06
9.1235662695094214126e-06
9.1061606565962203036e-06
9.0908215113699654164e-06
9.0765790207323084456e-06
9.0638180757490456016e-06
9.051263433561891031e-06
9.0396433965385521273e-06
9.0279280134823542087e-06
9.0168505151565852374e-06
9.0054604907762456008e-06
8.9946711265962630356e-06
8.9836668000007419089e-06
8.9733574934509241261e-06
8.7849713773922876342e-06
8.7679102303248451767e-06
8.7529221072216663221e-06
8.7390533904114263631e-06
8.7266934113783744333e-06
8.7145991310642490234e-06
8.703412623307462919e-06
8.6921022149858065403e-06
8.681370010373462608e-06
8.6703204797466105032e-06
8.6598404826319286867e-06
8.6491148163467086664e-06
8.6389923787878785869e-06
8.4318575394741376297e-06
8.4189784006651171487e-06
8.4068204256802347968e-06
8.3958301185051648693e-06
8.3849080648465522533e-06
8.3747628276200372183e-06
8.3644387831948960218e-06
8.3545905408005558353e-06
8.3443380464714712831e-06
8.3345621824994292956e-06
8.3245200377167163268e-06
8.315011503442063022e-06
4.4294918357017293488e-06
4.4461769102234542607e-06
4.5223683890198227898e-06
4.6662258070938542336e-06
4.77452775414806673e-06
4.8434903338926319725e-06
4.8790488640625927829e-06
4.891192056999900212e-06
4.8904423884241100676e-06
4.8853470751514336406e-06
4.8711307802160239947e-06
4.8282255904113044492e-06
4.7671102344799417034e-06
4.7173298331424597574e-06
4.6801595325788731666e-06
4.6556692391017041633e-06
4.641476531296855446e-06
4.6346600390817618208e-06
4.6315575081670334838e-06
4.6322044090640582365e-06
6.0763742755869725815e-06
6.0710656185655103171e-06
6.0764931685205381313e-06
6.1181145829795085641e-06
6.1996517230333820061e-06
6.2534220991436906023e-06
6.278177524161046882e-06
6.2829412068052651089e-06
6.2789476583912182743e-06
6.2714150734889308615e-06
6.2529238125632822783e-06
6.2188044488152977019e-06
6.1915981742502453842e-06
6.1723349448630392125e-06
6.1588654046561310866e-06
6.1492636354354207259e-06
6.1418275766453123501e-06
6.1350882645913701568e-06
6.1293874107493005824e-06
6.1251273300611090383e-06
6.1219849047660967049e-06
6.1231442335300856314e-06
1.0155199303574751133e-05
1.0094784071439287195e-05
1.0081885487315509991e-05
1.008124797602426718e-05
1.0102070576149739552e-05
1.0162495279629058366e-05
1.0204468952161426174e-05
1.0218773424465449313e-05
1.0213924591608826637e-05
1.0203338118853786122e-05
1.0183243973519669458e-05
1.0137498238078266366e-05
1.005758311482744913e-05
9.9849412623446338492e-06
9.9247636547479765867e-06
9.8767086246850046183e-06
9.8392958877475988796e-06
9.8091203824471447298e-06
9.7819967539444697724e-06
9.7568198143249222621e-06
9.7363030652370225425e-06
9.7201002550488273046e-06
9.7074996759692178778e-06
9.6991387839516311347e-06
9.6930012888261660804e-06
9.6879083789376999156e-06
2.2179755627379195361e-05
2.2168930594443093376e-05
2.2196224848408567732e-05
2.2328839208960685626e-05
2.2483580883491913091e-05
2.2571157001824912865e-05
2.259408844390983358e-05
2.2583554810589750338e-05
2.2555455128374424288e-05
2.2486254261568842087e-05
2.2354312653625892603e-05
2.2232785628874035446e-05
2.21341867610959768e-05
2.2059407837208710215e-05
2.2004463251685084244e-05
2.1963282886619348185e-05
2.1930590368318032428e-05
2.1902052534932033435e-05
2.187619836761109317e-05
2.185092097802499928e-05
2.182364337305972709e-05
2.1794440462468654538e-05
2.1764938079600252798e-05
2.1736350721666183178e-05
2.1707951503041756486e-05
2.1678368131468706904e-05
2.1636662975953721756e-05
2.1565396302131130602e-05
5.2315046887871226821e-05
5.228956250488407567e-05
5.2327653652925191683e-05
5.2418628760593366923e-05
5.246298394168385365e-05
5.2456504152201899403e-05
5.2424476683504265303e-05
5.2372480444036326923e-05
5.2261287688182588896e-05
5.2086650929098717358e-05
5.1920696965726977729e-05
5.1769906795965585193e-05
5.1636188384331441203e-05
5.1520499695628633346e-05
5.1420242287684468706e-05
5.1332157321932867953e-05
5.1251567120177128167e-05
5.1178137224717757921e-05
5.1108982250091477379e-05
5.104444346835561926e-05
5.0985440342066718031e-05
5.0932605829507382803e-05
5.0883331140926542477e-05
5.0835465167237252348e-05
5.0786113675830953291e-05
5.072425713421097515e-05
5.0631685082840754714e-05
5.0514499447997971652e-05
5.0380146172988327384e-05
5.0242198413291423286e-05
8.7051740807979186877e-05
8.6919512999268132097e-05
8.67768130566934614e-05
8.6617384104735974299e-05
8.6440126279273339529e-05
8.6248248741693981745e-05
8.6047993808897763144e-05
8.5847385110119107531e-05
8.5653382572319501274e-05
8.5471012322703196593e-05
8.5301494889793494695e-05
8.5142882422323897017e-05
8.4991633486572782416e-05
8.4844178004732362635e-05
8.4697199961022328263e-05
8.4548270096981406108e-05
8.4396410006266469597e-05
8.4242481501374956009e-05
8.4088178683520167734e-05
8.3935246805297921042e-05
8.3784425572002804868e-05
8.3635769169344476482e-05
8.3488509713077298843e-05
8.3342039861520838639e-05
8.3195747862625769008e-05
8.3050722928083782785e-05
8.2906987106249409357e-05
8.2766152080565331267e-05
8.2628488968928940923e-05
8.2494137018384892175e-05
8.2362603388856520385e-05
8.2234191168850659577e-05
0.00010917664616932925203
0.00010896231749284145671
0.00010875326611965522303
0.00010854970188199565984
0.00010834999548409083279
0.00010815144032600914974
0.00010795189999119471195
0.0001077522853416217714
0.00010755558352555436962
0.00010736401898736381612
0.00010717813181051730382
0.00010699718275709735739
0.00010681963064127957604
0.00010664354267075861935
0.00010646661679898841029
0.0001062870271768204532
0.00010610502968439937627
0.00010592279867737273871
0.00010574300327752931042
0.0001055673176748116686
0.00010539565257039721789
0.0001052269405308014599
0.0001050593033970221576
0.00010489139402921975703
0.00010472309717125881205
0.00010455560725865352281
0.00010438952287698657418
0.00010422521081105406429
0.00010406090003770800784
0.00010389579581752344617
0.00010372879879822456749
0.00010356262452763107581
0.00010339726369231242407
0.00014118478227196441842
0.00014048688656519112985
0.00013980326083121063694
0.00013913110203811891426
0.00013846973236858434826
0.0001378183294947205712
0.00012087348378280582785
0.0001206581964124835767
0.0001204464086698644337
0.00012023790415164647743
0.00012003030875634144493
0.00011982078244548760755
0.00011960886898859883606
0.00011939740103587071277
0.00011919058726838541293
0.00011899158811221973071
0.00011880083097608713587
0.00011861600158258024879
0.00011843386833233987901
0.00011825098301034619249
0.00011806429949796906826
0.0001178725864299898945
0.00011767730229866994751
0.00011748178455013303908
0.00011728938726051923341
0.00011710173493408783277
0.00011691839188834300559
0.00011673746129483684607
0.00011655686696388024349
0.00011637536406181751348
0.00011619321983255855967
0.00011601210718835323172
0.00011583323719051889452
0.00011565560256430692555
0.00011547698071593954627
0.00011529524142542313706
0.00011511151859531366774
0.00011492827176004295775
0.00011475022312941474958
0.00011457797884709593217
0.00013627993134704451724
0.00013571813535495261911
0.00013517950681687346368
0.00013465276592814216967
0.0001341230342602960058
0.00013358013292975984255
0.0001330262012318534021
0.0001155341566822810093
0.00011535876479851474991
0.00011519731303814301638
0.00011504539832724406669
0.00011489906211769564321
0.00011475917639944759703
0.00011463244722381433355
0.0001145265717276463803
0.00011444400777889257863
0.00011437859465927034729
0.00011431848139303147456
0.00011425151089798239517
0.00011416950418556703222
0.00011406906633161481058
0.00011395310567451160625
0.00011383057589878897004
0.00011371303747740349162
0.00011360961070292413316
0.00011352296207320822403
0.00011344926986232742143
0.00011338103072677312665
0.00011331184960105762421
0.00011323837421434096776
0.00011316118468821019668
0.00011308289976659266604
0.00011300568879772020193
0.00011292856124563572769
0.00011284891524217355416
0.00011276592652754622269
0.00011268330721084349362
0.0001126075880244351078
0.00011254299000388696885
0.00011248712421662581816
0.00011243106889022564494
0.00011236418822778844158
5.9658680333073494018e-08
5.9853109893430882596e-08
5.9999551498900824766e-08
6.0202382069833229026e-08
6.0405632553593106705e-08
6.0528818538310826014e-08
6.0759732245856252917e-08
6.0813835813353198211e-08
6.0974792201095893537e-08
6.100395661787503315e-08
6.1205907709035006934e-08
5.7508393317969566896e-07
5.7439140338733652423e-07
5.7380209107084507252e-07
5.7327414489800929088e-07
5.727405122630932342e-07
5.7209293279127994607e-07
5.7112465364220289639e-07
5.6921007745867523726e-07
5.6436101432949791233e-07
5.4998394733777855757e-07
5.2221882288642033864e-07
4.9262807382828337919e-07
4.6238660880497080378e-07
4.3203139862394995968e-07
4.0201168513772656033e-07
3.7271682723778369074e-07
3.4445551333871347164e-07
3.1750545835966970126e-07
2.9208554566144612561e-07
2.6836757312680596493e-07
2.4643428077204176362e-07
2.2634395665051810489e-07
2.0811659450462979754e-07
1.9179878039668782183e-07
1.7738245178179993694e-07
1.6485441305171442298e-07
1.5412201470663708382e-07
1.4507437443532035357e-07
1.3752755826440358154e-07
1.3131252118298200187e-07
1.262082553681286843e-07
1.2202506882347274333e-07
1.1851296482030239958e-07
1.155479915287202724e-07
1.1302392272019397383e-07
1.1096863251604916627e-07
6.2011367033877049372e-08
6.2071296371143819817e-08
6.2153274294331272211e-08
6.2239564222644966116e-08
6.2341661141465438636e-08
6.2451319926341568832e-08
6.2548738290998899251e-08
6.2607573718837819473e-08
6.2638798802380670131e-08
6.2702767895236484743e-08
6.2763479682420334081e-08
6.293108506005529784e-08
6.3064280839500982743e-08
6.3249672921517572231e-08
6.3423622709951019019e-08
6.3518641604453797948e-08
6.3706953085192301615e-08
6.3739656189434957978e-08
6.387260609261282791e-08
6.3887340461932273992e-08
6.4067734786429185398e-08
6.0175213381567738245e-07
6.0218048760611409514e-07
6.0225746589344252791e-07