/*--------------------------------*- C++ -*----------------------------------*\
  =========                 |
  \\      /  F ield         | OpenFOAM: The Open Source CFD Toolbox
   \\    /   O peration     | Website:  https://openfoam.org
    \\  /    A nd           | Version:  12
     \\/     M anipulation  |
\*---------------------------------------------------------------------------*/
FoamFile
{
    format      ascii;
    class       volScalarField;
    location    "0.0055";
    object      rho;
}
// * * * * * * * * * * * * * * * * * * * * * * * * * * * * * * * * * * * * * //

dimensions      [1 -3 0 0 0 0 0];

internalField   nonuniform List<scalar> 
106891
(
1.1470043310839277417
1.1469938819952762987
1.1469721962135051019
1.1469406351850692793
1.146905630194132053
1.1468700768571848947
1.1468357463058498347
1.1468108981390432444
1.1467904295379212076
1.1467859264369515415
1.1467841117809203233
1.1478863619351582503
1.1477933406196267896
1.1476891866342568971
1.1475995693366125572
1.1475522893090104315
1.147564429718489265
1.1476351468472028028
1.1477465007925269358
1.1478709491101795059
1.1479838207025176988
1.1480669614056862038
1.1481140165022836186
1.148130628296996969
1.1481333250317007355
1.1481428648110711954
1.1481766619458226852
1.1482358273983495067
1.1483009121540133091
1.1483419310962241777
1.1483378469039708936
1.1482907826802077889
1.148224816402070747
1.14817201311929451
1.1481535468389276744
1.1481690564053257386
1.1481997575627302943
1.1482226667031572021
1.1482236423334912789
1.1481952090903846386
1.1481293753921599787
1.1480160060061035399
1.1478500177533321747
1.1476436536094163365
1.1474306640784641687
1.1472584024129011127
1.1471656622962518313
1.1471619960192283028
1.1472209972228877284
1.1465815362306877034
1.1466625732618378475
1.1467333864426614287
1.1467939379074396644
1.1468446475794702444
1.1468852612183690898
1.1469142950255577507
1.1469297321505580456
1.1469298214571390648
1.1469150391212703521
1.1468867384767611473
1.1468491642493263694
1.146805130724774191
1.1467620905298412382
1.1467250760888194616
1.1466967816274042935
1.1466833423082589682
1.1466774373534853737
1.1466886186432951877
1.1467013196560749133
1.1475903157918989628
1.1474791062710707479
1.1474004599030354079
1.1473873742845612789
1.1474575187903521822
1.1475982687938193205
1.1477703132658603202
1.1479272960423261285
1.1480344003522511276
1.1480817230107642768
1.1480877410049736831
1.1480799081307615506
1.1480823280925636087
1.1481106943485068772
1.1481713996073414918
1.1482555956035969125
1.1483373051499674578
1.1483840066850861117
1.1483747635881580429
1.1483118723346874557
1.1482232224098223305
1.1481498230722524401
1.1481223753032436807
1.1481456380690659991
1.1481998903513610522
1.148255373414109215
1.1482846031878239934
1.1482694364792642716
1.1482012505560423854
1.1480785273253066858
1.1479074323245246347
1.1477083207806924037
1.1475171608435230652
1.1473745326528270727
1.147308480605109704
1.1473200745100013975
1.1465453721581282398
1.1466362066973074807
1.1467085067904934093
1.1467626611901400313
1.1468005103058249716
1.1468240792044592791
1.1468344012505242713
1.1468315322251703137
1.1468143130728711832
1.1467827676119946023
1.1467384604730912478
1.1466868482565801823
1.1466332499311295834
1.1465863600520560528
1.1465526134036290173
1.1465358715072508922
1.1465415456297800567
1.1465603856210220268
1.146597879805756115
1.1466342911207498823
1.1474035460552960419
1.1473141682902450178
1.1472690478265141767
1.1473011455887716092
1.1474251542622675437
1.1476166492840427225
1.1478179881188363964
1.1479662392548053429
1.1480290041352125829
1.1480206657977507501
1.147986029354580273
1.1479692880393508325
1.1479950587053948663
1.1480666867204394332
1.1481702948429475253
1.1482819582131729153
1.1483740695173143553
1.1484219126741259664
1.1484109537408195845
1.148345633272729982
1.1482537175523925832
1.148174635457821724
1.148137747099058581
1.1481499746794812111
1.1481958904555729095
1.1482467831900038391
1.1482741816837100934
1.1482582274211350359
1.1481891510136570389
1.1480669532687259871
1.1479037660773327989
1.1477265161757683742
1.1475727701133227043
1.1474785212112830202
1.1474623554058800412
1.1475153397664630273
1.146630428391069545
1.1466914534454528685
1.146726081119713081
1.1467389130096079519
1.146735211965018264
1.1467188659599019118
1.1466922109438990596
1.1466553310648739394
1.1466083170565968263
1.1465521863678211911
1.1464916225950090301
1.1464330027395117639
1.1463859254271746568
1.1463582155037508326
1.1463545848754852496
1.1463801637419159807
1.1464255158491780673
1.1464932825519593695
1.1465596898781529323
1.1473196971306378611
1.147319350623985823
1.1473950390155189805
1.1475497719803970931
1.1477456243323351792
1.1479147131769438239
1.1479963431859094847
1.1479753534741385934
1.1478926434070539919
1.1478157137339701777
1.1478016350021735814
1.147870388391941221
1.1480012217798947205
1.1481522088575522034
1.1482860583337390903
1.1483807884404622079
1.1484277687943575952
1.1484266643545175679
1.1483858113509248788
1.1483235331214003416
1.1482626178529014016
1.1482211230477692432
1.1482043181262433507
1.1482039876576743964
1.1482056847457704496
1.1481952236365804421
1.1481602582690266789
1.1480911501251829243
1.1479849295801440867
1.1478525458878490184
1.1477220787688882098
1.1476315572500235263
1.1476115580861154797
1.1476686574040881883
1.146566415288061247
1.1466410427743918277
1.146678218471504529
1.1466827112929036669
1.1466625711295723722
1.1466266000258531488
1.1465813430689153485
1.1465307083568494484
1.1464754299318693498
1.146415532698343398
1.1463516481672544334
1.1462871895767325903
1.1462283242057569321
1.1461841253682620856
1.1461634843839063613
1.1461719840391131342
1.1462143552191541573
1.1462812784462850235
1.1463737938758342683
1.1464666529568190434
1.1473725530545626494
1.1474252479077071687
1.1475354043607191024
1.1476922209243922701
1.1478517714833653685
1.1479527149331827385
1.1479501643788765364
1.1478486308495008394
1.1477042055553554611
1.1475984248475674665
1.1475971081595059964
1.1477119922060750046
1.1479003674272265645
1.1480957429096609879
1.1482484153160954499
1.1483457412091016003
1.1483997790253244187
1.1484284072322186177
1.1484436641740385365
1.1484465169423652142
1.1484305179708889089
1.1483907443781320445
1.1483279267527806144
1.1482480559171219792
1.1481625747170232099
1.1480828458039515905
1.148012869175319306
1.1479463089939878628
1.1478754788097651485
1.1478040226858123862
1.1477533552717114063
1.147753567346607495
1.1478257705155479051
1.1466403744084732175
1.1466444744121668808
1.1466142307454298965
1.1465616781168166405
1.1464982066014732798
1.1464314582282479904
1.1463654126647160325
1.1463001370299727988
1.1462347936694892159
1.1461693960275760595
1.1461064526887676518
1.1460521026407273215
1.1460143192308003268
1.1460017341867534402
1.1460194682004767319
1.1460717389554340162
1.1461503593042745575
1.1462562035255274839
1.1463651465628033055
1.1475542595864489659
1.147653124710295458
1.1477586161999198122
1.1478431720087398649
1.1478653140600065807
1.1477946035853678897
1.1476398767107172105
1.1474620242017170568
1.1473475600679277075
1.1473576172587562905
1.1474978863176770183
1.1477158985359403598
1.1479371679579979393
1.1481129699071499495
1.148238170169307848
1.1483362274579642648
1.1484315174182364583
1.1485296292881819191
1.1486114970613949815
1.1486460719138666953
1.1486078266330908004
1.1484942237113946462
1.1483304991470275613
1.1481554667244924239
1.1480056413874690779
1.1479018060820145308
1.1478451352065262014
1.1478253215454954361
1.1478364887820879936
1.1478856586595196365
1.1479879157587637994
1.1481486350632057469
1.1465825353354983651
1.1465541753094674604
1.146497094966751229
1.1464246086792342361
1.1463483011332724626
1.1462750550851497078
1.1462076064001363029
1.1461447312026087353
1.1460845422817784733
1.1460265111278926664
1.1459722905244500435
1.1459277707039225991
1.1458992168361028519
1.1458943460144808135
1.1459171424260246042
1.1459712183560328835
1.1460502058047765672
1.1461560493713716102
1.1462683951406364979
1.1476808526369450814
1.1476977243054162781
1.1476930391845259205
1.1476569299747294561
1.1475688858281587468
1.1474282891509328675
1.1472713929702351709
1.1471603145789071032
1.1471507657128443558
1.1472602569790204541
1.1474606957743913593
1.1476992815287434535
1.1479299710736026174
1.1481341214565354836
1.1483195631559290906
1.1484988050758151434
1.1486646929077559687
1.1487893062100229535
1.1488372783652378573
1.1487861926313907013
1.1486403148016068876
1.1484331528845777015
1.1482163664975355566
1.148039530822065668
1.147932055604480972
1.1478983769579722551
1.1479273118964108402
1.1480087677564907445
1.1481410805424676624
1.1483251163803944728
1.1463919191102029949
1.1463268446831689218
1.146255725401176484
1.1461874221987553568
1.1461261393415376197
1.146072636234500175
1.1460243353752861406
1.1459786620491698717
1.1459349680348054346
1.1458943008008706244
1.1458622128272979435
1.1458432761789278942
1.1458443880604172183
1.145868168636285489
1.1459174496639263907
1.1459875476636067759
1.1460816413612822107
1.146184732807603357
1.1475218084856808609
1.1474268615988718611
1.1473535870510123136
1.1472977146565661588
1.147232409555500432
1.1471430384605489916
1.1470503305987689302
1.1470032779612366891
1.147050932460439876
1.1472138638985056591
1.1474757289482488964
1.1477928524382132736
1.1481151806934364323
1.1484045142123042726
1.1486411214737959341
1.1488105660718184176
1.1488999616744546284
1.1489030886602762394
1.1488242753241661998
1.1486829456055940302
1.1485119951852669207
1.1483493204287276157
1.1482260145774785265
1.1481596480327089793
1.1481548374510543997
1.1482114029930081678
1.1483301869806867845
1.1485105165975271202
1.1461793896165606288
1.1461291010986063288
1.1460817927101878411
1.1460411349592207753
1.1460075129162778929
1.1459793779706348715
1.1459533580464007496
1.1459269323727570011
1.1458999103808247266
1.1458733736523096791
1.1458529580886194221
1.1458420058298146582
1.1458472188363986177
1.1458703171427107037
1.1459134642096149292
1.1459724389608383355
1.146049545848122353
1.1461337073563409028
1.1471479640872108696
1.1470591543247319333
1.1470464420088863911
1.1470657272981181762
1.1470648522815181103
1.147025156176763705
1.1469775701254381062
1.146989312040426201
1.1471258773707502243
1.1474102168255955192
1.1478056690350058044
1.1482335697128314145
1.1486055816335587476
1.1488506188333083013
1.1489451069105363068
1.1489174144877252193
1.1488236511535561135
1.148718174828424754
1.1486328389291042829
1.148576520384982258
1.148545250733865819
1.1485309675602299873
1.1485317497807838727
1.1485562158234101648
1.1486214895980726425
1.1487442980802418102
1.1489291835235801997
1.1459460111936483617
1.1459364837281540428
1.1459338649489476669
1.1459340799256245713
1.1459337001814524637
1.1459296674854630993
1.1459208309414334881
1.1459083820696827072
1.1458940848989283001
1.1458841636078522797
1.1458811069128671534
1.145891068018179304
1.1459143743643016577
1.1459524393325251079
1.1460007015204811687
1.1460585329293191403
1.1461164232846141608
1.1471531644767791747
1.1469749282641623633
1.1468738811504290975
1.1468748171708151862
1.1469469779351642025
1.1470273096483547537
1.1470700721575004533
1.1470819604267292746
1.1471195326027434636
1.1472598786658125825
1.1475537549471175325
1.1479849192360984667
1.1484592906701909243
1.1488451491470688115
1.1490464737718697474
1.1490499584304656455
1.1489185155971779473
1.1487476465316051044
1.1486184958583562921
1.1485695068137407038
1.148594607148314628
1.1486611947742764173
1.1487373816112214087
1.1488088250717125582
1.1488824773699537474
1.1489802969135560762
1.1491231627823841333
1.1458483451355274685
1.1458743236671065091
1.1458982534624102545
1.145916157672365765
1.1459257413382328838
1.1459276247505634228
1.1459249565261564463
1.1459205701893775409
1.1459208448738931185
1.1459268603843033585
1.1459436336614774454
1.1459690344313786525
1.1460024900249652369
1.1460382432237206096
1.1460730751409020645
1.146099470095991224
1.1472192679858155273
1.1470694538689911735
1.1469800971524841682
1.1469696682187835446
1.1470278922368504215
1.1471245417888153995
1.1472234771546765408
1.147312258005429797
1.1474151073067127005
1.1475870126966198903
1.1478759579093282817
1.1482719148637516859
1.1486935692415438659
1.1490275022181670739
1.1491897865161868619
1.1491684111321205375
1.1490214543036443295
1.148837870748781631
1.1486933680564219706
1.1486229691814919818
1.1486223301251372586
1.1486691274692764075
1.1487448929938353093
1.1488429349825974857
1.1489679031320694236
1.1491265951038205362
1.1493182330489066789
1.1495314468872468439
1.1458718830334309047
1.1458901124198128674
1.1459026102451064233
1.1459098124413282793
1.1459140592818430893
1.1459192229159556042
1.1459269918743155703
1.1459415471557969912
1.1459610020947501585
1.1459876753820819051
1.1460161376298856339
1.1460435515096338843
1.1460634964968257066
1.1460726955811555428
1.1460678301395177403
1.1472183333185905774
1.1471376363380170194
1.1471179780016365068
1.1471658437937191088
1.1472695686461780173
1.1474062101180906303
1.1475572112305736372
1.1477262692507823605
1.147932908809603747
1.148203429289651023
1.148531515284896054
1.1488628952593831212
1.1491255075321191725
1.1492634123851301897
1.149265625549279024
1.1491661415139398095
1.1490207840333557243
1.1488797655654801044
1.1487740023488226537
1.1487144590873497041
1.1487040046549921168
1.1487473001167725073
1.1488452676398968055
1.1489922435354831265
1.149177106772352186
1.1493857816697752305
1.1496034318759760229
1.1459078802213917836
1.1459033005478473921
1.145899767497359667
1.1459013806012066095
1.1459116002623981334
1.1459308720240777291
1.1459606457075239838
1.1459949404602625123
1.1460322019820723405
1.1460634630257853228
1.1460850743419803699
1.1460908532885119016
1.146078156008830673
1.1460479790730067062
1.1473956073820550383
1.1473699307441271866
1.1474058278596863669
1.1475124785273940198
1.1476801692268989719
1.1478836195325616831
1.1480972493762433562
1.1483198937725631605
1.1485461307600033365
1.148778824694996592
1.1489986142506882771
1.1491758106318070709
1.1492891048101205875
1.1493275519206529456
1.1492975513593393089
1.1492171360433742766
1.1491058932998630127
1.148985295570240428
1.148881306137535363
1.1488201795683812279
1.1488245727304498001
1.148905291090865477
1.1490503771474089856
1.1492316172322010193
1.1494224855881771674
1.1496100310018386725
1.1459317123553087736
1.1459138997163493823
1.1459101203423058823
1.1459240119838480787
1.1459540086222594901
1.1459979312935100193
1.1460458958954053976
1.1460921737614446769
1.1461249388335907895
1.146139758815473364
1.1461321412386460405
1.1461015889276804369
1.1460531227591330694
1.1476717629377093388
1.1477097192445109286
1.1478282626460059035
1.1480211735232830339
1.1482561980597647544
1.1484939685513277929
1.14870337359362229
1.14887244888422968
1.1490026972765285951
1.1491121567339976917
1.1492053754679547595
1.1492840642623252112
1.1493452075359213982
1.1493771391358358347
1.1493684105457528943
1.1493144194937934266
1.1492234026682086601
1.149121431122593906
1.1490471942197666433
1.1490300466203575702
1.1490827573796043026
1.1491934409096955516
1.1493297771256150153
1.1494659646316274237
1.149600238953155884
1.1459720626378850916
1.1459645356263332694
1.1459816149919990202
1.1460196428424658244
1.1460731509332178213
1.1461286648402526644
1.1461778830138051877
1.1462081354851871851
1.1462155033194985077
1.1461974959634959603
1.1461556813485371809
1.146098507541962519
1.1480876821850931613
1.1482142788369071873
1.1484146593634596556
1.1486531113547586713
1.1488793397745997726
1.149050405686137033
1.1491521572052121325
1.1491949687661096036
1.1492109898839726334
1.1492312278005420989
1.1492689564394658053
1.1493274818684013905
1.1493956590278930907
1.149448832038493018
1.1494655770333530587
1.1494428013308841674
1.1493965467353306487
1.1493569086639636723
1.1493493390949427457
1.1493793628743762536
1.1494300025665591392
1.14948494067983642
1.1495400034634779551
1.1496085335604659949
1.148609874050090518
1.1488084572379191339
1.1490288367737071518
1.1492157987056852431
1.1493315329380491274
1.1493678477114801506
1.1493453895427023781
1.1492998548857520369
1.1492665232258494346
1.1492646045020393775
1.1493019397272798976
1.1493741595354818319
1.1494655261740536201
1.1495536032133486515
1.1496232427864230274
1.1496715278941751492
1.1497036506205491335
1.1497253870143577803
1.1497317934427850883
1.1497193304790316315
1.149689974777334589
1.1496616304774049944
1.1496689013550043246
1.1493835485145669217
1.1495087061179372068
1.1495558473077300832
1.1495297971243532142
1.1494605380222957525
1.1493804237841214189
1.1493143284052276254
1.1492797585371639091
1.1492873040278519525
1.1493442519315393291
1.1494510622387761334
1.1495973270007622258
1.1497597670862789165
1.1499115325819673217
1.1500268717387558404
1.1500842700471010094
1.1500740452825626292
1.1500038220236854514
1.1499009692207224909
1.149810331754388848
1.1497803531236736596
1.1495432385709078993
1.1494481137422629669
1.1493686726906988671
1.1493151551803668653
1.1492985214120816639
1.1493362711882793015
1.1494459757462964777
1.1496294311139063637
1.1498615857748848423
1.150098001310233764
1.1502843100491562112
1.1503774594152675892
1.1503602238159547078
1.1502510222561259656
1.1501015443393911575
1.1499766010489220758
1.1499335077313403985
1.1493288834860686531
1.149354878330898444
1.1494645107472640788
1.1496655908984070305
1.149935139243589699
1.1502193905144284525
1.1504491927808635499
1.1505677338583812919
1.1505531992564506094
1.150431312769447656
1.1502679203993069201
1.1501406915987140156
1.150109688625743809
1.1494042595889200076
1.1495113705029655904
1.1497151570265389253
1.1499938337611854688
1.150290095095536147
1.1505323993157612339
1.15066054594144207
1.1506530473345863985
1.1505399168971015555
1.1503916986235374065
1.1502888284255079476
1.1502874563844383005
1.1409882057919622511
1.1405574416894137535
1.1402695482040299257
1.1402145696255407969
1.1404315774220530333
1.1409108415835658157
1.1416074388514656501
1.1424465502197487243
1.1433320033072966737
1.1441673999974029119
1.1448906390410182876
1.1455002837057799425
1.146038642389272777
1.1465492282765767929
1.1470459716345764445
1.1475086360496185023
1.1479045162282837111
1.1482088004204444864
1.1484169261253331928
1.1485355560606469449
1.1416756711929625379
1.1412337148968243472
1.1407630924011318285
1.140389546409327215
1.140221460935396669
1.1403155626917074184
1.1406755760464235561
1.141267038793692512
1.142022968801939653
1.1428508061429876186
1.143657248227654577
1.1443832404576599338
1.1450289795608075138
1.1456315980030082891
1.1462232458816936642
1.1468041778900091021
1.1473413731106800739
1.1477922439568009061
1.1481329302891329913
1.1483650951287101005
1.1485090931870085562
1.1485835194970457351
1.1422964173396570331
1.1421064451800235773
1.1418003540724563916
1.1413653833464330045
1.1408815792366822084
1.1404825636356401564
1.1402869585922987827
1.1403540211812774885
1.1406832545211991192
1.1412329141966930379
1.1419318724618414684
1.1426883760329684669
1.1434183880869046579
1.1440786910171854007
1.1446839194426368103
1.1452766486693144454
1.1458853138063003207
1.1465012692469116473
1.1470812429487160511
1.1475747332799508538
1.1479552465625990632
1.148227512220047597
1.1484167820270425597
1.1485441481765019667
1.1486129858536267001
1.1486243782180494133
1.1423146441628408976
1.1421723250241921921
1.1420045498809119344
1.1417153763076051121
1.1412951495481358233
1.140829969678961886
1.1404576187576829227
1.1402993544760062772
1.1404109190551412478
1.1407829373665929751
1.1413638612148138129
1.1420747560526280928
1.142821069771605913
1.1435219051145901759
1.1441446139765028001
1.14471370491658897
1.1452759777001211283
1.1458585512027261721
1.1464488454174925902
1.1470003113445170762
1.1474619004870252326
1.1478086712525221724
1.1480525233567326904
1.1482264931085661708
1.1483552166410615492
1.148433670983075805
1.1484450194041273541
1.148394243000105952
1.142390174080696541
1.1422454953910319286
1.1421231550332746618
1.1419762307979690608
1.1417600487024068823
1.1415040815825645559
1.1413137186882305052
1.1413113278601472178
1.1415771122324149811
1.1421101185882294171
1.1428410283780092715
1.1436692427392238791
1.1444855155766320287
1.1451886987077108948
1.145714024609492343
1.1460637964315487647
1.1463021688109316099
1.1465103559777585218
1.146740748467123705
1.1469988587177362138
1.1472503781962899438
1.1474526645062523844
1.147584309120039725
1.1476602130348740882
1.1477139558700442112
1.1477635805265418156
1.1477901810408923655
1.1477538511521554465
1.1476476750407369476
1.1475142717544573046
1.1445903401818451339
1.144675638940699125
1.1448113410411417945
1.1449867238521183044
1.1451426202144094901
1.1452011645431310338
1.1451520470179303857
1.1450760148670569016
1.1450777429378584671
1.1452315052000976436
1.1455394205760665027
1.1459439571505174449
1.1463628773193192956
1.1467100097762381594
1.1469115894582933013
1.1469342351407494363
1.1468127514389983013
1.1466361053462466035
1.1464969053172833213
1.1464470118651961528
1.1464829536235743301
1.1465599951494869213
1.1466249753780279885
1.1466484505481120415
1.1466410945559473156
1.1466376073018074155
1.1466534624520579033
1.1466614244390422872
1.1466070484854458122
1.1464697396553151787
1.1462962028885237409
1.1461783300513901374
1.14654852571883481
1.1464020469709268468
1.1463059049564909841
1.146250365199468213
1.1461702582715342924
1.1459881963728728582
1.1456891369463795272
1.1453653505274457025
1.1451435148828388311
1.1450993671458962186
1.1452354051820201608
1.1454905267625634657
1.1457772385724394049
1.1460043853560226701
1.1460958986884617339
1.146020761415553757
1.1458187778891655295
1.1455808790693629007
1.1453970207644448287
1.1453129410197095961
1.1453198550197882799
1.145371613883716666
1.145414778270713807
1.1454203495663948242
1.1454004459997741971
1.1453937601155212977
1.145416302712244816
1.1454341392896407736
1.1453842649725194391
1.1452342104142683166
1.1450353869265128548
1.1448918425078260519
1.1449023132942017789
1.138707419967748935
1.1390419343022710752
1.1394445666881272139
1.1398659937784108021
1.1402177736151548615
1.1404641428061756958
1.1457171245045547625
1.1454997259958408229
1.1453420052438532117
1.145233692594161079
1.1451042031064577742
1.1448740190315591647
1.144528052184503597
1.1441553979756526882
1.1438913769426195532
1.14381762719202551
1.1439338947633055366
1.1441792785821356393
1.1444654614480684884
1.1446967891143271512
1.1447903172271103323
1.1447124812139533034
1.1445053758678751521
1.1442638651116061599
1.1440811724958128703
1.1440023587582048847
1.1440155539049658984
1.1440726560427294523
1.1441181990453761497
1.1441232117807536017
1.1441031090833699846
1.1441013437356595261
1.1441373242924806064
1.1441717343472532775
1.1441336628376357343
1.1439841646154720323
1.1437731841658205223
1.1436166448572038234
1.1436224430225092608
1.1438383930477593609
1.1399096650002367159
1.1401595882414103933
1.1404340645509394303
1.1407738410546384156
1.1411302182843012787
1.1414075421199634253
1.1415694077515985416
1.1447156692955264834
1.1444947287933888713
1.1443377812330048915
1.1442355181279668663
1.1441116320884585633
1.1438786969355179135
1.1435251602975322616
1.1431394397688110498
1.142865542067556639
1.1427941974620823284
1.1429198035618819418
1.1431775961956707199
1.1434759387269848308
1.1437147072713440554
1.1438086322384890536
1.143727838106735506
1.1435186019407428404
1.1432786067810365438
1.1431018450786605278
1.1430309408153733752
1.1430505399384047749
1.1431119907922890899
1.1431593925125678179
1.1431646167671607461
1.1431448597474331841
1.1431458753468246581
1.1431883039489860732
1.1432295393880673728
1.1431942006784119314
1.1430423415028736489
1.1428221574923878023
1.1426567906113407336
1.1426614138577888546
1.1428822302632548613
1.1432916110226318818
1.1474896540919341525
1.147617461054818655
1.1476976772335327759
1.1477213709005795739
1.1476903626050851681
1.1476123299984080095
1.147500193681078251
1.1473745827354979721
1.1472438821049806279
1.1471330307090394918
1.1470426247347871307
1.1470946813488196447
1.1472107698812308296
1.1474282465737963843
1.147707255616796429
1.1479916073282272482
1.1482273497842181431
1.1483824599946848011
1.1484532466318486676
1.1484599644557351716
1.1484323868828569815
1.148399009105005586
1.1483812126428709632
1.1483905479326912413
1.1484244039136797255
1.1484606391278622262
1.14846573673679897
1.1484171229685868898
1.1483233414349016677
1.1482250719301334563
1.1481709822480663519
1.1481850384276537369
1.1482458147677629956
1.1483026584654589808
1.1483120404561097949
1.1482679118901826243
1.148204270603975008
1.1481692763488267062
1.1481887049154728686
1.1482494942341969768
1.1483078220924620716
1.1483180111836539528
1.14825935157061787
1.1481466078251136853
1.1480199223712483914
1.1479209305733135693
1.1478673149709466283
1.1465332876170750698
1.1464494649459360254
1.146404420837057625
1.1464059674060935734
1.1464570956780604227
1.1465557289157080056
1.1466944651900470298
1.1468611854885268908
1.1470399655780596504
1.147211904140728711
1.1473582905863513037
1.1474627784474222825
1.1475170867136743613
1.1475168875729246931
1.147466765943258693
1.1473753438315061892
1.1472563710707084361
1.1471317320839657938
1.1470101656700499859
1.1469128970823552205
1.1468368543027203099
1.1468737361438623434
1.1469769758997108156
1.147199968961942762
1.1475033732720747448
1.1478200018725335241
1.1480805698649350077
1.1482429122168271718
1.1483051196607896305
1.1482979703507949498
1.1482626733093019844
1.1482315811351702095
1.1482225153366647508
1.1482384873076494358
1.14826950927639726
1.1482945358020681947
1.1482899346956427777
1.148248128617036512
1.1481914375430080089
1.1481652837808504763
1.1482118518412163244
1.1483369082365764147
1.1484959523738500486
1.1486178950904384344
1.1486478073793429111
1.1485793522405804978
1.1484574233767710361
1.1483468399454643816
1.1482912010602333019
1.1482899745345414022
1.1483045731925209942
1.1482889765822925643
1.1482217137056422995
1.1481179491025663708
1.1480189884346223561
1.1479637585147641765
1.1479638097732209889
1.14652739708122553
1.1464367040225453831
1.1463829377844223512
1.1463752983498867177
1.146417255083775899
1.1465057997364793696
1.1466317110629364873
1.1467804753447110588
1.1469348928839937507
1.1470768772117032608
1.1471903810904473531
1.1472620871900438555
1.1472859896903027099
1.1472615464947184538
1.1471972465894895166
1.1471043188645595468
1.1469952432937915443
1.1468884655320790156
1.1467905208805027062
1.146719037260348184
1.1466672550875247616
1.1468364878215606684
1.1470463853613328542
1.1473423714325305944
1.1476554130813823029
1.1479120915200049513
1.1480671920421252619
1.1481224084173113908
1.1481138915595610062
1.1480848616255565631
1.1480644299087889859
1.1480644681196532364
1.1480834831721578038
1.1481106332951038773
1.1481277431540115597
1.1481176206734708956
1.1480799904191356653
1.1480440896389720873
1.1480631564481726947
1.1481808119810534841
1.1483939782827849996
1.148643344596166127
1.1488375613876919967
1.1489023950487631254
1.1488233422741334078
1.1486504356126698845
1.1484639111134840039
1.1483271775909502654
1.1482572567880202641
1.148228567783582621
1.1482015214363197053
1.1481539325608003388
1.1480943096690505723
1.1480496849222625588
1.148045713982318583
1.1464034930037909632
1.1463558471841988062
1.1463501262145558979
1.1463881124722357097
1.1464652333581852872
1.1465712200522673037
1.1466913416383999191
1.1468093532218563979
1.1469096490005890043
1.1469803295493798956
1.1470136348248656244
1.1470079029013093841
1.1469657892897289209
1.14689664622311005
1.1468124856808119549
1.1467247076167670361
1.1466481986979608632
1.1465855507872704244
1.1465487825683022827
1.1465270387730890356
1.1468022026355639831
1.1469686785117980676
1.1472130789452017474
1.1474783604085279087
1.147701591778295338
1.1478445719023808724
1.1479091212235204011
1.1479244478395607132
1.1479215511387226289
1.1479191894800475637
1.1479234553731954005
1.1479345704867882638
1.1479497545078316545
1.1479613023763481916
1.147956348775938995
1.1479315480856475684
1.1479123890635367644
1.1479506324301311793
1.1480947490590087678
1.1483498982070037275
1.1486554760817240251
1.1489064917579745462
1.1490103346425752928
1.1489400430822473975
1.148742406297165175
1.1485028421934684317
1.1482989175386444369
1.1481677095549058798
1.148105333920068416
1.1480877097182993207
1.1480926834242992651
1.1481109835063609825
1.1481434783661599308
1.148193011471329239
1.1463494335999504514
1.1463213402792720164
1.1463268145290275157
1.1463649338349308771
1.1464289294040812539
1.1465080812307999469
1.1465895149133884523
1.1466610359281084186
1.1467120662426191213
1.1467359597144950456
1.1467304409644911711
1.14669821813524897
1.1466452536505595816
1.1465807199804847194
1.1465150800853101121
1.1464563908821554516
1.1464150341680918732
1.1463899762558154016
1.1463883581815337287
1.1463962407071761618
1.147003627829819461
1.1471616596630365148
1.1473480094339105761
1.1475204856012930499
1.1476530845350869647
1.1477447425337337084
1.1478055851418071942
1.147842396394207487
1.1478547883938514662
1.1478447809023055726
1.1478261046049362815
1.1478166425687281738
1.1478220122023892191
1.1478292027166472344
1.1478240731091191584
1.1478179219086537266
1.1478537516664901741
1.1479820865977019562
1.1482203981457439479
1.1485233154854275206
1.1487938207405981039
1.1489336140124868368
1.1488968247036717152
1.1487113071068439929
1.1484546560414792271
1.1482123150438090509
1.1480430661072911214
1.1479690279351051352
1.1479851164161849475
1.1480684171296957619
1.1481868085836266502
1.148309041966002475
1.146276265721110299
1.146295334615888839
1.1463324781282637765
1.1463801772440462834
1.1464291528642482909
1.1464697953015878795
1.1464947122737978447
1.146498806565432016
1.1464807083356680639
1.1464426270488439208
1.1463899424727541643
1.1463305641978069893
1.1462730227813870965