/*--------------------------------*- C++ -*----------------------------------*\
  =========                 |
  \\      /  F ield         | OpenFOAM: The Open Source CFD Toolbox
   \\    /   O peration     | Website:  https://openfoam.org
    \\  /    A nd           | Version:  12
     \\/     M anipulation  |
\*---------------------------------------------------------------------------*/
FoamFile
{
    format      ascii;
    class       volScalarField;
    location    "0.0058";
    object      alphat;
}
// * * * * * * * * * * * * * * * * * * * * * * * * * * * * * * * * * * * * * //

dimensions      [1 -1 -1 0 0 0 0];

internalField   nonuniform List<scalar> 
106891
(
7.9426157347372579971e-06
7.9352384933876035894e-06
7.9266912768421209692e-06
7.9197883773033017949e-06
7.9115352262495266579e-06
7.9047079575314511897e-06
7.8962326246443028798e-06
7.8889327180669302871e-06
7.8797782183217834781e-06
7.871926640194787126e-06
7.8612000652808057495e-06
1.1362513413266191439e-05
1.1373090187074238715e-05
1.1383487912098907749e-05
1.1395346380716606899e-05
1.1410341448836724818e-05
1.1430153237845600553e-05
1.1455606408306554366e-05
1.1487134907637077395e-05
1.1523976320107848239e-05
1.1564173928907088896e-05
1.1605110118432084774e-05
1.1643984709458942079e-05
1.1678273873461873564e-05
1.1706979263078883067e-05
1.1729850123137896688e-05
1.174739365435618373e-05
1.1759848342344274706e-05
1.1767119757487398799e-05
1.1769338653182519978e-05
1.176726151049682157e-05
1.1762143235524353028e-05
1.1755584739846979965e-05
1.17485540366752972e-05
1.1741427292149249156e-05
1.1733837625394603644e-05
1.1725262526435645992e-05
1.1715407964004137097e-05
1.1703836654824169674e-05
1.1688548957807116111e-05
1.1668117543500961479e-05
1.1647227102546016397e-05
1.1627751767285394969e-05
1.1608781702103396929e-05
1.1591359955030871171e-05
1.1574231946098479992e-05
1.155809853550138486e-05
1.1541462905917184177e-05
1.1525349826131513418e-05
8.4410004808710778777e-06
8.4303997810416729069e-06
8.4211108157814739642e-06
8.4101493561303355587e-06
8.400761354857332332e-06
8.3897130135538850018e-06
8.380478607232262007e-06
8.3698516250637759365e-06
8.3612281705706706608e-06
8.3513724085816067668e-06
8.3435583900098299023e-06
8.3343789522200304392e-06
8.3270893489564562354e-06
8.3182059091913773338e-06
8.3109324374811546836e-06
8.3018164680564351514e-06
8.2940985266123826673e-06
8.2842440016645109787e-06
8.2758995808807588306e-06
8.2641878869605767626e-06
1.1962123456283844721e-05
1.1974221901571093532e-05
1.1987948958756437651e-05
1.2005439685115443956e-05
1.202841342168369639e-05
1.2057508771248460087e-05
1.2092888422316202071e-05
1.2133596023710467351e-05
1.2177389494236970046e-05
1.2221405113347711064e-05
1.2262780493865525373e-05
1.2298937987477658759e-05
1.2329176483967182004e-05
1.2353466488436663225e-05
1.2372322290853241986e-05
1.2385946865748801194e-05
1.2394167369403991054e-05
1.2396964439286849743e-05
1.2395076488977895693e-05
1.2389860795073490203e-05
1.2383026018879335399e-05
1.2375731183749138047e-05
1.2368435418990231885e-05
1.2360745928650221278e-05
1.2352070949410581688e-05
1.234169078900614721e-05
1.2328565212648175464e-05
1.2309439524530278257e-05
1.2285611841752774084e-05
1.2263060544335813387e-05
1.2241226168167548046e-05
1.2221306564676659765e-05
1.2202267287485968705e-05
1.2184837268158025731e-05
1.2167381986625429909e-05
1.2150373776587618428e-05
8.8779296617739815141e-06
8.8663377226907921791e-06
8.856295938122770334e-06
8.8443420253202873485e-06
8.8342189123248896984e-06
8.8222188039533708606e-06
8.8123408110015884176e-06
8.8008955582804425177e-06
8.7917620500436489023e-06
8.7811831550905468456e-06
8.7728953113143711285e-06
8.7629920172506463116e-06
8.755169516239902182e-06
8.7455324729324778279e-06
8.7377395006613149735e-06
8.7278565562713845554e-06
8.7196371905714185213e-06
8.7089976524304370741e-06
8.7001515125120919996e-06
8.687483080868477992e-06
1.2617719289466497787e-05
1.26248405524742321e-05
1.2635065708828987826e-05
1.2650377738192630927e-05
1.2671828953136445839e-05
1.2699835121457682998e-05
1.2734220569245883876e-05
1.2773280498748239623e-05
1.2814861598403469472e-05
1.2856432313471415405e-05
1.2895318984307109006e-05
1.2929825801621670683e-05
1.2959350674958017524e-05
1.2984143403300266317e-05
1.3004522664199243126e-05
1.3021137670520843314e-05
1.3033648305133705236e-05
1.3041569672956599931e-05
1.3044986399883966061e-05
1.3044681439273741487e-05
1.3041651692636145986e-05
1.30371277065466289e-05
1.303151539556992752e-05
1.3024840302491976304e-05
1.3016803255633151292e-05
1.3007454415245098194e-05
1.2996504526629979592e-05
1.29832566054741325e-05
1.2964218381809797356e-05
1.2937592688051894495e-05
1.2911192171057701389e-05
1.2887239876503818012e-05
1.2864487910922185743e-05
1.2843958581388557487e-05
1.2823620797176914985e-05
1.2804168199880828396e-05
9.3241236732353159362e-06
9.3134611644376839526e-06
9.3006586461513307692e-06
9.2899299716167689132e-06
9.2771265783382525868e-06
9.2666653868956646553e-06
9.2543488807573456325e-06
9.2445763794499900059e-06
9.2331240199137856511e-06
9.2242533743106395788e-06
9.2135006485875602697e-06
9.2050530392321714947e-06
9.1945512066188874307e-06
9.1861466630648407864e-06
9.1753895754888958175e-06
9.1665916642075991749e-06
9.1551000287538206949e-06
9.1457239590097329793e-06
9.132124273184789184e-06
1.3273559665877128841e-05
1.3279049208687750976e-05
1.3292024176195266921e-05
1.3314082743042237201e-05
1.334536630238733811e-05
1.3385319555089419025e-05
1.3432420691117971483e-05
1.3484046328988942635e-05
1.3537528887599918552e-05
1.3589917143090764806e-05
1.3638621975954398551e-05
1.368164594738492261e-05
1.3718367592309477874e-05
1.3748104547276847855e-05
1.3770287167275680252e-05
1.3784701741419120997e-05
1.3791616824697397223e-05
1.3792062497972310244e-05
1.3787670041782435881e-05
1.3780424879078272151e-05
1.3772117547351927841e-05
1.3763617537082688426e-05
1.3755071703495862592e-05
1.3745851643427359459e-05
1.3734418227670526001e-05
1.3717973508767950381e-05
1.3690229730191944311e-05
1.3659267415823575945e-05
1.362846405233179602e-05
1.3599888273892867736e-05
1.3572535589704869794e-05
1.3547993702786245577e-05
1.3524522107822819348e-05
1.3503042710328901478e-05
9.8182491439215391723e-06
9.8049699209572212184e-06
9.7938484246305919367e-06
9.7803395055332240012e-06
9.7691316556807395648e-06
9.7555536504604424856e-06
9.7445551358058123424e-06
9.7313641290519234552e-06
9.720923433785389438e-06
9.7084420343055221296e-06
9.6987925615876458506e-06
9.6869871094393588458e-06
9.6778237448049901057e-06
9.6663432282081555901e-06
9.6572696441245818745e-06
9.6455555332385583362e-06
9.6361335979961646988e-06
9.6237503642882089129e-06
9.613817263836610009e-06
9.5992575788028311674e-06
1.3971392268825673404e-05
1.3977979960478861587e-05
1.3991881425986682939e-05
1.4014442767657582007e-05
1.4046010203450715254e-05
1.4085221210807575521e-05
1.4130256782202114957e-05
1.4179099664603483826e-05
1.4229120800398201963e-05
1.427805621778854832e-05
1.4324458565343582152e-05
1.4366784432181534928e-05
1.4404106993778989238e-05
1.4435424882297549274e-05
1.4460409064641845488e-05
1.4478461380752624815e-05
1.4489504769548047018e-05
1.4494055339871107053e-05
1.4493269648744058111e-05
1.4488582783877103024e-05
1.448139553772459875e-05
1.4473326129022618538e-05
1.4464832299370654356e-05
1.4455969143280256669e-05
1.4446214831591367884e-05
1.4434137925746661065e-05
1.4416926362149551821e-05
1.4388175049818116262e-05
1.4356894315403858056e-05
1.432622814692780048e-05
1.4298348431830354018e-05
1.4271542252314464396e-05
1.4247431842454983165e-05
1.0310352921164941245e-05
1.0298853632049849712e-05
1.0284699380190117233e-05
1.0273132768968714542e-05
1.025885568361264073e-05
1.0247328795821769844e-05
1.0233192299685478179e-05
1.0222020020771483448e-05
1.0208474489784149925e-05
1.0198028641672099095e-05
1.0185123861165700139e-05
1.0175199841537767835e-05
1.0162656866155679719e-05
1.0152859893259838275e-05
1.0140085105367275373e-05
1.0129933056176224191e-05
1.0116533715380034936e-05
1.0105934900014089606e-05
1.0090325911066163705e-05
1.4710023595028306909e-05
1.4725447852806818383e-05
1.4749537360179975848e-05
1.4781796877328836059e-05
1.4821204355464451344e-05
1.4865633928742497924e-05
1.4913041130829674807e-05
1.4961516797219643769e-05
1.5009308444266457241e-05
1.5055279399189508378e-05
1.5098127119419352599e-05
1.5136975548924469447e-05
1.5170352552967648205e-05
1.5197288779744991963e-05
1.5217238044459930539e-05
1.5230055752131620121e-05
1.5236364577582593572e-05
1.523687505379530782e-05
1.5232818957565942656e-05
1.5225929478301853512e-05
1.521761821976878904e-05
1.5208961584992642118e-05
1.5199998278228477874e-05
1.5190479367321786002e-05
1.5179444340139501457e-05
1.5164843279357059994e-05
1.5141416057515264229e-05
1.511044269129759672e-05
1.5079526798712329522e-05
1.5051167284394751557e-05
1.5023752528405268637e-05
1.4998801884816947955e-05
1.0842002215394035288e-05
1.0830172606510572855e-05
1.0815364801575814201e-05
1.0803428873852682446e-05
1.078838698843359165e-05
1.077630695506156615e-05
1.0761254040274597843e-05
1.0749384210306886866e-05
1.0734792805922815462e-05
1.0723550550559147305e-05
1.0709594943232434203e-05
1.0698983559708403029e-05
1.0685405597654473647e-05
1.0674929382285460402e-05
1.0661119207183033006e-05
1.0650208375427825015e-05
1.0635675793699782458e-05
1.0624265626784160766e-05
1.0607574852501712573e-05
1.5513779617688754341e-05
1.5538352658573885326e-05
1.5570544693847841505e-05
1.5608636604033587558e-05
1.5651605288779364239e-05
1.5697280958264244843e-05
1.5743805587400418709e-05
1.5790059237932111547e-05
1.5834879165397750916e-05
1.5877710415606367827e-05
1.5917388809933217506e-05
1.5953067327451656124e-05
1.5983474975962098041e-05
1.6007797400374636915e-05
1.6025960215045123727e-05
1.6037714347256571621e-05
1.6043779503745773864e-05
1.6044447016234708115e-05
1.6041160537961723047e-05
1.6035302027531634581e-05
1.602803981538978827e-05
1.601965371284412416e-05
1.6010165258078808381e-05
1.5999504064355790477e-05
1.5986500013922091187e-05
1.5968356416965646943e-05
1.5938016980824389101e-05
1.5903996986596659726e-05
1.5871031792080731858e-05
1.5841143826917795977e-05
1.1390581989171117214e-05
1.1375009314034498857e-05
1.1362562675970843415e-05
1.1346736677994618368e-05
1.1334112790468376669e-05
1.1318238674056390168e-05
1.1305703216249612817e-05
1.1290193990714442995e-05
1.127826627118584519e-05
1.1263387689231936406e-05
1.1252146692164212359e-05
1.1237634971048122168e-05
1.122655061253722239e-05
1.1211772635982716513e-05
1.1200170777678232956e-05
1.118455737839768176e-05
1.1172341321342543538e-05
1.1154801791379833026e-05
1.6342785859245716732e-05
1.6370224821226902893e-05
1.6403932902699225592e-05
1.644371809484227473e-05
1.6488095757723150476e-05
1.6535138770978608625e-05
1.6583500997271711055e-05
1.6631811121057893588e-05
1.667913512745259358e-05
1.6724154275904518687e-05
1.6765582373665492981e-05
1.6802133354678769963e-05
1.6832090678768280506e-05
1.6855438628365061412e-05
1.687174437826637451e-05
1.688134850523522246e-05
1.6885111935829002274e-05
1.6883869790482037274e-05
1.6879131128507546527e-05
1.6872449284895318981e-05
1.6863791892173238599e-05
1.6853544202639843307e-05
1.684209409804485934e-05
1.6828716437197343994e-05
1.6811260026893628156e-05
1.6783937263552964819e-05
1.6749717248529312377e-05
1.671801676420669986e-05
1.1995758650627463501e-05
1.1979746777502291817e-05
1.1966798365319314724e-05
1.1950592986297857602e-05
1.1937604273767880682e-05
1.1921414955510055338e-05
1.1908524112829874393e-05
1.1892731103916523037e-05
1.1880351692887692534e-05
1.1865073869326863332e-05
1.1853331897885217679e-05
1.1838365395012580939e-05
1.1826811363349272159e-05
1.1811477934115837803e-05
1.1799354002852417388e-05
1.1783165815880212375e-05
1.1770401899277115512e-05
1.1752901032107434365e-05
1.7242325652725924549e-05
1.7277306824684065428e-05
1.7317776243859348733e-05
1.7362874252877561295e-05
1.7410578002200237998e-05
1.7458890816168749684e-05
1.7506213280531278642e-05
1.7551304788564878645e-05
1.7592863802012181527e-05
1.7630047775175900746e-05
1.7661796768879656591e-05
1.7687354659301078081e-05
1.7706691036827613349e-05
1.7720177629465444003e-05
1.7727972806248890638e-05
1.773081669989260781e-05
1.7729327530456003091e-05
1.7724433082835030931e-05
1.7717223422753940648e-05
1.7707627322840353552e-05
1.769610837805909534e-05
1.7683282413807044738e-05
1.7668680666714172317e-05
1.765072323812937757e-05
1.7624342228657704406e-05
1.7591424493157643475e-05
1.7560200105635039112e-05
1.2557253463562980758e-05
1.2539462957865043575e-05
1.2523661254269234823e-05
1.2506181531694793841e-05
1.2490516747268561927e-05
1.247313745900142015e-05
1.2457815125497450687e-05
1.2440624058910011303e-05
1.2425593213909011972e-05
1.2408867222209629433e-05
1.2393853175235532876e-05
1.2377403479649364982e-05
1.236207590825694071e-05
1.2345240610281566155e-05
1.232942068002092395e-05
1.2311733428942291894e-05
1.2295533179143468353e-05
1.7883817412265043216e-05
1.7913190479777675086e-05
1.7949815152386224557e-05
1.7992534739399932553e-05
1.8039644636012448596e-05
1.8088275010647406635e-05
1.8136270087663738319e-05
1.8181307825661842539e-05
1.822170082692671481e-05
1.8256218356098250633e-05
1.8284090380181742175e-05
1.8305119487890080372e-05
1.8319528834510316904e-05
1.8328494030231475985e-05
1.8332963156552895917e-05
1.8333375268606878094e-05
1.8330420109682402639e-05
1.8324614252588822038e-05
1.8316648154171788525e-05
1.8306662350233342756e-05
1.8295188175714156945e-05
1.8282101655486202436e-05
1.826695345948039942e-05
1.8249069278051205736e-05
1.8225641861243367555e-05
1.8193068058697820785e-05
1.816107608049952001e-05
1.2873150161940621401e-05
1.2856923324480920744e-05
1.2834739241540609099e-05
1.2818994256857485251e-05
1.2797105499582505815e-05
1.2781484899421598688e-05
1.2759542964634226059e-05
1.2744056755505802787e-05
1.2722175547083960717e-05
1.2706816467278888729e-05
1.268491371785392947e-05
1.2669588833139274495e-05
1.2647454783724769263e-05
1.2631882920672877899e-05
1.2605633511413685989e-05
1.2598831548638403716e-05
1.3989522685557219435e-05
1.4015803560299350676e-05
1.4050299884633534877e-05
1.4091273417547106738e-05
1.4136228020679708221e-05
1.4181911147096865416e-05
1.4225810483232749661e-05
1.4265601952695010582e-05
1.4299682063112565929e-05
1.4327067595494374051e-05
1.4347262383074394339e-05
1.4360538206497416581e-05
1.4367882621939548072e-05
1.4371163527232247203e-05
1.4371354792635568281e-05
1.4369087357188059924e-05
1.4364869997336516662e-05
1.4359123384222305912e-05
1.4352155732732483099e-05
1.4344347198692878389e-05
1.433553177816198582e-05
1.4325392853443853211e-05
1.4313265243380011223e-05
1.4297808007383512447e-05
1.427522012326218589e-05
1.4249539028569767107e-05
1.4224161529572818531e-05
1.4200233300426623492e-05
9.999520899560256643e-06
9.9823529581632479765e-06
9.9702270512683127598e-06
9.9532729315682229667e-06
9.9412189017922363281e-06
9.9242007876946273576e-06
9.9121283808702191691e-06
9.8950318210234122481e-06
9.8830104778240985408e-06
9.8659348291222826355e-06
9.8540156187845038329e-06
9.8369059645034567248e-06
9.8249682688051950667e-06
9.804968618392043714e-06
9.8025199432820922366e-06
1.3293511732728399699e-05
1.3325733461515393603e-05
1.3364580516531359821e-05
1.3408108660891832596e-05
1.3453946015887348965e-05
1.3499672308434337772e-05
1.3543190645665851792e-05
1.3582217069266422498e-05
1.3614392897358318236e-05
1.3638411847011955904e-05
1.3654207081832281259e-05
1.3663096303411635492e-05
1.3666216881081112141e-05
1.3665089672922777655e-05
1.3660821599723970741e-05
1.3654423969518868771e-05
1.364673419646151362e-05
1.3638619456479093286e-05
1.3630170605594491294e-05
1.3620934317607021264e-05
1.3609455379827831471e-05
1.3592467226243730555e-05
1.3564752681565900915e-05
1.3533629749044428286e-05
1.3503219789090413407e-05
1.3473742799309321386e-05
1.3446484860162183575e-05
9.516568851331949939e-06
9.5054173978688109907e-06
9.4903742537581490174e-06
9.4793568814655335467e-06
9.4642606364611892136e-06
9.453264605912421365e-06
9.4381515488656876926e-06
9.4272734973435347885e-06
9.4123332096567666335e-06
9.4017083337196008302e-06
9.3868496910272003524e-06
9.376256400410090726e-06
9.3595467266199749778e-06
9.3523925761910285724e-06
1.283314022064085475e-05
1.2867813756067385063e-05
1.2905271806040512241e-05
1.2944252031286796088e-05
1.2983277921369001132e-05
1.3020259668929246288e-05
1.3053314566354645633e-05
1.3080655350870501685e-05
1.3100934913440436929e-05
1.3114213764629749625e-05
1.3121672917817402032e-05
1.3124484365905294639e-05
1.3123658108168769935e-05
1.3119834925987589278e-05
1.3113838179003147811e-05
1.3106441259729474357e-05
1.3098357950896497088e-05
1.3090288133164825724e-05
1.3082110403763907899e-05
1.3073296518603243435e-05
1.3062677232827564624e-05
1.3048137798475869628e-05
1.3024379000871032173e-05
1.2996452271778451414e-05
1.2968885000187200472e-05
1.2943667604274996085e-05
9.1577923893335700837e-06
9.1431997682644106323e-06
9.1324873938148233809e-06
9.1179218277055175244e-06
9.1073013508879226732e-06
9.0927943800865150407e-06
9.0823778026783431703e-06
9.0680832535161960353e-06
9.0578956878464623087e-06
9.0437625688510142971e-06
9.0336948144849725669e-06
9.0182102749879742599e-06
9.0108964669458021569e-06
1.2372577391059773173e-05
1.2409094991473936591e-05
1.2447538841040303958e-05
1.248671328565078477e-05
1.2524526177222082392e-05
1.2559147843736718524e-05
1.2588613593870830892e-05
1.2611389412964627585e-05
1.2627150710547660291e-05
1.2636694230923579418e-05
1.2640774956003522338e-05
1.2640262922102598442e-05
1.2636141414012268966e-05
1.2629244231530533339e-05
1.262077240298964448e-05
1.2611835078783932887e-05
1.2603317963231271481e-05
1.2595161054703978918e-05
1.2586768659121896774e-05
1.2576592993123235982e-05
1.2561451777897753083e-05
1.2536228743299500802e-05
1.2508847137431520707e-05
1.2482321366988881014e-05
1.2457874365132640967e-05
8.7968846263836969587e-06
8.7863686391925667084e-06
8.7721518429950139003e-06
8.7617756470423897408e-06
8.7477005988944616695e-06
8.7375940895963375002e-06
8.7237762666652981136e-06
8.7139510542079123145e-06
8.7003940022116767173e-06
8.6907830698862405868e-06
8.6759753465329909916e-06
8.6691444481161892221e-06
1.1974041897230169222e-05
1.201338460825973514e-05
1.2053350150839405719e-05
1.2092120015496862851e-05
1.2127298611585122801e-05
1.2156571450742384763e-05
1.2178669714128950607e-05
1.2193153184219950741e-05
1.2200488283894325625e-05
1.2201572808989016665e-05
1.2197607310233579873e-05
1.2189723641316956387e-05
1.2179458996308339412e-05
1.2168442088517929765e-05
1.2157873207859681687e-05
1.2148253974942769187e-05
1.2139446757123772977e-05
1.2130344023741893139e-05
1.2118434365437577989e-05
1.2098277912311151822e-05
1.207204682459801735e-05
1.2045670209570413548e-05
1.2019764331910586663e-05
1.199601946444257502e-05
1.1553511475526473984e-05
1.1589524384219268137e-05
1.1624065945834589016e-05
1.1655456101620902617e-05
1.1681750537058748664e-05
1.1701810105383440855e-05
1.171539408211662375e-05
1.1722920085987985093e-05
1.1725158200755181519e-05
1.1722855093870580961e-05
1.1716756009308963924e-05
1.1707820531278913544e-05
1.1697434453701247093e-05
1.1686957098748416387e-05
1.1677312646012488141e-05
1.1668694435721567053e-05
1.1660601290521974762e-05
1.1651493894211556896e-05
1.1638007902015722915e-05
1.1615123121297040362e-05
1.1590272791397463324e-05
1.1565877604086263693e-05
1.1543538685851048871e-05
1.1181247683359201318e-05
1.1209757954592553295e-05
1.1235376025673922911e-05
1.1256658679430685629e-05
1.1272830597182847959e-05
1.1283928816864219246e-05
1.1290293638543974863e-05
1.1292061710082830581e-05
1.1289531491364963693e-05
1.1283337056647270167e-05
1.1274613352673022479e-05
1.126483665338729141e-05
1.1255304576517654152e-05
1.1246604337646388616e-05
1.1238573938471909552e-05
1.1230106299741616667e-05
1.1218551262410168993e-05
1.1197873074153470005e-05
1.1171951189966174701e-05
1.1146673732008345332e-05
1.1123397219744118717e-05
1.0815841485717973385e-05
1.0827316964806065982e-05
1.0834195531953836553e-05
1.0836821024154260983e-05
1.0835574292810759171e-05
1.0830982718074966999e-05
1.0823623826220418135e-05
1.0814854868698203086e-05
1.0805867268811434286e-05
1.0797401239407212041e-05
1.0789601182764185766e-05
1.0782011424539797369e-05
1.0773205829589893552e-05
1.0759865009411523029e-05
1.0738597514930218427e-05
1.0716709147225622118e-05
1.0696501870818294179e-05
1.0457187474622921264e-05
1.0452328173200148262e-05
1.0445036403745072169e-05
1.0436389050671451088e-05
1.0427449038606709909e-05
1.0418809933724352529e-05
1.0410331981341383877e-05
1.0400724865192943194e-05
1.0386304825336118782e-05
1.0363940016722897189e-05
1.0341530578127346922e-05
1.0319914017745132761e-05
1.0300232316923263362e-05
1.001536024952295134e-05
1.0007945726967042686e-05
9.9998872450482071501e-06
9.9914422296310949649e-06
9.9831041518975090118e-06
9.9752899164755195018e-06
9.9676569476349241214e-06
9.9595275638981821241e-06
9.9490887647085257656e-06
9.9335639931171533371e-06
9.9170244865471707626e-06
9.9015726767776209016e-06
5.150660064944055972e-06
5.3706303768877175844e-06
5.5199949334283791036e-06
5.5883511814996854669e-06
5.6020992148103039224e-06
5.5942871630206668371e-06
5.5671872785209968864e-06
5.4777921336696147356e-06
5.3737295279159822387e-06
5.3138624671148902457e-06
5.2885373810130538656e-06
5.2823559118089599519e-06
5.2838254089627113619e-06
5.3111555573089735881e-06
5.4202396663716212013e-06
5.5683675931840411903e-06
5.6746289818276899388e-06
5.7417336687833116796e-06
5.7765101891346910424e-06
5.7896219765665376749e-06
6.980453398040447576e-06
7.0929340191375828673e-06
7.3862191046968001727e-06
7.6019416626409266934e-06
7.6966860781582020789e-06
7.7125750994573495661e-06
7.6989962855692614858e-06
7.6509849270475348038e-06
7.4911189073271523142e-06
7.2970438264384057523e-06
7.1766569849296670073e-06
7.1196804237473562511e-06
7.1009242210334270364e-06
7.0967535545937051309e-06
7.1055733035977600745e-06
7.1592474977357173864e-06
7.2307244863916283952e-06
7.272211686196728328e-06
7.2899065325041352171e-06
7.2932849566627229939e-06
7.2915937114980947022e-06
7.2862997017575291902e-06
1.1805731453109181658e-05
1.1826900920131680755e-05
1.1920698674371691734e-05
1.2175209783905410814e-05
1.2381192133519179827e-05
1.247023525525352473e-05
1.2478867425120201561e-05
1.2456988561324388868e-05
1.2398342893215581748e-05
1.2220547653830847096e-05
1.1968361488699752235e-05
1.1797712759148803303e-05
1.1712661824177691532e-05
1.168329534764146967e-05
1.1677449132522463608e-05
1.1682154431463193312e-05
1.1722913056107204678e-05
1.177734092651488793e-05
1.1804114466589685648e-05
1.1808386168387288983e-05
1.1801739190057331514e-05
1.1790061658694896122e-05
1.1765487094480237432e-05
1.1703432484627152653e-05
1.16227900686777965e-05
1.1555375196952506929e-05
2.6355397522871439585e-05
2.6629570756216088451e-05
2.7050069851283604851e-05
2.7340760098653146175e-05
2.7471872239454923735e-05
2.7485015171081942324e-05
2.7447731266004238906e-05
2.7323940196482848531e-05
2.6989479873842118297e-05
2.6651327462260723507e-05
2.6446269316303078163e-05
2.6352244147199240816e-05
2.6330664238525297891e-05
2.6339239968257910829e-05
2.6425001342960683851e-05
2.6611393821374501432e-05
2.6732968906813194161e-05
2.6784841165092406964e-05
2.677953162498741886e-05
2.6756223867923079583e-05
2.6713244908215028794e-05
2.6610933272982303292e-05
2.6467501787588012055e-05
2.6346606387222794933e-05
2.6252587806797866957e-05
2.6186479712779011134e-05
2.6140105027341499494e-05
2.6112753341098260201e-05
6.1701131890349686327e-05
6.2030951374826020128e-05
6.2255446167607246966e-05
6.2354855008899096025e-05
6.2355603852940695076e-05
6.2303624607014320043e-05
6.2162426471364250918e-05
6.1816206282210719807e-05
6.1446003083746360014e-05
6.1158566207916869087e-05
6.0965898035981417203e-05
6.0850605098778593805e-05
6.0794797593791659318e-05
6.0774795643473405852e-05
6.0830197235154375324e-05
6.0885998217769542239e-05
6.089654339050331683e-05
6.0874774442217664328e-05
6.0830866921477366131e-05
6.0741906292172216024e-05
6.0579912977943947857e-05
6.0417074425220151815e-05
6.0268545927242675084e-05
6.01367853448681115e-05
6.0022888368825417734e-05
5.9925296618737323279e-05
5.9841239139751592198e-05
5.9767559596423844824e-05
5.9694021072266674683e-05
5.9622206026833823758e-05
0.00010053521405362278029
0.00010039798194073496212
0.00010020650486553679649
9.9990065174426371935e-05
9.9754789391949194523e-05
9.9506326942273864598e-05
9.9254741027822635966e-05
9.9015700719757662762e-05
9.8804142185646555386e-05
9.8624526146326048077e-05
9.8468705832655621765e-05
9.8320895737219376532e-05
9.8169708398301351268e-05
9.8012770052157709611e-05
9.7855451481990482878e-05
9.7703417951464517069e-05
9.7553184745983979268e-05
9.7394422343661125191e-05
9.7219289350648115653e-05
9.7030866023893884605e-05
9.6840555339436831654e-05
9.666009645805562656e-05
9.6493625698786889759e-05
9.6338672104111377375e-05
9.6189873206416770675e-05
9.6045197767530060464e-05
9.5902013937125424607e-05
9.5756544524705107242e-05
9.5602416885053168082e-05
9.5435302329732941322e-05
9.5256313420163815859e-05
9.5072939824661752486e-05
0.00012442817918494191733
0.00012414908042715833473
0.0001239002150165846724
0.00012368269128765075194
0.00012348287703634842015
0.00012328160518391151628
0.0001230666715167972095
0.0001228402363156729047
0.00012261252920672634421
0.00012238786585633170735
0.00012216139117467942482
0.00012192404750601131165
0.00012167637259896159092
0.00012143344633718920094
0.00012121532640742880649
0.00012103247179872954938
0.00012087568552052276375
0.0001207205189948127932
0.00012054561637522240606
0.00012034689331513614031
0.00012013662429743037798
0.00011993010082940408305
0.0001197343464443260155
0.00011954783404365061693
0.00011936682764864180943
0.00011919068380362449818
0.00011901760669404006074
0.00011884264984442928341
0.00011865670215732112061
0.00011845375003904767407
0.00011823421786509069381
0.00011800963301089435428
0.00011778875447899585813
0.00016143174658715247214
0.000160540555101771899
0.0001596562011192252412
0.00015875745656477314159
0.00015786088824056043224
0.00015701913365084212496
0.00013703206189286345931
0.00013675965435785137464
0.00013652358212312207925
0.00013632314400454978291
0.00013613917256308089563
0.00013594720733366657032
0.00013573370707237899613
0.00013550365463342527411
0.00013527155978810279373
0.00013504363282053685877
0.0001348116622020483304
0.00013456372263926548991
0.00013430046539675971617
0.00013404026228277474706
0.00013380862896304323174
0.00013361950823301255555
0.0001334619152819939696
0.00013330537588287868123
0.00013312401175155766158
0.00013291306935599649748
0.00013268864481410513347
0.00013246993670003811313
0.00013226494554290907217
0.00013207094292615149402
0.00013188297499740897619
0.00013169929198306859681
0.00013151889024795262355
0.00013133472463390123675
0.0001311348123687861543
0.00013091034324606596142
0.00013066517551523222748
0.0001304128700304983267
0.00013016781894144744086
0.00012993120682456567967
0.00015547109109997686235
0.00015465512041844614523
0.00015387673024927508666
0.0001531153229020034757
0.00015235962409994432748
0.00015163064807041537626
0.00015097875726661783772
0.00013381302420641604748
0.00013358149130375524113
0.00013338533744795678221
0.00013320772990229362196
0.00013301939854289696204
0.00013279549617153084146
0.00013253225170590715912
0.00013224644019564261261
0.00013195945792677588656
0.00013168011369086592534
0.00013140084462945491412
0.0001311158951133676036
0.00013083316027442278809
0.00013057452861152903426
0.00013035862479068009061
0.00013018183777949710847
0.0001300154696749328243
0.00012982301970873387888
0.00012958608813940303219
0.00012931516422187591632
0.00012903688549665274414
0.00012877227933441034525
0.00012852507480293757342
0.00012828784906184474441
0.00012805219370319215785
0.00012781410626386442708
0.00012757054455797553548
0.00012731378752108701716
0.00012703449990283539862
0.00012673231414679069916
0.00012642046954604971884
0.00012611831425065819778
0.00012583886936156071031
0.00012558054800766019275
0.00012533205765429913958
7.2449951425071134284e-08
7.2644687487811464868e-08
7.2743113435095127391e-08
7.2879191796145197965e-08
7.3036497683687734777e-08
7.3094245666860616623e-08
7.3275299710271628348e-08
7.3462120946146771997e-08
7.3640499473377504715e-08
7.3854034114909083568e-08
7.4226460054468672172e-08
6.800264566704813078e-07
6.7916769323615173548e-07
6.7774308205371024243e-07
6.7518870067302622324e-07
6.7269171688205601408e-07
6.7041692327508564836e-07
6.6827974421477433293e-07
6.6623468964590912302e-07
6.6429576441199028653e-07
6.6249880132774860067e-07
6.6088100660466412649e-07
6.5943081761967804973e-07
6.5817686739534653878e-07
6.5716364503355762245e-07
6.5641309916338667807e-07
6.5585189375465979341e-07
6.5533695770419218628e-07
6.5472074903234558709e-07
6.5382233917721933215e-07
6.5224626044107437434e-07
6.4881780272883143492e-07
6.3965394781962318397e-07
6.1507573805875298188e-07
5.8300794452275790812e-07
5.5011779313033020003e-07
5.1679436558294582473e-07
4.8347160710559433683e-07
4.5061334666295023899e-07
4.1855809641333194707e-07
3.8771180957661409865e-07
3.5829214581006351897e-07
3.3063855789672806056e-07
3.047617157163817263e-07
2.8095777770582083412e-07
2.5902010089418599236e-07
2.3935642186763589335e-07
7.5225446048246245768e-08
7.5245384153039106891e-08
7.5297301286143117647e-08
7.5326054210545688963e-08
7.5386117006385157798e-08
7.5461361798052607789e-08
7.5492906776981088706e-08
7.5614651924260590957e-08
7.5664576042768288393e-08
7.5831060170689928883e-08
7.5937244695264970566e-08
7.613547153556559285e-08
7.6230777258040078542e-08
7.636684474937908927e-08
7.6531965897482248215e-08
7.6592626937018812167e-08
7.6773387636165414809e-08
7.6962275892448196513e-08
7.7151013471836495091e-08
7.7390450638114611393e-08
7.7719260543179146903e-08
6.9854058809807299089e-07
6.9749766868174632933e-07