/*--------------------------------*- C++ -*----------------------------------*\
  =========                 |
  \\      /  F ield         | OpenFOAM: The Open Source CFD Toolbox
   \\    /   O peration     | Website:  https://openfoam.org
    \\  /    A nd           | Version:  12
     \\/     M anipulation  |
\*---------------------------------------------------------------------------*/
FoamFile
{
    format      ascii;
    class       volScalarField;
    location    "0.0058";
    object      k;
}
// * * * * * * * * * * * * * * * * * * * * * * * * * * * * * * * * * * * * * //

dimensions      [0 2 -2 0 0 0 0];

internalField   nonuniform List<scalar> 
106891
(
0.014492121786028450831
0.014485419142992157424
0.014473659843129611097
0.014467433544976232573
0.014456088537240721278
0.014450178806910143892
0.014438903049604150108
0.014432802412734294442
0.014420974011455209643
0.014414911270215907679
0.01439914304540809882
0.018483293689171925722
0.018545543295915411369
0.018607975125104116859
0.018676623685024311416
0.018757009439386775063
0.018853696017480534031
0.018967605513528711103
0.019098471539733902214
0.019243237459714686299
0.019396632386552890848
0.01955268452941080759
0.019704990297717554087
0.019846686270428959276
0.019973818768801328977
0.020083284976525794113
0.020174345831749998514
0.020246634697007756531
0.020300119140033396486
0.020336244633439675561
0.020358078120078091505
0.020369458729705136601
0.020374871146502864655
0.020377146255350791354
0.020378187078025682133
0.02037815368147045253
0.020376614741826691579
0.02037287029317846887
0.020364598964540091275
0.02034346469240972885
0.020303178832959279526
0.020259683420480560645
0.02021979625005328185
0.02018084424426225959
0.020146921344340439769
0.020114189808102450607
0.020085801350214461947
0.020057191288620525305
0.020032053703992240556
0.015333828104882723034
0.015319153305076910199
0.01530976032126168257
0.015294636685419776834
0.015285373799207109882
0.015269944796455126382
0.015260710733702565964
0.015245721286470377207
0.015237145785245756122
0.015223060580685631588
0.015215442183620399297
0.015201972622613187797
0.015194879928612356826
0.015181801958264969088
0.015174869997379320311
0.015161891356680947188
0.015154944723070188847
0.015141334605411957762
0.015134387825259526528
0.015116092745502931333
0.019493848093471554533
0.019564966264134855956
0.019642808097550520929
0.019733726065033721508
0.019842162613240274527
0.019968628011164606118
0.020112276237788630912
0.020269741062094222966
0.020435238177005279891
0.020602303047945108583
0.020764396071178262138
0.020914248000356790852
0.02104849121559437472
0.021164388056951886907
0.021261065290057574312
0.021338163029415279509
0.021395756571810420343
0.021435111545441962178
0.021459320469558857553
0.021472350915174104324
0.021478724944750459541
0.021481612585518998493
0.021483060295632652043
0.021483291378164796198
0.021481921123786437006
0.021477167922643640441
0.021464895796733496347
0.021432410742734494397
0.021382736822892350892
0.021336047677194863031
0.021290307622415429595
0.02124994938934117103
0.021211825445058816314
0.021179083483733391474
0.021146951906273997457
0.021118092636882457996
0.016115548104559455217
0.016098792929478092373
0.016088251220989099877
0.016071143959410384011
0.016060796780315998028
0.016043399573703202854
0.016033156223661255979
0.016016338320382066118
0.016006870151162127386
0.015991001204941384523
0.015982449326556343733
0.015967159036915746367
0.015958950888405397384
0.015943964449672366757
0.015935974180613387413
0.015921022152292078206
0.015913066204866186532
0.015897418464826559154
0.015889513337547331306
0.015868679494913634498
0.020607197345302245839
0.020666242415958064466
0.020736169237339851373
0.020822210837136315847
0.020926592243183435998
0.021049630137361940996
0.021190115319109699421
0.02134271147328680937
0.021502044718830260611
0.021662589440847215827
0.021818025554871084415
0.021963634317623131897
0.022096271317602774603
0.022214332865575368153
0.022316646143712818434
0.022404658825139298073
0.022478060170659234368
0.022536484704388057287
0.022580726728592227098
0.022612678561956513212
0.022634296671582392058
0.02264873267692037867
0.022657573741652906052
0.022662359872983192655
0.022663821482127085444
0.022663197913330438565
0.022659334834907826628
0.022648679902259102187
0.022617789508860782627
0.022559236953380516766
0.02249992936741421895
0.022447686823634478009
0.022398442632894317861
0.022356353006686115886
0.02231540048621690267
0.022279305122278200701
0.016917428077911411677
0.016905857886050302402
0.016886864245145606633
0.016875493032595223486
0.016856370107119961199
0.016845226283956796914
0.016826491674782791119
0.016815933205071034728
0.016798076641205101495
0.016788513770955599408
0.016771207032776260654
0.016761772083647871051
0.01674469413119617292
0.016735524426583294616
0.016718403787585895542
0.016709330721255681584
0.016691527770143026882
0.016682604345192052209
0.01665925234444295619
0.021705783873482608487
0.021763594777055122326
0.021843491781765009968
0.021949774085797155859
0.02208278544775708202
0.022241224024329618592
0.022421310441018003218
0.022616237811833993232
0.022819382299806758446
0.023022653202384165544
0.02321780065964932499
0.023396996933240796906
0.023556236256165055676
0.023691584777848214566
0.023800524985581862636
0.023882883719094787772
0.023940472956902176388
0.023977110595516520908
0.023997653782748859519
0.024007579433872140717
0.02401190505700078609
0.024013409653006224931
0.024013573051696567029
0.024011907284358802867
0.024004459532826382534
0.023981877979102374232
0.023921567335044403163
0.023850477151541864262
0.023779459227496468898
0.023715019030922445537
0.023653362831307735148
0.023600079813059959138
0.023549594981387818315
0.02350622127653145127
0.017797426534679906124
0.017776763033447905149
0.017764388006646914669
0.017743698212521218094
0.017731491297973120402
0.017710535000054140192
0.017698516800706033669
0.017677833033132223095
0.017666225216064042336
0.017646141307673383902
0.017635293948898372873
0.017615690031042401109
0.017605097218245633478
0.017585837555494213125
0.01757554137464902716
0.017556163962321218869
0.017545972929333016749
0.01752597327485316131
0.017515958652325819972
0.0174899267051271054
0.022845947069227830195
0.022910443339628439041
0.022994754110792221813
0.023102747702428771265
0.023236366120442705774
0.023392704522294631431
0.023567702171712445747
0.023756535997786952519
0.023951750013506908216
0.0241462258426161612
0.024334684377285677181
0.024511015199304792
0.024671191441608082001
0.024811391595554409956
0.02493056710534345341
0.025027077669642891489
0.025101025692448201976
0.025154141191056852284
0.025189727373230854507
0.025211478352139538722
0.025222936607152444261
0.025228969220537092455
0.025231510421742247424
0.025232125456659936641
0.025230716876479108296
0.025223407719636523755
0.025200440487878016799
0.025138573700437382569
0.025067932948168510088
0.024998645055415186222
0.024937637252221596385
0.024878805380715508094
0.024828271555480077581
0.018679336976162246031
0.018666149739395818813
0.018643692398072560928
0.018630861843815731127
0.018608231880995560609
0.018595351835199433466
0.018572497525357698628
0.018559667069943698581
0.018537315272991704285
0.018525255445015917366
0.018503380546605854157
0.018491693178262175873
0.018470183783177177017
0.018458803081842039412
0.018437057596916668623
0.018425665084809604577
0.018403324509208708604
0.018392084637060743951
0.018363199029047531929
0.024098099143323975513
0.024188620886556891354
0.024302308309204521258
0.024438971670216604742
0.0245975268727661317
0.024773211665063833709
0.024960987564322353188
0.025155199735022972657
0.025349525902547916101
0.025538963614899226617
0.025718066249859016653
0.025883600962406144025
0.026031140249120843233
0.026158122575843194973
0.02626307191839602137
0.026345437482065942048
0.026407006158152529496
0.026449594124271558204
0.026476400952894513924
0.026492008598985525292
0.026500173023380424464
0.026504431464688716497
0.026505972312045971567
0.026505844831941106909
0.026502404359822852309
0.026489132947545755703
0.026447142548482002744
0.026379412378981392795
0.026311337638997869121
0.02625083751188433609
0.026192135297171521835
0.026141058698117645293
0.01962824424850432084
0.019614468796840780346
0.01959022750128119883
0.019576704317591644283
0.019552109705002117257
0.019538225467535835778
0.019513259426651649586
0.019499267108008387639
0.019474623464040306114
0.019461233609614981416
0.019437146064215711505
0.019424535846169578568
0.01940083245350897323
0.01938853696642799801
0.019364593345093591981
0.019352060617172751195
0.019327220907640267622
0.019314592819073758689
0.019283172627201219246
0.025490495360761391413
0.02560761934907227963
0.025746659865048260318
0.025904206115996353949
0.026078952237491240945
0.026265089050462740033
0.026456844718101123898
0.026649820869431982417
0.026838784854839304456
0.027020721990375487498
0.027191511134071321559
0.027349008604751590124
0.027489856654869301161
0.027611744138992203729
0.027714410410372061072
0.027796684982283159648
0.027860427803980129108
0.027905660855903176992
0.027936002287856368659
0.027954998125334154513
0.027966294408013504108
0.027971757835490381611
0.027973308993723890181
0.027972536267156487139
0.027966264686175731913
0.027944317359034617776
0.027880652723541093918
0.027803454321632902618
0.027728787048761822237
0.027663801866182172878
0.020616399681405134237
0.02059025261587702979
0.020575681812961672118
0.020549058781165079057
0.020534074404353865745
0.020507124875813388665
0.020491834282797497663
0.020465109477054408554
0.020450554227284187259
0.020424506845386821569
0.020410994120115624056
0.020385294336102831314
0.020372192655224628799
0.020346175020105192882
0.020332656057655662529
0.020305464113845313884
0.020291521553528937827
0.020258631912190711022
0.026886461910574248335
0.027013865152382913332
0.02716156735485672491
0.027330087849412081774
0.027515504384243660851
0.027712111235196037334
0.027915479700627878618
0.02812023561811679423
0.028322119982149007722
0.028515983538048347151
0.028697522699425867532
0.028862987232430043633
0.029007038483862497558
0.029129740663131828415
0.029229230946935164104
0.029306007761326607897
0.029362206642754067054
0.029399819562339318119
0.029423374169886475082
0.029438160225024056355
0.029444972757666890845
0.029446755868189924271
0.02944626780793490467
0.029441489147294771372
0.029424232105486926303
0.029373034036842941147
0.029296987829933222869
0.02922892102565810557
0.021726016715946264851
0.021699559006068624978
0.021684239624761229848
0.02165708917694665267
0.021641489330388237466
0.021614050610441103151
0.021598184193721198243
0.021571258663324977684
0.02155603180947400499
0.021529631082054669078
0.021515497906550131585
0.021489404265541724171
0.021475889082039897188
0.021449132583465549406
0.021435043061300805556
0.02140708028754844186
0.021392557493194675616
0.021361296196992025226
0.028443257796181863062
0.028600688739794249277
0.028776304768280795698
0.028967898222306481121
0.029169822190796078354
0.029376367873515218943
0.029582221115298224651
0.029782278275280439639
0.02997099044787846292
0.030144795098003347028
0.030299905327653999659
0.030433607621162570706
0.030545400547733674718
0.030636059009502201317
0.03070570760577606001
0.03075677499628523201
0.030791610234358134102
0.030813731367771345082
0.030827555102797710856
0.030833814605868120617
0.030835114048228019074
0.030834204822884764274
0.030829159137401026397
0.03081341902091444887
0.030768254266007731557
0.03069955323140130185
0.030636402931273818556
0.022653263027618664172
0.022621750693519102754
0.022597025122281164111
0.022565829011002840054
0.022540768264752826522
0.022509095871082154122
0.022484428598001621191
0.022452537613871448308
0.02242802475162924622
0.022397010056290547059
0.022372018938667883464
0.02234202016830279941
0.022316432144979889834
0.022286273093074519119
0.02226052630337947702
0.022229038385769152308
0.022203547469544636372
0.028994409698570686174
0.029135293580796476492
0.029299210174023426756
0.029482713681220368979
0.029681120764911157056
0.029886154526611363735
0.030091683703824576024
0.030290298408916751377
0.030476072118338835143
0.030644197689824632935
0.030791175520043109759
0.030915182298210990008
0.031015530452043839349
0.031094616809598994017
0.0311546302832678354
0.031197140453575435831
0.031225505976654802792
0.031242802226898597207
0.031252654358547959923
0.031256764210090028089
0.03125810650971345972
0.031257089075197981576
0.031252165628596277613
0.031240046230882789063
0.031209706680383982047
0.031147517990602020116
0.03108648525828927589
0.022650729546796963265
0.022625644997294747096
0.022578922744574597692
0.02255425207593619516
0.02250748475818032876
0.022482439381082183066
0.022434890537350926643
0.022409908667349681677
0.022362293738955166256
0.022337567994787657644
0.022289929091340497658
0.02226554197781238989
0.022217782187329768173
0.022193501408629565108
0.022132505684194524187
0.022140391618313895461
0.023398047419678595638
0.023521427442707628502
0.023671922441590460134
0.023844747912688712271
0.024032619283389344833
0.024224964084432611816
0.02441298156500891145
0.024588559783762939381
0.024746492873473847213
0.024883994780628890947
0.024999383372583651453
0.025092219942944079397
0.025163547402314172946
0.025217552448376770458
0.02525647818517046464
0.025282855440672154929
0.025299742990807085746
0.025309959792124747668
0.025315679414680450354
0.025319179736175142365
0.02532081053564517667
0.025320382975489132832
0.025315944996632998298
0.025302155935772122769
0.025264298214243776503
0.025215267316516395968
0.025166502083213193597
0.025121882172727497129
0.018058877920328411659
0.018022021383607818301
0.018002881840447022832
0.017965920176816470993
0.01794639554603342721
0.017908772281853939379
0.017888937049278162
0.017850890002075989887
0.017831123726361544635
0.017793127258863419143
0.01777369478136157574
0.017735756604978468454
0.017716529708463164827
0.017668613258182877535
0.017684231409101285742
0.021980982145810564615
0.022118533096625668521
0.022279433894788293335
0.022458106350676694529
0.022646391903329607387
0.022835324014614771793
0.023017715016566058644
0.02318691418347289257
0.023336193207545277706
0.023461282747214633887
0.023560616556366247715
0.023636206183231426442
0.02368933743202130543
0.023723892810494216776
0.023743964992669657627
0.023754111435035300814
0.023758264043747784333
0.023760040803377440594
0.023760336155094312349
0.023758547980731268418
0.023750810086633902113
0.023726651482362321605
0.023667775262549577836
0.02359869654880343906
0.023532626291977529892
0.023469149906171445086
0.023411977728970342905
0.017021115567842349386
0.017004976331358372804
0.016974574577199325748
0.016958319883082322022
0.01692726614100860047
0.016910773287822890992
0.016879415634148461217
0.016863094829711367667
0.016832138814195558157
0.016816456049485364183
0.016785666961951072051
0.016770017104461153179
0.016732657230992240699
0.016729499681290709717
0.021314587693744464075
0.021460296022046097819
0.02161753868244531418
0.021781057897183642852
0.02194465754038226607
0.022101188139595048104
0.022245730445034635897
0.022374278621303329145
0.022483216183247656944
0.022571587335850420986
0.022640751991982982494
0.022692530411571355808
0.022729284989695928282
0.022753099734943181554
0.022767289671598453515
0.022774811063936986621
0.022778146837531300373
0.02277993246922542514
0.022780614300894144048
0.022779840052026739672
0.022774940421931521434
0.022759194848496411973
0.022713719069896141228
0.022654659035617568524
0.022596442594247988928
0.022544747488308352484
0.016402238532561216888
0.016373267711980082906
0.016357947176009305507
0.016328563374928106722
0.016313098552296647487
0.016283455870096531781
0.01626822641244717732
0.016238876307893487794
0.016223955016600559442
0.016194784118191900973
0.016179900229614855439
0.016145579397362636032
0.016140319798695419024
0.020617361713397397427
0.020769841586009397949
0.020929357000865501243
0.02109072319789367933
0.021247064262434951776
0.021393797955486636847
0.021526235799622792794
0.021640149711115531928
0.021733786962516692814
0.021808076898621239076
0.021863579510288558977
0.021902123978276885619
0.021926844370984480137
0.02194056621048493666
0.021946933815740927998
0.021949168559512226284
0.021950136294121416758
0.021950376296747925453
0.021949270926981345742
0.021943160933341750857
0.021922230356963529063
0.021868641072873822723
0.02180884447991657607
0.021751938242379469102
0.021700715443185854964
0.01575035039048625421
0.015735571830685784328
0.015707239345602273806
0.015692350876013963501
0.015663835055717410805
0.015649158703662489206
0.015620817958629787045
0.015606365956760664265
0.015578276259564089248
0.015563913336513881397
0.015530746917638775517
0.015525792768277575304
0.020100130066716601768
0.02026072992001185305
0.020422629542356574017
0.020580070860557395096
0.020726488935231893174
0.020855841296627073561
0.0209647507654217094
0.021051216595193593395
0.021115337329244535797
0.021158748373693813533
0.021184848999168181399
0.021197307186424152459
0.021200927317792429144
0.021200435787260711595
0.021198856183574966289
0.021197212441508374997
0.021195282672334857244
0.021190648539510470449
0.021176450330977640568
0.021135093343114207814
0.021074567732143986709
0.021015150066856204403
0.020957584350235047149
0.02090622107911450922
0.01947831744147170141
0.01962486832914483656
0.019765966124421788241
0.019897346852592933536
0.020014060449151185178
0.02011315906680934823
0.020193505444874106786
0.020255355362135261943
0.020300149796627576376
0.020329872058157068271
0.020347054847770537633
0.020354724744735798458
0.020356673901643092262
0.020356116085109426939
0.020355136057618697376
0.020354195744878511576
0.020352560506317559502
0.020346594584966130187
0.020326192840642871157
0.020274493807905417248
0.020217206989490369567
0.020161912178252069938
0.02011268252168190232
0.019010727615139569324
0.019130589797310124101
0.019242878740554140299
0.019343793351962890875
0.019430572845170582946
0.019502229824276292453
0.019558693888068707373
0.019599915497905604639
0.019627039403219234681
0.019642247853541995595
0.019648735807920741231
0.019650204738286797257
0.019649771387435541886
0.019648927586230251902
0.019647646543089376803
0.019643408618422099343
0.019628425845656962551
0.019582466329035833064
0.019518891809740770982
0.019457484995204346601
0.019402369050871618589
0.018593126053940128156
0.018663602354862668387
0.018719156594576021047
0.01876028851277894427
0.018788457236116225257
0.018805871823656693242
0.018814329202688495624
0.018817500178404295702
0.018818131632977356388
0.018817911189947290201
0.018817386822735739094
0.018815961177985937591
0.018809877064575365041
0.018788326135668258904
0.018739268491173983328
0.018687635954740246247
0.018640952505887334323
0.018186949302731576783
0.018199933520149591537
0.018205322833312592018
0.018206379246783390563
0.018205648688263173507
0.018204164709224986141
0.018201201268793359284
0.018192805269324333062
0.018166971112545650391
0.018113139469499110051
0.018058883545985671137
0.018006711199173998372
0.017960244805483732006
0.017366265730698077219
0.017367498001616615139
0.017367362324219783737
0.01736599766183914359
0.017364150791584053585
0.017362840451402305336
0.01736105701255726344
0.017356919301609107648
0.017344432932373574086
0.017313708410355548722
0.017278462788744623074
0.017245820279887812826
0.0085444020001209011056
0.0093049240418441106493
0.0098508749615003401989
0.010120127613263868102
0.010193868947941756367
0.010187595987659725516
0.010108949210890052703
0.0098038114114856658027
0.0094474139750492670126
0.0092489559314581706873
0.0091720419265808334625
0.0091632620358150819462
0.0091827751663248503855
0.0092930898700767199105
0.0096931179209511272171
0.010245070172000731584
0.010652052669898118276
0.010913893610951901081
0.011050976810392416916
0.011102425122739659549
0.016297289673669494714
0.016837126512569113024
0.01828302809120477615
0.019407612812562539256
0.019942168175912138722
0.020073770027827259055
0.020049441520420308721
0.019841639492548888285
0.0190558178055015362
0.018104587584362598351
0.017530302151839198543
0.017270688118850369835
0.017200930456831693693
0.017207109864284926559
0.017279912341996800373
0.017572515449664455334
0.017954872263634492902
0.018185908845161691261
0.018291904546673048298
0.018319032948886655732
0.018314543584063223969
0.018288032420867499778
0.048505007504248680295
0.048653728788379542458
0.049416386638390451258
0.051569109392131946834
0.053395210794404172894
0.05426594520263303828
0.054462364590390520414
0.054401868947358877904
0.054020207067179366878
0.052600059189338348176
0.05054153270049284441
0.04917719833440797883
0.048521760232169787452
0.048325788437921950169
0.048333312459580390907
0.048443416514722600907
0.048866584445974664552
0.049412904169296383017
0.049722497181265354338
0.049827494699192696748
0.049821156075545248998
0.049753999233540215086
0.04956284022779775672
0.049047096578325351246
0.048373232059164425478
0.047815372311192899657
0.2514126007940504226
0.25658139304739702169
0.26465132013155723278
0.27036591257491410234
0.27312395001170491904
0.27371817051613128724
0.27344976694773459602
0.27155817943232019029
0.26555510400309556562
0.25951411569501992016
0.25606604151343403952
0.25470589262520548779
0.25465445891560173353
0.25509711255759304205
0.25699466316367097773
0.26091404389779382367
0.26367470481316845898
0.26514529773636696941
0.26550459962285377635
0.26546041005452952755
0.26494219031972171541
0.26315506137058564118
0.26046617061086208
0.25815639993081151982
0.25633150183167952019
0.25504031318006298301
0.25415763568814880857
0.25369596485316420198
1.4278176704374820893
1.4439782140211556705
1.4553044198014966071
1.4610667516117228359
1.462667736015969
1.4622689274283655614
1.4580103591640929395
1.4442596855057476812
1.4293548001113569601
1.4183649713494057565
1.4119014345689897549
1.4091044794267553186
1.4089393929252287396
1.4100431309286476367
1.4141221755188888576
1.4178554168137023073
1.4194196504739962084
1.4196631231139400509
1.4190507509308283307
1.4162986745114205522
1.4098661635939988557
1.4030412274775982961
1.3966090359223597428
1.3908021104557555248
1.3857763214193998813
1.3815630119365467365
1.3781747701330464562
1.3756183652189246658
1.3735112408354934743
1.3718810657017794785
3.9271321669686525269
3.9225178959637641007
3.9124110442099246931
3.8991323022389630104
3.8837532215146222114
3.8674767962618483708
3.8515310357808334452
3.8370054764379020185
3.8246970667462565352
3.8148684592194648246
3.8071594237541193095
3.8007229854667179403
3.7945022898850568893
3.7875877264587756166
3.7795122674191916623
3.7702874083483370882
3.7601680868497755483
3.7495026635505643853
3.7386307837564602963
3.7279176902659321158
3.7176674732523822264
3.7081174269858228065
3.6992980713967069661
3.6910956383827682181
3.6832757651554377532
3.6757621316771524889
3.6684499884508556811
3.661321964189222733
3.6542631639256417664
3.6471622252497817307
3.6399579950834697328
3.6327416611910101629
6.2268210040818194884
6.2085294936983421721
6.1909162485873778792
6.1742778152697876948
6.1585354180826614723
6.1433439321496470242
6.1283497903033463672
6.1134643885742212532
6.0988664971941863868
6.0847031369631174869
6.0709337214192542476
6.0573162510493085975
6.0437100853816092538
6.0302754425008329164
6.0173525319718503823
6.0052133736569910383
5.9937659363463264839
5.9825881827980280647
5.9712135759129303381
5.9594769244595688917
5.9475497766534966004
5.9357354481482378361
5.9241992771551750252
5.9129572212069385628
5.9019405191798623989
5.8911905348586257603
5.880678193380557417
5.8703927870269945188
5.8601257070643528735
5.8497472950500934985
5.8390639581578680506
5.8283296941009687941
5.8175842320922130924
10.165419459123926416
10.067703220552036925
9.9725848979744586842
9.8795393014124162079
9.789136282972568992
9.7030589895798300404
7.848067383998923674
7.8302866320953450341
7.8135793644510336264
7.7980397189566277305
7.7832552149229883298
7.7685776362831262531
7.7535745405277198827
7.7383214944194929075
7.7232062403276442453
7.7084207408784903848
7.6937535918147883507
7.6788284489321814164
7.6635719306196357081
7.6483465860917005941
7.6338141257731804146
7.6204388244284686493
7.608060420133954338
7.5958780251243274151
7.5831293403705375411
7.5695977528581774862
7.5557061108808438732
7.5420202197940753308
7.5287887866044984619
7.5159416500489637514
7.503328646599224605
7.4908889243697034388
7.4786318267726601405
7.4663913558396419745
7.4538365482543689211
7.4406575870230335923
7.4269412048107614766
7.4129840766161736454
7.3992713548016686431
7.3857303152145608038
9.7519945953282149986
9.6644007145270283132
9.5810153587946551568
9.5014955239590843661
9.4264393662972167931
9.35735135235122506
9.2952756501391746724
7.7855262019730337997
7.7722341069943148284
7.759921130653422594
7.7468243606639157761
7.7312985012979185129
7.712711362606202492
7.6917158797637439349
7.6697107713783987393
7.6478602773832431438
7.626598866235823948
7.6058889077225142472
7.5860580132764461325
7.5679457326624337554
7.5523771927863583286
7.5391824426906310919
7.5268384065465490096
7.5131251408138730596
7.4964901407995707672
7.4770087957537079149
7.4561662537783206517
7.4356297083669131709
7.4161890248774788859
7.3976224213818975173
7.3793249052039255886
7.3607842968287195973
7.3416894093270954613
7.3217539734041450217
7.300703553797421641
7.2785763322135839104
7.2560201240134807321
7.2341618470292194942
7.2139782659823827871
7.1957885455222001525
7.1792031275631167375
7.1636887278799781242
1.2058984258744654553e-06
1.2142055486117921663e-06
1.2192788940480401169e-06
1.2255877908680858801e-06
1.2326255526186404708e-06
1.2363080760242456759e-06
1.2441856294685302915e-06
1.2523452050036573139e-06
1.2602951900770049808e-06
1.2695090499542177487e-06
1.2843007666989946218e-06
6.6338957769757194989e-05
6.6281120975741222531e-05
6.6104643782166237417e-05
6.5694292126648742652e-05
6.5282927030130397019e-05
6.4910305001811215196e-05
6.4568567611038705958e-05
6.4254694161993238704e-05
6.3972471075287519102e-05
6.3726593631228815092e-05
6.352063698457366403e-05
6.3348618092500091881e-05
6.3212058639520841779e-05
6.3115430687696601306e-05
6.3059738854117001572e-05
6.3030766891464609387e-05
6.3005151812641163687e-05
6.2961603444006158546e-05
6.2871820030931777784e-05
6.2661855524255092166e-05
6.2103504052130991927e-05
6.0460093600928616997e-05
5.5991068741679909937e-05
5.036451466918595262e-05
4.4889184665454772176e-05
3.965637313148213407e-05
3.4746725698179435008e-05
3.0224476649139039977e-05
2.6117515820010014075e-05
2.2447893231242945514e-05
1.9204101062921670429e-05
1.6382098197177020094e-05
1.3940462741445749424e-05
1.1865156177087413886e-05
1.0098203264881946929e-05
8.6342852501109165628e-06
1.2165378147950205429e-06
1.2189499731821986937e-06
1.2224136734498372631e-06
1.2251543612842524774e-06
1.2289505435747587203e-06
1.2332980784946487406e-06
1.2362535860808508902e-06
1.2422026714025229676e-06
1.2458071563073727088e-06
1.2532439266056067644e-06
1.2586709828572537721e-06
1.2671266064064092287e-06
1.2721285252406349594e-06
1.2784498111452425053e-06
1.2857492806272294502e-06
1.2895382496892703537e-06
1.297390004079731225e-06
1.3055980394553564668e-06
1.3138809423919872992e-06
1.3239724065480515016e-06
1.3372329388268637502e-06
6.6514624569601055182e-05
6.6422047863329993877e-05
6.6127921676608676519e-05
6.5802558237090740087e-05
6.5567406776165056332e-05
6.5415364354691853729e-05
6.5331379036644818986e-05
6.5296298148944124842e-05
6.527491702881887362e-05
6.5263745714720484904e-05
6.5279943784043249809e-05
6.539488859004014931e-05
6.5623304757800353859e-05
6.5788155388146564765e-05
6.5893202186589818359e-05
6.5948858323882698397e-05
6.596877406331288021e-05
6.5969007979576924322e-05
6.5951508854969600809e-05
6.5861059452846330972e-05
6.552832076830498423e-05
6.4425425153109394227e-05
6.087947154328325909e-05
5.4513601490066397473e-05
4.8284009377636952817e-05
4.2416387153621893746e-05
3.697750228426344572e-05
3.2017653969989491483e-05
2.7554672181645306541e-05
2.359910490543913516e-05
2.0126851921040636329e-05
1.7121536036328328771e-05
1.4531212154319999449e-05
1.2335447054656539787e-05
1.0471538680296939416e-05
8.9339270756819701396e-06
1.2780947589389802065e-06
1.2798629192964067667e-06
1.2821840231634294412e-06
1.2843451231529483422e-06
1.2872639175021433873e-06
1.2922695926532952497e-06
1.2954843718245112719e-06
1.301879311015266919e-06
1.3051795998220361772e-06
1.3116081620348941905e-06
1.3161840622516710532e-06
1.3243296939612718563e-06
1.3290359648063253034e-06
1.3360826559217243981e-06
1.3425692287769869649e-06
1.3481487654769232031e-06
1.3549029317939272445e-06
1.3628734271981944512e-06
1.3722741587355977566e-06
1.3826870550253261391e-06
1.3940615118684035414e-06
6.8100017709877755639e-05
6.7780140087702429527e-05
6.7554861298631873148e-05
6.7394434231940930679e-05
6.7283631756765132758e-05
6.7209091975980095237e-05
6.7158243892952298537e-05
6.7120247835500488742e-05
6.7087085374573272542e-05
6.7073842091168442751e-05
6.7100654838443091568e-05
6.7258573740958143465e-05
6.7486799885688457563e-05
6.7651648504935088958e-05
6.7755105353654407232e-05
6.7808260590640400604e-05
6.7825069918990622841e-05
6.7822595239820922621e-05
6.7779284263525481683e-05
6.7571049398985574179e-05
6.6821749729439327572e-05
6.4345473827322790714e-05
5.8208212042591786928e-05
5.1543108213327849603e-05
4.5265343094163466289e-05
3.9449690903890578038e-05
3.4141417976142274184e-05
2.9378059667376182055e-05
2.5149727701428428798e-05
2.1453519858407064041e-05
1.8232370627261727661e-05
1.5469810282394217944e-05
1.3096050703757349383e-05
1.1115457793603401095e-05
1.3384755108367873128e-06
1.3408473656371319523e-06
1.3430526720637501916e-06
1.3457676069065472928e-06
1.3512087867034985333e-06
1.3548723004389081611e-06
1.3614981871366436693e-06
1.3647605459487370052e-06
1.3704560146224709051e-06