/*--------------------------------*- C++ -*----------------------------------*\
  =========                 |
  \\      /  F ield         | OpenFOAM: The Open Source CFD Toolbox
   \\    /   O peration     | Website:  https://openfoam.org
    \\  /    A nd           | Version:  12
     \\/     M anipulation  |
\*---------------------------------------------------------------------------*/
FoamFile
{
    format      ascii;
    class       volScalarField;
    location    "0.0058";
    object      nut;
}
// * * * * * * * * * * * * * * * * * * * * * * * * * * * * * * * * * * * * * //

dimensions      [0 2 -1 0 0 0 0];

internalField   nonuniform List<scalar> 
106891
(
6.9199180262788427968e-06
6.9135142472594534701e-06
6.9059094028749242977e-06
6.8996301386951911018e-06
6.8921358465812275026e-06
6.885942732545903425e-06
6.8784765795447473628e-06
6.8722486164190197815e-06
6.8646625509080730996e-06
6.8584543084357234004e-06
6.8499429229117512449e-06
9.8824702460748994133e-06
9.8922248741188761439e-06
9.9019818331337251967e-06
9.913342651223013024e-06
9.9277560921858479411e-06
9.946399923373938794e-06
9.9694749869114588118e-06
9.996862216316861581e-06
1.0027711639691840539e-05
1.0060609711540584096e-05
1.0093985983246459397e-05
1.012618786016321238e-05
1.0155474884828533279e-05
1.0180876129334591064e-05
1.0201648202179456658e-05
1.0217651010623774943e-05
1.0228833859150054757e-05
1.0235224224342339859e-05
1.0237214741387256695e-05
1.0235597265805475414e-05
1.0231349315833082359e-05
1.0225604003919082623e-05
1.0219074912873311897e-05
1.0212240659167127679e-05
1.0205141988028556212e-05
1.0197671526508052953e-05
1.018965496791241187e-05
1.0180513080722452393e-05
1.0168164456490038345e-05
1.0151038821694509409e-05
1.0133119465259588711e-05
1.0116111085144398671e-05
1.00993456039008538e-05
1.0083847778372531241e-05
1.0068657650168835852e-05
1.0054564182308068564e-05
1.0040424947096198812e-05
1.0027164517236204704e-05
7.3489317820858886593e-06
7.3403145129195550259e-06
7.3329690182879454444e-06
7.3242574839119838e-06
7.3169555979651069752e-06
7.3081842489585145559e-06
7.3009017047740264257e-06
7.2922487704766439937e-06
7.2851360403259384966e-06
7.2767123790118316167e-06
7.2698404103326790644e-06
7.2615766829704286796e-06
7.2548419890271500932e-06
7.2466844251687231873e-06
7.2399996412839135861e-06
7.2318783483316709701e-06
7.2252015577088974535e-06
7.2169423113763148765e-06
7.2102770319240303912e-06
7.2009146386889214437e-06
1.0405722690702335259e-05
1.0417448870432243478e-05
1.0430904746897060839e-05
1.0447758058656371179e-05
1.0469150145150990779e-05
1.0495168273725388335e-05
1.0525537242383343876e-05
1.0559324263450924221e-05
1.0594982531297741866e-05
1.0630817076494461027e-05
1.0665145351225486568e-05
1.069612870412194893e-05
1.0722951588156320578e-05
1.0744966967071151363e-05
1.0762002883193615659e-05
1.0774012490408528951e-05
1.0781052254402763972e-05
1.0783470823987100756e-05
1.0782067421180061364e-05
1.0777852237821019751e-05
1.077196769158051674e-05
1.0765212341881487336e-05
1.0758100599465712815e-05
1.0750689122160650356e-05
1.0742882351757732085e-05
1.0734235867556681332e-05
1.0723718042114564105e-05
1.0708160523010041865e-05
1.0688318164337502018e-05
1.0669230090268865143e-05
1.0650387997812834945e-05
1.0632901189673684537e-05
1.0615983065234293084e-05
1.0600421704112585221e-05
1.0585023268356447135e-05
1.0570453992212987946e-05
7.7298438398627788461e-06
7.7204604717681871992e-06
7.712573803852697493e-06
7.7031202191578663612e-06
7.695293530505481174e-06
7.6857846836990653823e-06
7.6779961925496207942e-06
7.6686402384399906303e-06
7.6610504929764483507e-06
7.6519356392527526829e-06
7.6445779833485107618e-06
7.6356152993615313614e-06
7.6283524403261804728e-06
7.619476011961890584e-06
7.6122776948806454656e-06
7.6034230357966138786e-06
7.5962453320434975942e-06
7.5872381763446208186e-06
7.5800850597042271884e-06
7.5698546774622470123e-06
1.0976962570199020195e-05
1.0985045109880202664e-05
1.0995974298492750394e-05
1.1011113475342691937e-05
1.1031014139534131005e-05
1.1055713774772970158e-05
1.1084843827261052168e-05
1.1116960999477706372e-05
1.1150633266643921845e-05
1.1184413198165621021e-05
1.1216674281637209218e-05
1.1246227239266332805e-05
1.1272302012568079317e-05
1.1294528962918497808e-05
1.1312649099496411523e-05
1.1327064845696036403e-05
1.1337727139070259024e-05
1.1344570024318028983e-05
1.1347815784114792114e-05
1.1347957246698563895e-05
1.1345497775437362204e-05
1.1341235605296442289e-05
1.1335573246778054906e-05
1.1328899368788394024e-05
1.1321398838468213507e-05
1.1313382805996262531e-05
1.1304564390846763528e-05
1.1294059388835487527e-05
1.1278518751215736363e-05
1.1256089992189863085e-05
1.1233479517398423358e-05
1.1212640150749919108e-05
1.1192558301418180624e-05
1.1174273576403984494e-05
1.115628319522130297e-05
1.1139517362738416125e-05
8.1201298677998231493e-06
8.1117167890827775699e-06
8.1015300125222816625e-06
8.0931789058120927305e-06
8.0829762327418192968e-06
8.0746938291902100535e-06
8.0645992968212880478e-06
8.0564712136800094224e-06
8.0466019621619818021e-06
8.0387261106375539266e-06
8.0290032395304519616e-06
8.0211715610135152877e-06
8.0115180589787130514e-06
8.0037632961017542556e-06
7.9941141457296572637e-06
7.9863958830387829789e-06
7.97659823672716249e-06
7.968929142245355051e-06
7.9578208944487928346e-06
1.1550694068365805877e-05
1.1558035561365936718e-05
1.1571192252356312578e-05
1.1591255307689983791e-05
1.1618250539964608369e-05
1.1651759718143765812e-05
1.1690714116673585696e-05
1.1733270750641781565e-05
1.1777665621126612397e-05
1.1821792455015727171e-05
1.1863546874409697549e-05
1.1900972105971638262e-05
1.1933111419419652481e-05
1.1959035854409875025e-05
1.1978177564533475192e-05
1.1990553391208002529e-05
1.1996666194365973959e-05
1.1997506720486473609e-05
1.1994311873585015863e-05
1.1988462782013078569e-05
1.1981218477356129663e-05
1.1973275083433974498e-05
1.1965002804575580286e-05
1.1956280849855758735e-05
1.194612657170678017e-05
1.1932216014760680206e-05
1.1908928692622988417e-05
1.1882964015655763588e-05
1.1857021292701161897e-05
1.183272355283921664e-05
1.1809126996730199397e-05
1.1787628735932826547e-05
1.1766838718221700488e-05
1.174783549539613031e-05
8.5511653153423919317e-06
8.5402661718549556654e-06
8.5313656643792862419e-06
8.5204762343066453741e-06
8.5116311764398120863e-06
8.5006937826062937779e-06
8.4919090611207171299e-06
8.4810530359345839564e-06
8.4723816964249039851e-06
8.461685410253062139e-06
8.4532111444319101424e-06
8.4426456571392032876e-06
8.4342469495723456876e-06
8.4237795766525340186e-06
8.415466355788264288e-06
8.4049863646772656042e-06
8.3967126928653054496e-06
8.3860993881487279296e-06
8.3778823057408374075e-06
8.3658420524848315871e-06
1.2158337266049875413e-05
1.2167033857523815374e-05
1.218093768988103576e-05
1.2201030733420796802e-05
1.2227767587474972351e-05
1.2260315733357886201e-05
1.2297545108490443236e-05
1.2338140970778379915e-05
1.2380128777572039413e-05
1.2421657003424915771e-05
1.2461379706476765727e-05
1.2497763064169718154e-05
1.2529826740030371101e-05
1.2556654144702259011e-05
1.2578035506463135113e-05
1.2593608116911064629e-05
1.2603443102015092616e-05
1.2608011169304774731e-05
1.2608166578546817723e-05
1.260485132503586734e-05
1.2598961886419968262e-05
1.2591720010359092448e-05
1.2583611338188250894e-05
1.2575027857810329768e-05
1.2565946316493022434e-05
1.2555402841223818006e-05
1.2540972178694757128e-05
1.2516872307629458121e-05
1.2490595206736722231e-05
1.246466106210738245e-05
1.2440798528188664013e-05
1.2417487555962745244e-05
1.2396257305534271782e-05
8.9820413968484258546e-06
8.9726362808452149699e-06
8.9610112348815090268e-06
8.9517077834511849671e-06
8.9400581876067146766e-06
8.9307587451395332859e-06
8.9190721864520712059e-06
8.9098005398654620142e-06
8.8982514886578322497e-06
8.8891805457482015655e-06
8.8777626871751899265e-06
8.8687966545826939143e-06
8.8574831158061781709e-06
8.848606042476303538e-06
8.8372525101303354652e-06
8.8283879928031580158e-06
8.8169084998101512706e-06
8.8080959482779425497e-06
8.7950658582420247392e-06
1.2802907932471068304e-05
1.2818026043896097813e-05
1.283919295097618417e-05
1.2866303546399389488e-05
1.2899011140209803967e-05
1.2936006329047633625e-05
1.2975924543772959408e-05
1.3017263054118246532e-05
1.3058373420044010904e-05
1.3097975217070480754e-05
1.3134696792209189198e-05
1.3167751168563685444e-05
1.3196058309707340298e-05
1.3219020676462110706e-05
1.3236315938869946688e-05
1.3247851077170545977e-05
1.3254113344208329439e-05
1.3255587157234844628e-05
1.3253094814148299625e-05
1.3247796269446162265e-05
1.3240638196922414622e-05
1.3232508356303027911e-05
1.3223705456694886782e-05
1.3214492524973780259e-05
1.320446071103088859e-05
1.3191988650263711196e-05
1.3172376705606900766e-05
1.3146365105487771525e-05
1.3120275713492707918e-05
1.3096083827495071862e-05
1.3072350503048707043e-05
1.3050531043069224491e-05
9.4467910569199612942e-06
9.4369189529698234464e-06
9.4245377037519291572e-06
9.4147430993924087668e-06
9.4022947711072804778e-06
9.3924301759628468523e-06
9.3799104602215389355e-06
9.3700367532773049157e-06
9.3576123835791034185e-06
9.3479001880079046655e-06
9.3356271746649290466e-06
9.3261187730465518425e-06
9.3139556663133073276e-06
9.3045392040703900658e-06
9.2923360634192618383e-06
9.2828790501424935077e-06
9.2704786082648544111e-06
9.2610151792325639489e-06
9.2470547467878591255e-06
1.3500628675655250191e-05
1.3522214611421856772e-05
1.35494615281139969e-05
1.3581417460422200521e-05
1.3617688364382349623e-05
1.365671126033943471e-05
1.3696956593718703947e-05
1.3737274268020132281e-05
1.3776319717916853005e-05
1.3813337724362345871e-05
1.3847302959389235996e-05
1.387770600708985453e-05
1.3903735372688263774e-05
1.3924850546674477343e-05
1.3941028375786233907e-05
1.3952012560582309134e-05
1.3958302728286028192e-05
1.3959930152407162024e-05
1.3957819729232872545e-05
1.3952870280284931334e-05
1.3945999723311766486e-05
1.3937678299860773232e-05
1.3928387617276439151e-05
1.3918524961114606985e-05
1.3907302092011515615e-05
1.3892191961746999743e-05
1.3866723584418157872e-05
1.3837898314973897014e-05
1.3809710036538268773e-05
1.3783941554271149683e-05
9.9265337012589472039e-06
9.9133493926308244429e-06
9.9029608000403306138e-06
9.8896808402424906065e-06
9.8792105510766954976e-06
9.8658709529167390331e-06
9.8553448828423855676e-06
9.8420782162620600665e-06
9.8317467627342651645e-06
9.8186617521354937913e-06
9.8085984388219176155e-06
9.795615644926980434e-06
9.7856684431042877023e-06
9.7726279322230461514e-06
9.7625978609460771404e-06
9.7492940657420812769e-06
9.7391797964084213371e-06
9.7245273070776736408e-06
1.4216061987090515212e-05
1.4239810545871744334e-05
1.4268772964425152357e-05
1.4303031488651997663e-05
1.4341503616606512248e-05
1.4382656924829460799e-05
1.442531245129551893e-05
1.4468067474715116862e-05
1.4509828982679154268e-05
1.4549295312474942932e-05
1.4585400272286160205e-05
1.4617232452546393827e-05
1.4643489398258265787e-05
1.4664239917819957528e-05
1.4679062155063911843e-05
1.4688123379114815555e-05
1.4691992362026464841e-05
1.4691192444710031467e-05
1.4686872317789909255e-05
1.4680362547445595091e-05
1.4671867419008295579e-05
1.4662124742876380892e-05
1.4651823477650075325e-05
1.4640462686472682723e-05
1.4626009503275545407e-05
1.4603133430134334692e-05
1.4574091815442149076e-05
1.4547044740493768431e-05
1.0455156128759784704e-05
1.0441533558428649358e-05
1.0430600222069661564e-05
1.0416830813305745664e-05
1.0405848707333433822e-05
1.0392029804870238154e-05
1.0381002333298543645e-05
1.036732655480811116e-05
1.0356471389180833218e-05
1.0342941364451257882e-05
1.0332367287086439693e-05
1.0318930563181990547e-05
1.0308523015900679582e-05
1.0294946697560769465e-05
1.0284419482734640463e-05
1.0270573335330264835e-05
1.0259960520640509332e-05
1.0245343021584687437e-05
1.4991661765417683036e-05
1.502265587946946029e-05
1.5058244768505404937e-05
1.509780110293814963e-05
1.5139811375719492391e-05
1.5182769168988229631e-05
1.5225294309349380071e-05
1.5266083458480468604e-05
1.5303740329582589874e-05
1.5337394036487018393e-05
1.5366126695974768158e-05
1.5389299760698835386e-05
1.540683457909930169e-05
1.5418968557145382474e-05
1.5425768017880821194e-05
1.5427871231403650647e-05
1.5425888031301002764e-05
1.5420714160588947221e-05
1.5413463884959829534e-05
1.5404326070310675554e-05
1.5393955288614512164e-05
1.5383040538139185536e-05
1.5371102356147428375e-05
1.5356508568277161896e-05
1.5334595911298699172e-05
1.5306831541233902738e-05
1.5280463509357204108e-05
1.0945950443029705247e-05
1.0930740055265391033e-05
1.0917179762327328596e-05
1.0902066843812869022e-05
1.0888446405419006339e-05
1.0873239469183827597e-05
1.0859734852518541055e-05
1.0844496108307172223e-05
1.0831049509372049121e-05
1.081604329219224704e-05
1.0802501873238142289e-05
1.0787761780748738298e-05
1.0774096869692870699e-05
1.0759338853571553124e-05
1.074565621602000086e-05
1.0730598185710286144e-05
1.0716997891479838366e-05
1.554061260600151715e-05
1.5567506830114771299e-05
1.5600398382483343277e-05
1.5638310309244816948e-05
1.5679947846407525896e-05
1.5723088227823865784e-05
1.5766106048505092142e-05
1.5807068743168153446e-05
1.584445951311619309e-05
1.5877072474465828193e-05
1.5904052509969431224e-05
1.5924981588100313809e-05
1.5939731676017161906e-05
1.594896008297059381e-05
1.5953259665887172051e-05
1.5953056159949867497e-05
1.5949225885086473059e-05
1.5942565988546931202e-05
1.5934008870690288253e-05
1.5923992897870380868e-05
1.5913278628572960765e-05
1.590197131028601917e-05
1.5889679073475585592e-05
1.5875567827476478439e-05
1.5856840002295987622e-05
1.583003554434369572e-05
1.5803538729658286649e-05
1.1222169315709222876e-05
1.1208166417026306456e-05
1.1188814195069218113e-05
1.1174935748984215879e-05
1.1155593200413749626e-05
1.1141643773259433112e-05
1.1122128219987835842e-05
1.1108216357976162853e-05
1.1088704938942488628e-05
1.1074878337144665737e-05
1.1055381413188603194e-05
1.1041660488295896897e-05
1.1022153955299064519e-05
1.1008481064758107677e-05
1.0985710399259507859e-05
1.0980038675813284311e-05
1.2153185911115397427e-05
1.2176726091129995539e-05
1.2207137352047326646e-05
1.2243111396139819708e-05
1.2282714390345331995e-05
1.2323206831666509817e-05
1.2362347439050987174e-05
1.2398108883368257811e-05
1.2429226325943272866e-05
1.2455055999576818986e-05
1.2475232514297573264e-05
1.248969721595490915e-05
1.2498752451629127871e-05
1.2503470306331690776e-05
1.2504428948592595744e-05
1.250227061003236305e-05
1.2497762161991888573e-05
1.2491606507302696502e-05
1.2484344032073602619e-05
1.2476538669922039706e-05
1.2468277789325079725e-05
1.2459515929628979102e-05
1.2449774150616054093e-05
1.243774166115798581e-05
1.2419804346605800891e-05
1.2399132181947336218e-05
1.2378536358993510471e-05
1.2358971256297850329e-05
8.7170352381727141073e-06
8.7020893387129825172e-06
8.6914286549403195324e-06
8.6764736787522426332e-06
8.6657370188290192253e-06
8.6506384522380958392e-06
8.6398437588670046867e-06
8.6246588329605221703e-06
8.6138977292646380147e-06
8.5987409153709290873e-06
8.5880773415115806434e-06
8.5729504722598017658e-06
8.5623534195590231895e-06
8.5448298754323569242e-06
8.5426703824588198468e-06
1.1546764338583366148e-05
1.1574794328311366223e-05
1.1608752838311775832e-05
1.1647116587491824572e-05
1.1687718197602314722e-05
1.1728222008811210232e-05
1.1766791559642150204e-05
1.1801760581569028551e-05
1.1831469685088965744e-05
1.1854901036986954045e-05
1.1871722829515120437e-05
1.188249593794380914e-05
1.1887584400755352287e-05
1.1887991876970372069e-05
1.1884762611782659413e-05
1.1879048386263707694e-05
1.187183838106119621e-05
1.1864039422301129e-05
1.1855875964821468554e-05
1.1847198659875888131e-05
1.1837045139910947375e-05
1.182280924461244525e-05
1.1799933020066912445e-05
1.1774519638291063356e-05
1.1749861738335749304e-05
1.1725857267215033641e-05
1.1703434849296177073e-05
8.295715568377657874e-06
8.286024738497703543e-06
8.2728666831054331301e-06
8.2631636642642923259e-06
8.2498627071318490658e-06
8.2401176082046935809e-06
8.2267584699187230239e-06
8.2170712217198579001e-06
8.2038257794978255516e-06
8.1943098509265002992e-06
8.1811209139511234051e-06
8.1716287898926092146e-06
8.1568542289797199947e-06
8.1504218400555149157e-06
1.1145810270008784008e-05
1.1176077348123936186e-05
1.120915910795309436e-05
1.1243661513631348779e-05
1.1277972954370910004e-05
1.1310266089088082179e-05
1.1339312223817520607e-05
1.1364131906583457976e-05
1.1383854335667918957e-05
1.1398285462998537267e-05
1.1407809730560666145e-05
1.1412917426229457764e-05
1.1414225961449600392e-05
1.1412275066031982228e-05
1.1407907178298209877e-05
1.1401869615970997539e-05
1.1394787745921820511e-05
1.1387322713475414953e-05
1.1379586849661382287e-05
1.1371492810640887423e-05
1.1362375496239166415e-05
1.1350560984088875076e-05
1.1331342616484627194e-05
1.1308744132523021917e-05
1.1286363044115665989e-05
1.1265618341570803342e-05
7.9826635844724807661e-06
7.9700732621636051869e-06
7.9608125803720113399e-06
7.9481371709009357126e-06
7.9388566901373672924e-06
7.9261336262633764452e-06
7.9169257125827913343e-06
7.9042891581375646326e-06
7.8951714593917994713e-06
7.88259380277358576e-06
7.8735003727298181526e-06
7.8596845664112332516e-06
7.8529482214019359046e-06
1.0745488049098808115e-05
1.0777661991181263393e-05
1.081145828093604766e-05
1.0845521421759966703e-05
1.0878087128754992632e-05
1.0908006272718087735e-05
1.0934120289578408587e-05
1.0955401487985143533e-05
1.0971455276252438561e-05
1.0982560033661798558e-05
1.0988891891538048309e-05
1.0990937821008996296e-05
1.0989503413731134253e-05
1.098530915100934652e-05
1.09792749639134437e-05
1.0972210686227528898e-05
1.0964834444634040202e-05
1.0957281516528316866e-05
1.0949398225964727707e-05
1.0940273078542685599e-05
1.0927461966264211894e-05
1.090652000113745621e-05
1.0884036670322216132e-05
1.0862280563876983256e-05
1.0841950699711085546e-05
7.66792396308229316e-06
7.6590044069009702657e-06
7.6467933185982313158e-06
7.6378617500806956825e-06
7.625620801420722808e-06
7.6167555714804162828e-06
7.6045719594936004362e-06
7.5957759884701404603e-06
7.5836681780711061863e-06
7.57490848516014287e-06
7.5615795686983567999e-06
7.5551243088730279333e-06
1.0400290175892709004e-05
1.0434506962049817667e-05
1.0468840569828575813e-05
1.0501819651613578178e-05
1.0531794081230856001e-05
1.0557272052757011519e-05
1.0577452288769191981e-05
1.0591883364555620977e-05
1.0600637133903641546e-05
1.0604160937056694575e-05
1.0603332408879147792e-05
1.0599085698517545054e-05
1.0592631207797626616e-05
1.0585154088362052586e-05
1.0577410794262225862e-05
1.0569657144439594185e-05
1.0561837881629292031e-05
1.0553350968541805105e-05
1.0542490200543668406e-05
1.0524878133421915582e-05
1.0502500121037321694e-05
1.0480402741062450205e-05
1.0458772164741361309e-05
1.0438695446727309392e-05
1.003594250983183618e-05
1.0066631884959205875e-05
1.0095741035143460755e-05
1.0122205048962376747e-05
1.0144800610965809982e-05
1.0162824432123877753e-05
1.017603292547951082e-05
1.0184528920826591868e-05
1.0188705289856585343e-05
1.0189082262095401976e-05
1.0186310035221418936e-05
1.0181156099621926448e-05
1.0174574493400098207e-05
1.0167371029243535625e-05
1.0160067290539935293e-05
1.0152778691681089355e-05
1.0145322109216976521e-05
1.0136792242094200758e-05
1.0124674437409938684e-05
1.0104769777314331558e-05
1.0083478083502367097e-05
1.0062687969468355118e-05
1.0043417409315438666e-05
9.7121773434959162195e-06
9.735982415574921805e-06
9.7577343253277056966e-06
9.7764944154908556766e-06
9.7915963895887132178e-06
9.8028239472430655528e-06
9.810188663715381754e-06
9.8137027857982345267e-06
9.8136726062684727037e-06
9.8106578175213162937e-06
9.8054653271541198463e-06
9.7990237051366853099e-06
9.7921123150820094257e-06
9.7851035963946043212e-06
9.7779910852923610203e-06
9.7701484108910133496e-06
9.7596408898610692394e-06
9.7414400706606512942e-06
9.7188619659686018855e-06
9.696824922564824061e-06
9.6763584862499693552e-06
9.3956096171730470678e-06
9.4068638885423305957e-06
9.4143129089887691267e-06
9.4181068589104568458e-06
9.4186310352233261088e-06
9.4164526407340265869e-06
9.4120305198331247827e-06
9.406288362891525865e-06
9.3999153342388746483e-06
9.393333999809991885e-06
9.3866814696687027238e-06
9.3798090053379025303e-06
9.3717811063576364375e-06
9.3599077767886446305e-06
9.3411900514433116759e-06
9.3218356252838790722e-06
9.3037209234183700589e-06
9.0899230689096797444e-06
9.0868539348883251217e-06
9.081889329772852308e-06
9.0758471322654591426e-06
9.0693638494538033901e-06
9.0626976524659545395e-06
9.0556682934661108354e-06
9.0472935600623637618e-06
9.0345905765104148364e-06
9.0149318052585787652e-06
8.9951704174725677506e-06
8.9759311627199281027e-06
8.9581185685196160223e-06
8.7070276386420055674e-06
8.7012910873898778136e-06
8.6952158591233180674e-06
8.6888374249038527122e-06
8.6823430879702355743e-06
8.6759876056723818041e-06
8.6695186270553990055e-06
8.6624669626295520253e-06
8.6533384173968380421e-06
8.6396679633423440235e-06
8.6248772003794382395e-06
8.6107437296541043697e-06
4.4876208495408285865e-06
4.6798302835256825358e-06
4.8118209351379042239e-06
4.8737518748699032057e-06
4.8880800612204507364e-06
4.8831831248956808871e-06
4.860920612216333204e-06
4.7836716482798970635e-06
4.6926560923954377012e-06
4.6398824322038054925e-06
4.6173415777399241241e-06
4.6119268221921391981e-06
4.6136293049227388103e-06
4.6380364426402749076e-06
4.7335198535039875619e-06
4.8630450227336837539e-06
4.9552530895681865184e-06
5.0123041119201670887e-06
5.0401824252109109133e-06
5.0483936877276913962e-06
6.0837688094985796093e-06
6.1794150156263702933e-06
6.4348111588386979566e-06
6.6251569229193228871e-06
6.711114734890306464e-06
6.7285473880522310062e-06
6.7198000374781192301e-06
6.680244435893494765e-06
6.5420783239951940896e-06
6.3722767379872208814e-06
6.2660430991982560853e-06
6.2151535750684039014e-06
6.1982827016387706767e-06
6.1950917530069603159e-06
6.2038731803447167069e-06
6.2518345683207756578e-06
6.3150971672651631307e-06
6.3511847921037362945e-06
6.3652442612042552174e-06
6.3655399694463803441e-06
6.3603409124604726025e-06
6.3513230426838952639e-06
1.0309785265171661573e-05
1.0318409594505072231e-05
1.0391746846830591047e-05
1.0608311102643057643e-05
1.0787006771509834546e-05
1.086705465673164964e-05
1.0879145339482580913e-05
1.0865552357073815178e-05
1.0819853684770475217e-05
1.0669271059528122301e-05
1.0451152938739298139e-05
1.0301969442201287753e-05
1.0225981584904466137e-05
1.0198224625133842962e-05
1.0191937365232567829e-05
1.0196455191688910845e-05
1.0233782720294896384e-05
1.0283684782397839057e-05
1.0308688079049348706e-05
1.031240178933573524e-05
1.0304586446315152742e-05
1.0290489427273927768e-05
1.0263571046076369844e-05
1.0202942016457875645e-05
1.0125574801570943036e-05
1.0060029888945475358e-05
2.3040374880005499807e-05
2.3259853056313029311e-05
2.360640134258871399e-05
2.3843339824733272711e-05
2.3948007196475832128e-05
2.3957399150500315299e-05
2.3929024804363265873e-05
2.3829560474068298029e-05
2.3548339099146795022e-05
2.3262790737053074268e-05
2.3091688053206742206e-05
2.301428839677417443e-05
2.2995987504274552305e-05
2.2999985365659914239e-05
2.3069341995191384884e-05
2.3228451004003517058e-05
2.3334802136580126822e-05
2.3383537896019815556e-05
2.3383130129636453065e-05
2.3364950707346305117e-05
2.332592724000137163e-05
2.3230982938708057448e-05
2.3095945785362938143e-05
2.2977348096988673147e-05
2.288009447525105218e-05
2.2806550635958804097e-05
2.2751243403122760448e-05
2.2714788761332669622e-05
5.3897929973245508727e-05
5.4164457385079374041e-05
5.4338715401820893288e-05
5.4408385479486884089e-05
5.4400390526761916983e-05
5.4355208884399208887e-05
5.4238318227246899673e-05
5.3944468828265913242e-05
5.3628131513509774253e-05
5.3384479024334781675e-05
5.3225722665374962535e-05
5.3136059120823051893e-05
5.3096056452788171522e-05
5.3079970863958147456e-05
5.3119785208743007727e-05
5.3152926876932608965e-05
5.3145314821637672155e-05
5.3112970929277124885e-05
5.3064646422115487186e-05
5.2976358452406370318e-05
5.281922056861922002e-05
5.265463752640154422e-05
5.2497328276827503904e-05
5.2351703150523877517e-05
5.2220746940784077284e-05
5.2105099169018960926e-05
5.2005034923230595277e-05
5.192070658888322637e-05
5.1844905509116629815e-05
5.1778155574188342893e-05
8.7743137014788393727e-05
8.7630690160231129162e-05
8.7456958569641737216e-05
8.7247799947405964239e-05
8.7015111043390499222e-05
8.6772296307251360809e-05
8.6533107472391805203e-05
8.6309812914422655837e-05
8.6111440404457805062e-05
8.5941015871343352231e-05
8.5794529618710228249e-05
8.5662459860432293274e-05
8.5532902353431945449e-05
8.5395604351647087056e-05
8.524529391969102286e-05
8.5082085855378968291e-05
8.4908837696094410764e-05
8.4729465413648194267e-05
8.4547795567670771524e-05
8.4367955321330208329e-05
8.4193391483510307549e-05
8.4026802866800614621e-05
8.3868549076574847186e-05
8.3717351912173214854e-05
8.3570561086532705393e-05
8.3427315003768498037e-05
8.3286427751612032711e-05
8.3147703924412827317e-05
8.3009840093922410208e-05
8.287157150100863995e-05
8.2732202568640633516e-05
8.2592768657018471963e-05
0.00010837937571353118262
0.00010814493781505135129
0.00010791645042243885031
0.00010769651199850505542
0.00010748445108194951939
0.00010727726747149309743
0.00010707187982648569294
0.00010686751596877075248
0.00010666574021994806322
0.00010646784217161156419
0.00010627347150355239205
0.00010608051333568865469
0.00010588773697103839226
0.00010569654628896378492
0.00010550992551113259877
0.00010533026500250221096
0.00010515676365723470502
0.00010498572293769368926
0.00010481304979985759795
0.00010463729244403495227
0.00010445995434734039531
0.00010428369816392668633
0.00010410997731717390089
0.00010393893383454367565
0.00010376996495575005876
0.00010360343557087003908
0.00010343909127074863254
0.0001032768388924645191
0.0001031148439851183675
0.00010295196547975232304
0.0001027864986822994085
0.00010262067771981237495
0.00010245485189995985501
0.00014102702937972735994
0.00014025013086950335189
0.00013948911235481435494
0.00013874046727919864155
0.00013800834898329092533
0.00013730484922423090649
0.00011935287133677448008
0.00011913481824973472093
0.00011892502660299627203
0.00011872422179041026676
0.00011852927077209993525
0.00011833524076101389292
0.00011813883763467632822
0.0001179406349364685812
0.00011774358638810925341
0.00011754915625067690265
0.0001173557339205986012
0.0001171604487936983406
0.00011696273896267144518
0.00011676536934727547209
0.00011657339233772488632
0.00011639035731313828066
0.00011621504485373645901
0.00011604134008430580505
0.00011586341981011769758
0.000115679626785920815
0.00011549318898714456465
0.00011530842963076790703
0.00011512725104652103897
0.00011494911838866414718
0.00011477288437669010341
0.00011459808411227900729
0.00011442478940262872837
0.00011425173051123750742
0.00011407637471644824256
0.00011389634953949363068
0.00011371231599254981936
0.0001135265427499487545
0.00011334274405051132097
0.00011316036381547113802
0.00013558951926847222095
0.0001348854875692274578
0.00013420907918117329816
0.00013355817599236687694
0.00013293725324484831417
0.000132357238379825936
0.00013182589605830456097
0.00011660939735442157742
0.00011642892002812046449
0.00011625588663017007087
0.00011607709228923778226
0.00011588020458022295584
0.00011566046624018473904
0.00011542274082510042301
0.00011517749429004240746
0.00011493345759315326191
0.00011469389945473120341
0.00011445854526128907628
0.00011422986919327141476
0.00011401420701815265734
0.0001138177953801932247
0.00011363937236259374919
0.00011346746773471649416
0.00011328534841505496925
0.00011308129860099498773
0.00011285585948928752412
0.00011262020801065464261
0.00011238692204282984134
0.00011216197872744975155
0.00011194371469469979275
0.00011172756060218584401
0.00011150963977888559634
0.00011128759006618830054
0.00011105923216213270724
0.00011082246978264635446
0.00011057757326583223336
0.00011032944670693913263
0.00011008665558305723103
0.00010985664945156743526
0.0001096418860304314676
0.00010943942148001426775
0.00010924520603935745228
6.3123391759163381569e-08
6.329646201717254232e-08
6.3384522628813034861e-08
6.3504174579063691573e-08
6.3642028323023032942e-08
6.3692771808684380682e-08
6.3851007325477445249e-08
6.4015561343086239738e-08
6.4173841247521908469e-08
6.4363279344356028461e-08
6.4692211926224074774e-08
5.9164135379061373078e-07
5.9097279537941372274e-07
5.8977575899450021423e-07
5.8753415570858414661e-07
5.8528511078839700369e-07
5.8320717544433745862e-07
5.8126607500690894917e-07
5.7944897319527444373e-07
5.7777360447480004587e-07
5.7626182873505435803e-07
5.7493042212813620216e-07
5.7375278539113446053e-07
5.727361134179332167e-07
5.719008508894444085e-07
5.7125158534008750255e-07
5.7072381720634738404e-07
5.7021166693504510035e-07
5.6961881297044010861e-07
5.6881732763080843702e-07
5.6747246510779916357e-07
5.6454632845318547379e-07
5.5663986893929260745e-07
5.3530049739206697269e-07
5.0733983306808002676e-07
4.7863655103180194355e-07
4.4956227949234263081e-07
4.205219582661391996e-07
3.9193089276433452269e-07
3.6407797078858651896e-07
3.3729867058620882053e-07
3.1176129272294522312e-07
2.8774536142586389247e-07
2.6525313817312821127e-07
2.4454401141156535105e-07
2.2544505994338452694e-07
2.0831964750983002289e-07
6.5503327243772915099e-08
6.5522711571693433956e-08
6.5570181688400794543e-08
6.55980696209203756e-08
6.5654005012490670516e-08
6.5724367467895886063e-08
6.5757385383513110734e-08
6.5869649213407917021e-08
6.5919347302245917183e-08
6.6069901445343315148e-08
6.6166830464716809558e-08
6.634261610755519534e-08
6.6427277040397372417e-08
6.6545878584056083896e-08
6.668925001060163916e-08
6.6741070663074362563e-08
6.6897470327481470575e-08
6.7062159338783390109e-08
6.7227840645376266703e-08
6.7438668800822084727e-08
6.7728494434078327317e-08
6.0782985997062228249e-07
6.0698499681887933634e-07
6.0521910560140281412e-07