/*--------------------------------*- C++ -*----------------------------------*\
  =========                 |
  \\      /  F ield         | OpenFOAM: The Open Source CFD Toolbox
   \\    /   O peration     | Website:  https://openfoam.org
    \\  /    A nd           | Version:  12
     \\/     M anipulation  |
\*---------------------------------------------------------------------------*/
FoamFile
{
    format      ascii;
    class       volScalarField;
    location    "0.0058";
    object      p;
}
// * * * * * * * * * * * * * * * * * * * * * * * * * * * * * * * * * * * * * //

dimensions      [1 -1 -2 0 0 0 0];

internalField   nonuniform List<scalar> 
106891
(
98691.360218904708745
98690.92457510062377
98694.037282383986167
98699.501486375447712
98705.701866763498401
98710.706172883306863
98712.598026063438738
98709.948482107036398
98702.158075322542572
98689.404993656004081
98672.483454322849866
98870.210516079430818
98863.210720141418278
98853.421067577190115
98838.577505367546109
98819.024609119980596
98798.975635574824992
98785.866605972492835
98786.781715302247903
98804.412692740530474
98834.770940011032508
98868.075911826977972
98893.535738888778724
98904.86966414595372
98903.383906090035453
98896.096511043855571
98890.759589623543434
98890.736677169654286
98894.388064491213299
98897.765696757240221
98898.90564995224122
98899.259145310119493
98902.344750270465738
98910.000282804452581
98920.289251110341866
98928.414548399698106
98929.736991433455842
98923.119056998853921
98911.33221600484103
98899.189712156236055
98890.852757948727231
98887.665696582887904
98888.757433325896272
98892.482846246668487
98897.266515410141437
98901.331214747362537
98902.226181472447934
98897.734487326306407
98887.350813374272548
98789.788703449798049
98778.258955070530646
98764.232590718878782
98748.443627440719865
98731.860433366819052
98715.655419379443629
98701.130227145418758
98689.530808070034254
98681.8420421066985
98678.626393252066919
98679.869598174715065
98684.904573365332908
98692.373880291430396
98700.465292506327387
98707.231328331297846
98710.877912002091762
98710.003101296650129
98703.796991191629786
98692.223112426217995
98675.903361138261971
98846.842807878376334
98831.028194996979437
98810.613971890124958
98788.341018949562567
98769.203574264174677
98759.673919641558314
98765.459229538129875
98787.997205975916586
98821.984927281431737
98856.938318899192382
98882.266187461209483
98892.640223547277856
98890.607261644385289
98884.06285082717659
98880.852412389605888
98883.712265099413344
98889.827336770380498
98894.327072773303371
98895.039568220250658
98894.065535233865376
98895.842384378891438
98903.173675870755687
98914.713267259692657
98925.423805057042046
98929.973883974555065
98926.0251596520975
98915.252864088761271
98902.115628982530325
98890.990585383449798
98884.256774646812119
98882.30661928182235
98884.330060670079547
98888.907955006856355
98894.08432800816081
98896.905769098681048
98894.003056964065763
98780.550192975395476
98767.842907882193686
98752.451580765860854
98735.238440411660122
98717.393315901877941
98700.327399569156114
98685.522906421945663
98674.305220238791662
98667.571516818905366
98665.615901705139549
98668.098396066110581
98674.130657183050062
98682.387774417249602
98691.209191968271625
98698.778616490148124
98703.40208525818889
98703.759367670922074
98699.004020838125143
98688.936006717398413
98673.954137313354295
98835.562775288373814
98811.507942814932903
98785.269454959838185
98761.716789981888724
98745.760408440663014
98741.743096666716156
98752.556660519985599
98777.759691686675069
98811.782421507814433
98845.115298735749093
98868.935450714256149
98879.535022693758947
98879.770973154722014
98876.693433170279604
98876.731534375125193
98881.761829183873488
98888.677441482621362
98893.027918700579903
98892.908016288638464
98890.581009725661715
98890.521879401261685
98896.156919488261337
98907.014485368796159
98918.709674789599376
98925.831073159439256
98925.108504964606254
98917.005242394297966
98904.930898615668411
98892.945946533640381
98884.058068039041245
98879.572692318630288
98879.470247604258475
98882.948387630152865
98888.211104615023942
98892.001753068441758
98890.21622691299126
98749.851542792093824
98734.974833885848057
98718.50937786969007
98701.494374530389905
98685.162713955869549
98670.846401857779711
98659.828523565243813
98653.108253606915241
98651.139342829643283
98653.66438956077036
98659.749473245130503
98667.994014735697419
98676.761076442548074
98684.372183384257369
98689.277904774076887
98690.262654649850447
98686.538779010254075
98677.911930265123374
98664.738874796181335
98797.733890130577493
98766.371747386307106
98743.183427789597772
98732.059416063159006
98734.420559704842162
98749.668140374313225
98774.868296113898396
98804.832791755179642
98832.959668490671902
98853.770006373917568
98865.430264922571951
98870.339456346366205
98873.157241892055026
98877.60381822376803
98884.355087325515342
98890.92732405741117
98894.086154690594412
98892.626749048620695
98888.574920665065292
98885.915993731920025
98888.171509322026395
98896.155198970140191
98907.163560197790503
98916.367133566673147
98919.693660202989122
98915.963232803667779
98906.882601413410157
98895.696931365717319
98885.69504042439803
98879.020752697600983
98876.578106942601153
98878.261512620782014
98882.668258421952487
98886.5559791077103
98738.111283782898681
98727.309759376061265
98714.564122893498279
98700.321352014376316
98685.403998133915593
98670.867775644510402
98657.835701626085211
98647.366374061239185
98640.345101439001155
98637.339071377122309
98638.403082979377359
98642.954564176834538
98649.823525316256564
98657.475875778472982
98664.297695813307655
98668.829178919186234
98669.965872279790347
98667.0152520895208
98659.845421417194302
98648.83739076256461
98794.308981682610465
98759.863481687265448
98738.178366794352769
98731.82470272849605
98739.423315513442503
98757.240132455175626
98780.312674281027284
98803.752260576133267
98824.029775869523291
98839.694975776408683
98851.517057561912225
98861.368241937379935
98870.917981664286344
98880.451655104887323
98888.989971995775704
98894.742550867682439
98896.153013037794153
98892.943808472016826
98886.737743139805389
98880.879426707266248
98878.925156589059043
98882.99703154512099
98892.239609792537522
98902.931337449001148
98910.387539799106889
98911.565877376997378
98906.328224794473499
98896.959637520587421
98886.739804298311356
98878.570585932713584
98874.302950148688979
98874.323733886238188
98877.353357386236894
98702.820015416975366
98693.377253562750411
98682.493779520562384
98670.571237788506551
98658.365504551446065
98646.85087333204865
98637.027125313717988
98629.783867849793751
98625.767808411968872
98625.230621784619871
98627.888544337751227
98632.872704432287719
98638.84731979049684
98644.270435352285858
98647.692054221886792
98648.072534296312369
98644.908812907931861
98638.336964293383062
98629.031366892100777
98772.151511147312704
98752.488713063954492
98749.03540883975802
98758.638482038601069
98775.735450246167602
98794.720957413941505
98811.256723461585352
98823.645973793813027
98833.06937146668497
98842.370096415383159
98853.745479400124168
98867.134833294316195
98880.172084979349165
98890.110828882767237
98895.28733253365499
98895.340608963218983
98890.827253025199752
98883.118434107222129
98874.78251907385129
98869.469383506366285
98870.204289596862509
98877.612183374076267
98889.019436867849436
98899.447643713661819
98904.507252445837366
98902.563613482372602
98895.102912913280306
98885.456885579173104
98877.035937998487498
98872.058608791194274
98870.932940855680499
98872.243889884310192
98679.387563662763569
98673.010550643564784
98665.384185724920826
98656.534990447267774
98646.880616084876237
98637.170132214625482
98628.350435947766528
98621.379990275425371
98617.02467546077969
98615.691831401913078
98617.287760096005513
98621.122728559552343
98625.968714518661727
98630.319781192054506
98632.708060280245263
98632.076352192831109
98628.023797137415386
98620.948525491156033
98611.93886474253668
98790.571811652640463
98787.41856868447212
98794.730142912085284
98807.210429923477932
98819.964553471581894
98829.767557002953254
98835.679558644696954
98839.322743353695842
98843.813340716209495
98851.601673152312287
98862.520564397214912
98874.044515785179101
98883.071381183312042
98887.835681335782283
98887.91207052032405
98883.695906868641032
98876.449633718337282
98868.381888024741784
98862.793590830566245
98862.766629608566291
98869.372013564410736
98880.429297533613862
98891.363977216751664
98897.644131336535793
98897.096317528455984
98890.792660812599934
98882.118449487679754
98874.504735163747682
98869.701384266343666
98867.46810259486665
98654.965843019788736
98649.605772441791487
98643.256125896252342
98636.126442332621082
98628.714426349295536
98621.765093700581929
98616.121323156810831
98612.547502700632322
98611.537092425249284
98613.131346089459839
98616.810510124050779
98621.465130292752292
98625.607058468187461
98627.743623383401427
98626.785987875045976
98622.359896908397786
98614.934415669587906
98605.750953417271376
98847.130967053992208
98847.892141740303487
98851.821051671679015
98856.659647388019948
98860.438996348690125
98861.693839662751998
98860.353834193345392
98858.246143560711062
98857.835537921026116
98860.344461878674338
98865.002307234870386
98869.61811644944828
98872.214188217782066
98871.935939980394323
98869.228745958200307
98865.352932543930365
98862.074053973134141
98861.368335769802798
98864.828718785298406
98872.711012820946053
98882.847806624427903
98891.416619746363722
98895.104788667231333
98892.791861667967169
98886.148632471362362
98878.163280994107481
98871.358950175141217
98866.43481667265587
98638.911175240529701
98634.54410622647265
98629.912863840872888
98625.203118367513525
98620.686584152383148
98616.750148353050463
98613.879236757959006
98612.595910661679227
98613.314274495642167
98616.103319885543897
98620.551211104189861
98625.7346512904478
98630.369566128327278
98633.085105309044593
98632.822174934743089
98629.169664483400993
98622.463708974275505
98613.828247847719467
98911.902884986528079
98907.076145927523612
98904.742222718894482
98903.82887629965262
98902.043340590840671
98897.198221930040745
98889.094264149433002
98879.64445309167786
98871.045359500669292
98864.277518553324626
98859.021915303397691
98854.867598562617786
98852.165917827456724
98851.709273363128887
98854.228852368629305
98859.885414249569294
98868.119211535668001
98878.1679058351001
98888.554963774775388
98896.999764409963973
98901.175185020751087
98899.688904493828886
98893.253450781921856
98884.32238114165375
98875.414004728299915
98867.671458720549708
98860.628910768136848
98621.301085405924823
98617.554931212274823
98614.801691758984816
98613.157305868371623
98612.613884431601036
98613.193972741501057
98614.967465172696393
98618.020406151801581
98622.349880084148026
98627.707034684644896
98633.472799687006045
98638.766433696597232
98642.572951977141201
98643.996620015968801
98642.545599871722516
98638.182608915143646
98631.527847017350723
98986.820562918946962
98974.490245470282389
98965.959066107185208
98960.975660986470757
98957.791610568659962
98953.86825260441401
98946.881759151598089
98935.970098467179923
98921.419943843822693
98904.205002036702354
98885.66559748412692
98867.661778342095204
98852.76311117951991
98844.041630588122644
98843.559185011166846
98851.054317022309988
98864.255375731794629
98880.241024700851995
98896.185173012621817
98909.342655183238094
98917.072987273568287
98917.477892382565187
98910.533774113981053
98898.385170824854868
98884.339254688136862
98871.015439301205333
98859.249043618081487
98610.691476600361057
98608.879289121832699
98608.950200238483376
98610.712642403304926
98613.79351820507145
98617.799247653922066
98622.441799664069549
98627.514986597001553
98632.868639923413866
98638.309927877504379
98643.519139712618198
98647.969235769734951
98651.032309155751136
98652.194570321735227
98651.149828689769492
98648.004393737195642
99029.55186894533108
99020.550157195320935
99015.39927068266843
99011.937152295009582
99007.517204696647241
99001.121031263042823
98993.350343390731723
98984.204627013765275
98972.109910935294465
98954.525755716313142
98930.451965501328232
98902.876263317797566
98877.723746252857381
98860.990335779439192
98855.646963751802105
98860.702645005803788
98872.640044151965412
98887.802489441412035
98903.231993679844891
98916.377644984837389
98924.662624559656251
98925.477632588488632
98917.709616915191873
98902.932110960682621
98884.622250429165433
98866.239446981446235
98849.757867731736042
98835.759668286002125
98611.389237018767744
98611.003534282062901
98612.336997298276401
98615.000979146119789
98618.550021617935272
98622.594385126925772
98626.879308711664635
98631.291501011248329
98635.781364804162877
98640.279435158823617
98644.587046447006287
98648.391956117193331
98651.375917048819247
98653.186942281259689
98653.686425158797647
99046.189578093966702
99045.662404456947115
99044.196078826265875
99039.798858342488529
99033.678292852971936
99028.490947442769539
99024.269528062955942
99017.093927120848093
99002.141699904896086
98977.779013117193244
98946.939537976970314
98916.23204713765881
98892.808124229282839
98880.324912745869369
98877.834844399578287
98882.200936299544992
98890.443207924792659
98900.872390880380408
98911.877967549327877
98920.686477931769332
98923.793894554546569
98918.551510230783606
98904.963655805273447
98885.691326962944004
98864.580221412383253
98845.159998138202354
98829.777248764279648
98616.54980471257295
98615.991181681092712
98616.636161700633238
98618.215421396642341
98620.429217746655922
98623.054294584449963
98626.043001609985367
98629.426831206263159
98633.241300239445991
98637.409857896098401
98641.738688151483075
98645.976861289891531
98649.849937930004671
98653.263408258018899
99063.127451524764183
99062.868376547790831
99058.553118905387237
99053.77920525999798
99052.519689038454089
99054.801629329376738
99055.476405943074496
99047.376055959583027
99026.665729205298703
98996.157133199783857
98963.53179011271277
98935.13988090174098
98914.062246450645034
98900.461549106054008
98892.769503418836393
98890.098636266528047
98892.44686232645472
98899.269234305305872
98907.992808613125817
98914.1357663875242
98913.467472327858559
98904.013729490878177
98887.011738896020688
98866.357900050395983
98846.677042879906367
98831.92143976148509
98621.776803792148712
98619.45765812996251
98618.061395106851705
98617.547375026013469
98617.879963470462826
98619.091776983957971
98621.239175882961717
98624.347470071355929
98628.361671979277162
98633.153952450928045
98638.578559573114035
98644.479216309497133
98650.877613993870909
99067.097917423670879
99063.8819206978078
99062.229379962023813
99066.0443764879019
99074.424163924981258
99081.507759455882479
99080.124698154919315
99066.234500985781779
99041.121069626344251
99009.928468626414542
98978.653437142420444
98950.653638455682085
98926.494312951923348
98906.190637919236906
98891.321562702665688
98883.907495930790901
98884.729115372465458
98891.522440142172854
98899.76323157317529
98904.031255856127245
98900.328594635240734
98888.355601918505272
98871.491771931396215
98854.689705291442806
98842.676657918913406
98624.331811076510348
98619.83958583639469
98616.432727449107915
98614.318790146688116
98613.666173714911565
98614.57792607403826
98617.094190373114543
98621.156595032472978
98626.660852416287526
98633.46947413268208
98641.453647320115124
98650.614282839131192
99057.616109202528605
99059.962333098053932
99068.663143829442561
99082.09483523920062
99094.373097109622904
99098.478442870749859
99090.304090005520266
99070.638387093000347
99043.758228996724938
99013.949215297892806
98983.307094928721199
98952.390633680435712
98922.764206301450031
98897.444771946888068
98880.266408040246461
98873.703946824360173
98877.049654973001452
98885.681040814190055
98893.442145601366065
98895.726644016380305
98890.549344416358508
98879.71295635374554
98867.873236426225048
98860.22387324970623
99048.270169741212158
99060.411423614932573
99077.168779593834188
99092.929372549115214
99101.138935097376816
99097.731572516466258
99083.065380339481635
99060.613797423808137
99034.094254688898218
99005.212729114849935
98973.857590453175362
98940.845081526422291
98909.53964422714489
98885.140194862266071
98871.610747202066705
98869.866001379530644
98876.56162245698215
98885.897120914101833
98892.365394096632372
98893.350257780009997
98889.299172452214407
98883.572467775520636
98881.406090311691514
99060.049920000994462
99077.870315439882688
99089.369175557250855
99089.951789750994067
99079.411743203556398
99061.194431309035281
99039.276530016955803
99015.102497762258281
98987.886845342727611
98957.36648682251689
98925.97812701620569
98898.744194928483921
98880.738070263236295
98874.094199926912552
98877.080164189406787
98885.061624240639503
98892.889706746762386
98897.431719220054219
98898.584641660083435
98899.742049922715523
98903.148659226644668
99062.992438324406976
99048.665286490970175
99031.352923703030683
99013.173158603342017
98993.209484055420035
98969.728669942414854
98943.251125019232859
98917.52586307124875
98897.774641150783282
98887.456828146969201
98886.599377915248624
98891.687391408209805
98898.324144655460259
98903.711825037404196
98908.043403170580859
98913.316681150856311
98921.746724168129731
98989.847024963557487
98975.708677955248277
98957.573356300024898
98937.208644118276425
98919.119586407963652
98907.403666587386397
98903.198591506166849
98904.600521598782507
98908.492658139730338
98912.752957535572932
98917.686918854829855
98925.043380549177527
98936.236601162658189
98974.633386985238758
98966.241076656544465
98953.696198769044713
98940.070543632289628
98929.295928236620966
98923.314438842338859
98921.560448066244135
98922.220068406095379
98924.110434637463186
98927.825898381444858
98934.958391695385217
98946.634317442309111
99285.131553347338922
99301.157165163502214
99300.577567396947416
99279.979079692668165
99243.912498632853385
99202.848220634303289
99168.884627972642193
99152.302362777365488
99157.678433953464264
99182.680826760959462
99217.647133030113764
99250.019355889715371
99271.603310463731759
99281.312923792167567
99283.08759877277771
99281.53325697753462
99279.429488740235684
99278.463644893956371
99279.197466135970899
99280.853973081510048
99260.485529124533059
99283.239649478811771
99295.922200783214066
99294.027969630158623
99275.961844038087293
99243.899520628066966
99205.556920804723632
99171.489164106693352
99152.367139702764689
99155.236144260677975
99179.661532323167194
99216.013854890843504
99250.260641465516528
99272.104083107071347
99280.179920688053244
99279.887554090164485
99277.703613135556225
99277.505059604416601
99279.820147196296602
99284.139106178001384
99289.31114871945465
99292.815206553277676
99206.54313273220032
99234.0139765911008
99260.82936995899945
99281.030696111614816
99290.345222289877711
99287.439233349592541
99271.884838721147389
99244.248387427098351
99208.74496190159698
99174.636516215628944
99152.695041189072072
99152.7445552378922
99176.245788963089581
99214.111273481641547
99250.217141143395565
99272.432037896651309
99279.042608327814378
99276.772366695833625
99273.945678828589735
99274.880731572542572
99279.974285195494303
99287.72029968170682
99296.168287029402563
99303.232225363928592
99305.340467140675173
99298.879092213319382
99181.038227512282901
99203.743312078411691
99233.899505619789124
99261.150727100262884
99278.90044561905961
99285.147039763905923
99281.287986138820997
99268.225177566986531
99244.807023164728889
99212.337146471167216
99177.654156436459743
99153.002520265319617
99149.972759408658021
99172.828780981173622
99212.174464252966573
99250.140967385770637
99272.795154394611018
99278.13051589798124
99273.982460902770981
99270.311509372710134
99272.252460644056555
99279.492894384238753
99289.866937035461888
99301.478123338107252
99311.918282547281706
99317.403244388013263
99313.144440028539975
99296.521290855685947
99171.067070232529659
99176.795588848006446
99201.023574095728691
99233.693796494466369
99261.650744984217454
99277.1570069535519
99280.56473992523388
99275.546716040844331
99264.95208668007399
99245.71732027210237
99215.816188097072882
99180.508276723994641
99152.96482363207906
99147.280598117038608
99169.471533937787171
99210.332605071758735
99250.320571884789388
99273.409710394174908
99277.372727888010559
99271.52239130664384
99267.108022770989919
99269.651790291594807
99278.454917077702703
99290.900986093562096
99305.107390640900121
99318.900234244836611
99327.609007501931046
99325.257700205998844
99308.307379729609238
99279.287099231238244
99187.888419135895674
99168.29433054094261
99172.610015563885099
99198.442952284749481
99233.454209738061763
99262.341622718042345
99276.033801605532062
99276.581463628986967
99271.126877904753201
99262.3949522664916
99246.882384370110231
99219.02009680676565
99182.934271893987898
99152.508421075632214
99144.236659730697284
99166.13869628716202
99208.683548244211124
99250.63755936313828
99274.26962514949264
99276.966458490074729
99269.397705791619956
99264.239986316606519
99267.252518487730413
99277.334414913071669
99291.304520631936612
99307.621156163877458
99324.303462675292394
99335.996562253450975
99335.398512919433415
99318.096823579006013
99286.666076336070546
99250.104831532153185
99188.541666435747175
99165.824201142939273
99169.041153861020575
99196.32047496852465
99233.511311657450278
99263.108798134024255
99275.359439140636823
99273.636210968281375
99267.54937017535849
99260.522416706080548
99247.761372491600923
99221.824675096519059
99184.78111519383674
99151.744741706104833
99141.5576418289711
99163.164851458277553
99207.34790999093093
99251.109393494800315
99275.277154518160387
99276.83510060259141
99267.690701433588401
99261.809046462585684
99265.349655376878218
99276.394086824671831
99291.4567410673626
99309.331231102420134
99328.236300500575453
99342.399689634970855
99343.484133077392471
99325.855141868480132
99292.225097439644742
99253.075625650424627
99218.310298165451968
99176.776223042819765
99169.598662020391203
99151.288831446436234
99106.516558741990593
99045.40952268752153
99002.562367698221351
99188.656572690568282
99163.703364805915044
99166.172950405190932
99194.702211049094331
99233.626380153727951
99263.793646678008372
99275.089160409916076
99271.721352838692837
99264.966519475157838
99259.481360914331162
99248.762602237475221
99223.874414588455693
99186.046743581173359
99150.926438717142446
99139.02220938395476
99160.762452500115614
99206.420629131913302
99251.617921544369892
99276.155064571139519
99276.812846184824593
99266.434442992598633
99260.018248783570016
99263.805349909860524
99275.614000750618288
99291.551500924673746
99310.268120461536455
99330.627733381916187
99346.800406586946337
99349.187055091824732
99331.202782131091226
99295.905605289983214
99254.880371281658881
99218.973797169033787
99190.278404446173226
99188.974463250284316
99177.531581227623974
99171.223374184439308
99153.449406057901797
99108.738931702144328
99044.592945950702415
98999.588529028813355
99188.476242596385418
99162.389405110559892
99164.702341234267806
99193.826466976752272
99233.915177388102165
99264.374386601703009
99275.042069905874087
99270.777578188673942
99263.615984896619921
99259.025681008890388
99249.243388609873364
99224.913831966827274
99186.590398564003408
99150.173312332670321
99137.590359097826877
99159.554757229125244
99206.058174379490083
99252.101988798589446
99276.679438941049739
99276.859538537726621
99265.765224138580379
99258.984731335018296
99262.889049462057301
99275.204120398891973
99291.595666813867865
99310.631925185734872
99331.764983103668783
99349.196201002851012
99352.192427662550472
99333.848347400868079
99297.696696473431075
99255.652877880624146
99219.1943120451906
99190.482474446020206
99162.154624074421008
98691.141063589326222
98683.397258916171268
98677.917760090072989
98674.468055439574528
98672.355493738577934
98670.63956314168172
98668.259179380343994
98664.245439419144532
98658.08167023488204
98649.829335512098623
98639.767288047078182
98825.934009169330238
98807.392104610960814
98797.373689852902316
98801.64758588145196
98819.167911985292449
98842.723117814515717
98863.041508554029861
98873.777687686480931
98873.488855339557631
98864.200588912979583
98849.418479296393343
98832.910832948648022
98818.751727885595756
98811.278798972649383
98814.081408162528533
98827.386149806799949
98846.563778464289499
98863.720713174014236
98871.81495220780198
98868.989264018193353
98860.143820510129444
98854.29525395858218
98859.443799836299149
98878.092279526274069
98906.084675040998263
98934.993491589266341
98955.90803590916039
98962.956284634114127
98955.074434228794416
98935.898577137500979
98912.135498141782591
98890.791553533577826
98876.928752512423671
98872.202611913104192
98874.887049645461957
98881.16376880754251
98769.415902101012762
98765.091278800915461
98760.401667420577724
98754.605326816075831
98747.147047152087907
98737.78746609139489
98726.585370604268974
98714.012737122262479
98701.114572647085879
98689.230792478498188
98679.58859604303143
98672.941599568031961
98669.411690670764074
98668.564811940290383
98669.537808449516888
98671.176638905773871
98672.274693629762623
98671.752834375482053
98668.89687965590565
98663.586657832405763
98656.040898911829572
98807.145174060264253
98792.982563129509799
98791.772594353271415
98806.442413892684272
98832.293552209477639
98859.38470351525757
98877.759369192761369
98882.262663855755818
98874.001807921900763
98857.605421549626044
98837.625198139037821
98817.15408317357651
98799.032575688077486
98787.027398844657
98785.193714751309017
98795.540177619404858
98815.772480867570266
98839.16099228936946
98857.785786913271295
98867.371140453353291
98869.713321768504102
98871.038605929192272
98877.618902436443022
98892.199630484799854
98912.930829023054685
98934.330441626821994
98949.672710197381093
98953.757478775180061
98945.082694292315864
98926.287774818265461
98903.10656495076546
98882.306869429346989
98869.199383752289577
98865.613322342222091
98869.548665794092813
98876.421934609301388
98763.875363843690138
98759.497915478219511
98754.737148428743239
98748.781604563613655
98740.981780234578764
98731.053492177452426
98719.214861152810045
98706.126770761751686
98692.771861798595637
98680.398723185775452
98670.291349312334205
98663.450290931621566
98660.290455758615281
98660.497691946220584
98663.167564080358716
98667.07476589763246
98670.972154933129787
98673.796079035717412
98674.765061319965753
98673.511240046384046
98669.863821022910997
98789.809744662285084
98798.554223365834332
98822.67948737477127
98854.401064128018334
98881.889674941674457
98895.565176930147572
98892.189779565349454
98875.121868434100179
98851.168260936203296
98826.230457721409039
98803.188363064648001
98783.287769599861349
98768.920038352327538
98764.0716398707591
98772.201006993098417
98793.12340504018357
98821.786219746209099
98850.381854135222966
98872.502689079381526
98886.100913047674112
98893.402346830233
98898.631148747997941
98905.445189662001212
98915.224986103043193
98926.419792801243602
98935.271376986231189
98937.46323266030231
98930.395432909848751
98914.670559990641777
98894.504192128733848
98876.014902550916304
98864.634297173455707
98862.433613908709958
98867.383131270864396
98753.866482915153028
98749.234605023186305
98743.536972916146624
98736.14032299516839
98726.610821995273
98714.893695071616094
98701.464032312927884
98687.304127719777171
98673.720543087620172
98662.107767122244695
98653.658943358124816
98649.100399507573457
98648.504938084632158
98651.265876273595495
98656.295923745201435
98662.34757495301892
98668.308494907920249
98673.318743898154935
98676.806954133950057
98678.232938329339959
98802.786122563280514
98819.515908031200524
98848.068876212026225
98879.428305943903979
98902.295330282693612
98908.860582597975736
98897.949924948334228
98874.354803810769226
98845.493971797317499
98817.696725142304786
98794.174087084044004
98775.639720372797456
98762.809133085553185
98758.115977700814256
98764.902919577740249
98784.65205387880269
98814.774437279149424
98849.020826822554227
98879.928607961119269
98902.00797642141697
98913.374883948228671
98916.110955399111845
98914.649377821871894
98913.3189512257959
98914.51012533310859
98917.444898192261462
98918.572803791568731
98914.021040368868853
98902.458480751447496
98886.390944371407386
98871.160379324341193
98861.896844656483154
98860.78487994603347
98866.035556821821956
98749.059650918847183
98745.265947836480336
98740.282166446952033
98733.474664325476624
98724.386008746761945
98712.872659218104673
98699.238960813425365
98684.278539158971398
98669.177615424880059
98655.323457769016386
98644.064947972918162
98636.469074256645399
98633.112897884173435
98633.964003555607633
98638.42049784125993
98645.47569458631915
98654.004176573143923
98662.937296716307173
98671.365806375950342
98678.390141856667469
98851.813836834917311
98876.019846713985316
98898.95719032746274
98913.056944102863781
98912.842597097027465
98897.605675018829061
98871.721806893750909
98842.27223128809419
98815.53122033616819
98794.734165867455886
98780.272353322900017
98771.759312758775195
98769.775258368128561
98776.222955773220747
98793.04148312950565
98819.887916204708745
98852.892729352592141
98885.498265970134526
98910.741091088959365
98924.161773879968678
98925.572597623046022
98919.062642067234265
98910.585368596439366
98904.786994085938204
98902.795016340154689
98902.152336176484823
98898.813679320839583
98890.42957256155205
98878.147582976671401
98866.029349268428632
98858.438795199443121
98857.420072508015437
98741.740102900672355
98738.024781959335087
98732.227099146242836
98723.775928297603969
98712.428232570833643
98698.403375133799273
98682.419909911186551
98665.631576093073818
98649.422467648677411
98635.204012653804966
98624.205877479282208
98617.350184569178964
98615.144996371207526
98617.603734138319851