/*--------------------------------*- C++ -*----------------------------------*\
  =========                 |
  \\      /  F ield         | OpenFOAM: The Open Source CFD Toolbox
   \\    /   O peration     | Website:  https://openfoam.org
    \\  /    A nd           | Version:  12
     \\/     M anipulation  |
\*---------------------------------------------------------------------------*/
FoamFile
{
    format      ascii;
    class       volScalarField;
    location    "0.00511";
    object      nut;
}
// * * * * * * * * * * * * * * * * * * * * * * * * * * * * * * * * * * * * * //

dimensions      [0 2 -1 0 0 0 0];

internalField   nonuniform List<scalar> 
106891
(
6.3613274060100399613e-06
6.3551399062366110954e-06
6.3476244328970982209e-06
6.3415066665973119788e-06
6.3340576330184144942e-06
6.3279293535514668099e-06
6.3203466258492745265e-06
6.3142084975336674435e-06
6.306415324522823025e-06
6.3003345560674602909e-06
6.2916352616523991135e-06
9.6794380845057630575e-06
9.6599190313063757786e-06
9.640002777804955995e-06
9.6212457956253759562e-06
9.6030532620182151068e-06
9.5866029853191916244e-06
9.5710744874297981014e-06
9.5571565442540900524e-06
9.5436630046809414795e-06
9.531476313410690781e-06
9.5195002690174769359e-06
9.5085327829117837568e-06
9.4974899512552455309e-06
9.4872386224206824151e-06
9.476643193871515922e-06
9.466726400586888355e-06
9.4563012959708087388e-06
9.4463496205885977796e-06
9.4358404995392457286e-06
9.4257748517539033335e-06
9.4152098304896709698e-06
9.404990906190382086e-06
9.394342086260740017e-06
9.3841104743393308798e-06
9.3732868834839010966e-06
9.3629643861843196175e-06
9.3524343814647861554e-06
9.3425034815863561695e-06
9.3319761131354149822e-06
9.3217490992127267755e-06
9.3108545316431466068e-06
9.3003312408070177919e-06
9.2892259933763838441e-06
9.2783525967061183866e-06
9.2666851570790899931e-06
9.2553167237001183912e-06
9.2431780879440848141e-06
9.2316236269667684589e-06
6.7593070062400728801e-06
6.750925390099670381e-06
6.7440633338439211802e-06
6.7357225642274053205e-06
6.7289687184629438425e-06
6.7207257622017055915e-06
6.7140420468688006983e-06
6.7058224481789640155e-06
6.6991866667297992184e-06
6.6909988452795495848e-06
6.6843994947740093614e-06
6.6762980206273591329e-06
6.6697474885894800445e-06
6.6616602506255352182e-06
6.6550540063440582705e-06
6.6467882810453651668e-06
6.6401921197370883561e-06
6.631700818327932797e-06
6.625124750085474618e-06
6.6155721963233431453e-06
1.0168329142562251743e-05
1.0147576600471067078e-05
1.01273256593671384e-05
1.0108724331183764375e-05
1.0090906587295547255e-05
1.0074986832036268871e-05
1.0059817873055391455e-05
1.0046307694573694587e-05
1.0033056620082385281e-05
1.0020918591243586611e-05
1.0008751291314760214e-05
9.9974572761720374947e-06
9.9858473044552885015e-06
9.9750409162667247245e-06
9.9638576514449678163e-06
9.9532919077150470364e-06
9.9421967079922333354e-06
9.9315353412792276857e-06
9.9203136595096015057e-06
9.9094246216419635149e-06
9.898154638198356837e-06
9.8874104745858233044e-06
9.8760563379661169795e-06
9.865100667802367826e-06
9.8537983727021183377e-06
9.8433024796699637238e-06
9.8324450753365425063e-06
9.8221545467585644087e-06
9.8111826253323640266e-06
9.8005765176389373543e-06
9.789331603942898438e-06
9.7783350306773106863e-06
9.7664545928856644609e-06
9.7548377022870001138e-06
9.7423087177836664675e-06
9.7301954400300247827e-06
7.1108633697555131227e-06
7.1018792909344321122e-06
7.0946081506470543297e-06
7.0857173497370473292e-06
7.0785880394518418894e-06
7.0698208253148591947e-06
7.0627653410735147441e-06
7.053984594279093492e-06
7.0469178131702802588e-06
7.0381443254900011113e-06
7.0311071150129731398e-06
7.0223518181629464971e-06
7.0153099445782762279e-06
7.0065376875666715854e-06
6.9994213775652456235e-06
6.9904383733713208087e-06
6.9833169978128444198e-06
6.9740657764786246587e-06
6.9669601401588044856e-06
6.95654043594925251e-06
1.072909714909050636e-05
1.0704172112130519724e-05
1.0680286060431735113e-05
1.0658368872341866779e-05
1.063749552925703002e-05
1.061878909429840496e-05
1.0601255280716432352e-05
1.0585796917136031879e-05
1.0570937785867698895e-05
1.0557318691250156627e-05
1.0543702150278575497e-05
1.05309600861868596e-05
1.0517859017981932696e-05
1.0505695442114626681e-05
1.0493274908601800825e-05
1.0481721257736463258e-05
1.0469677294325584969e-05
1.045813700521474335e-05
1.0446005817151921975e-05
1.0434261617160969492e-05
1.0422108505321661992e-05
1.0410494504932792567e-05
1.0398265839518341279e-05
1.0386535115155535582e-05
1.0374459988232961655e-05
1.0363204564948446699e-05
1.0351636204256514355e-05
1.0340744429354911956e-05
1.0329283035146456142e-05
1.0318202459004998634e-05
1.0306393647661143571e-05
1.0294717950893020041e-05
1.0282080149595764095e-05
1.0269776433734801796e-05
1.0256671713204999522e-05
1.0244106716509912249e-05
7.471291074123861164e-06
7.46365769990232914e-06
7.4542342581892171018e-06
7.4467525259942939152e-06
7.4374153267769384779e-06
7.4299543682866660973e-06
7.4205824590025823374e-06
7.4130918754805078959e-06
7.4036564600394496862e-06
7.3960877387084740235e-06
7.3866533003439609607e-06
7.3790682540909557073e-06
7.3695559252840904275e-06
7.3618690818396143675e-06
7.3521348842678269474e-06
7.3444660926752317685e-06
7.3344377998661767717e-06
7.3267871014229341351e-06
7.3155068054790916841e-06
1.1271724041949006688e-05
1.1246613065829097331e-05
1.1222503139700869124e-05
1.120057397036454454e-05
1.1179834843897214951e-05
1.1161586433746297241e-05
1.1144503772223271433e-05
1.1129269175266894148e-05
1.111432922433277189e-05
1.1100341994304485391e-05
1.1085906554046674776e-05
1.107235983767187158e-05
1.1058575202474966873e-05
1.1045901903601983146e-05
1.1033056520122581034e-05
1.1021028141196697497e-05
1.1008538793848087652e-05
1.0996424767888647706e-05
1.0983778219532731692e-05
1.0971595443079956313e-05
1.0958796469260874087e-05
1.0946542977219277852e-05
1.0933767124384150614e-05
1.0921684269436008916e-05
1.0909184406891859689e-05
1.0897538626766983667e-05
1.088548958858198462e-05
1.0873956218195630506e-05
1.0861677508193402035e-05
1.0849584593959101094e-05
1.0836495198879825909e-05
1.0823731236703344435e-05
1.0810089684488308895e-05
1.0797055149783354037e-05
7.8701387760550235674e-06
7.8600391692366536149e-06
7.8521363097656907436e-06
7.8422068218847192751e-06
7.8344022299257937175e-06
7.8244755029491508934e-06
7.8165830081948260786e-06
7.8065278309583009691e-06
7.7984730500470325924e-06
7.7883076410009975031e-06
7.7801602981566827144e-06
7.7699302672622140071e-06
7.7616977404889612102e-06
7.751401557310507511e-06
7.7431200525860857377e-06
7.7326274395391826258e-06
7.7243995981167513421e-06
7.7136109790838768561e-06
7.7054266776838580336e-06
7.6933262322004291375e-06
1.1873899831477934805e-05
1.1847335003264857964e-05
1.1822869540244069963e-05
1.1799350181594964063e-05
1.1778234937178638556e-05
1.1758336462963157838e-05
1.1740727553514704215e-05
1.1723839822703709172e-05
1.1708252077547063748e-05
1.1692262978760112135e-05
1.1677073464938202344e-05
1.1661418776329486699e-05
1.1646871502615082711e-05
1.1632361137755474356e-05
1.1619050213282609987e-05
1.1605584569983748018e-05
1.1592756451923629175e-05
1.1579516531139370575e-05
1.1566755640566775122e-05
1.1553250597942099089e-05
1.1540276646420891154e-05
1.1526742332397035614e-05
1.1513966831361196726e-05
1.1500627426354001977e-05
1.1488071591338904799e-05
1.1475050484592369947e-05
1.1462630703955704146e-05
1.1449514650707511181e-05
1.1436722704858284406e-05
1.142293818454514782e-05
1.1409498710921912743e-05
1.1395086889546264831e-05
1.1381318842848531497e-05
8.2692695967670755788e-06
8.2610226018747642877e-06
8.2505712068034727847e-06
8.2423960051633535554e-06
8.2318385164896698151e-06
8.2234415151559419878e-06
8.2126301962196633806e-06
8.2039665456266864466e-06
8.1929643304845622915e-06
8.1841313707831312964e-06
8.1730363239202454765e-06
8.1641550259675406653e-06
8.1530327203832313914e-06
8.1441371117541999658e-06
8.1328646892887270729e-06
8.1241170550721786373e-06
8.112622725539489054e-06
8.1039250619278887974e-06
8.0910409097932287499e-06
1.2470648355965392934e-05
1.2445790454823976514e-05
1.2421972321841573503e-05
1.2400588501252403977e-05
1.238032466015161716e-05
1.2362140797443339855e-05
1.2344572424977367031e-05
1.2328280602227710327e-05
1.2311524415511352877e-05
1.2295570678793178807e-05
1.2279088819093785271e-05
1.2263785590531994115e-05
1.2248461516211650951e-05
1.2234421882695187562e-05
1.2220245509440253134e-05
1.2206804651261944723e-05
1.2192900200160737694e-05
1.2179386272123776907e-05
1.2165025096977210027e-05
1.215122572326172984e-05
1.2136904404271574951e-05
1.212341542307098939e-05
1.2109354429913304191e-05
1.20959549675559557e-05
1.2081934690166590786e-05
1.2068375471366118136e-05
1.205402342461924077e-05
1.2039990546149972409e-05
1.2025070110942743078e-05
1.2010739870711453512e-05
1.1995681507740194271e-05
1.1981457161782562204e-05
8.700119803850425189e-06
8.6913960439979764006e-06
8.6802904757023122828e-06
8.6716561686589236041e-06
8.6603889556972825804e-06
8.6514310817895383258e-06
8.6397843254918318544e-06
8.630441943234853214e-06
8.6184881386913039336e-06
8.6089600029279953581e-06
8.5970053971003429217e-06
8.5875372873354392279e-06
8.5756302363089566352e-06
8.5661873788901977359e-06
8.5541479590463174413e-06
8.5448729284970950198e-06
8.5326889447417359293e-06
8.5234918068126594302e-06
8.5101056775078718529e-06
1.3125364611853713705e-05
1.3099535995496458638e-05
1.307515202750705798e-05
1.3053227464189863613e-05
1.3032199020652632715e-05
1.3012930649186334612e-05
1.2993822703436514921e-05
1.297609054867688792e-05
1.2957946033421012294e-05
1.2940803853634518463e-05
1.2923402965745667951e-05
1.2907307124149227802e-05
1.2891218108295432771e-05
1.2876128039148621265e-05
1.2860829504586967627e-05
1.2846186151924628136e-05
1.28307521115772814e-05
1.2815800224056247373e-05
1.2800028234185911857e-05
1.2785010647169400412e-05
1.276940188745289819e-05
1.2754641324923858211e-05
1.2739355873251179013e-05
1.2724585724961598804e-05
1.2708964338817601745e-05
1.2693798828024753587e-05
1.2677852645342569185e-05
1.2662717789165717715e-05
1.2646938745157987137e-05
1.2632080728049433808e-05
9.1447249389921512081e-06
9.1327801292899032297e-06
9.1234941530583676071e-06
9.1113642153280033635e-06
9.1017357561683521756e-06
9.08922045075725551e-06
9.079238173354394899e-06
9.0664479163062836097e-06
9.056368150040164711e-06
9.043667430706022427e-06
9.0336908896733639733e-06
9.0210310864905684575e-06
9.0111122532494227031e-06
8.9983661387738974631e-06
8.9885919300135982225e-06
8.9757856882227030293e-06
8.9661178055092003266e-06
8.9522653770005835102e-06
1.3799734350161572884e-05
1.3776307277976300932e-05
1.3753559388925826046e-05
1.3732583595042466339e-05
1.3711720190809156299e-05
1.3692666899140568178e-05
1.3673531424059484683e-05
1.3655748312798235688e-05
1.3637508313579250533e-05
1.3620152983084047552e-05
1.3602304297430946651e-05
1.3585501924020815392e-05
1.3568742763562975797e-05
1.3553087251832012842e-05
1.3536861674571705347e-05
1.3521413378899854637e-05
1.350500911919840309e-05
1.3489123863453516693e-05
1.3472053397205411819e-05
1.3455608346302616037e-05
1.3438705136916896828e-05
1.3422694899724112015e-05
1.3405914492855117344e-05
1.3389734327891457711e-05
1.3372739393887355901e-05
1.3356731558257718112e-05
1.3340206414881660034e-05
1.3324738297674067964e-05
9.6304078000433126805e-06
9.6176660336523714059e-06
9.6075602237730653188e-06
9.5947365327167522653e-06
9.5845009806505679405e-06
9.5714679986227097457e-06
9.5610953803907756867e-06
9.5479088421959460228e-06
9.5375060345594383978e-06
9.5244044101837743163e-06
9.514051700803773085e-06
9.5009262534779317786e-06
9.4906633110647684113e-06
9.4774797504455782085e-06
9.4673558335001055755e-06
9.4542044936914873505e-06
9.4442050954350976273e-06
9.4304029166079514877e-06
1.4480762515535650921e-05
1.4457894565420333083e-05
1.4436426874287467989e-05
1.4415369782309605734e-05
1.4396327880118462683e-05
1.4377643114613343023e-05
1.4360393101520943938e-05
1.4342537853781704146e-05
1.4325168798746738504e-05
1.4306974871141559102e-05
1.4289675633142645192e-05
1.4272516391728832881e-05
1.4256578536928647189e-05
1.4240412048548887236e-05
1.4225148534113450381e-05
1.4209060904342848966e-05
1.4193316000334134735e-05
1.4176286914966822758e-05
1.4159446993984968889e-05
1.4141842824645135213e-05
1.4124877566604910489e-05
1.4107364402732182121e-05
1.4090730711971959037e-05
1.4073584957623855632e-05
1.4057339952832265082e-05
1.4040440121940985445e-05
1.4024375202476491156e-05
1.0098866869796955492e-05
1.0084860467362251061e-05
1.0072211283791158686e-05
1.005835501730344352e-05
1.0045684460445477681e-05
1.0031992612736637165e-05
1.0019386826826552129e-05
1.0005720868360070818e-05
9.9931265466838787648e-06
9.9794055257254813264e-06
9.966686883970724925e-06
9.9530428559490304968e-06
9.9401352549594267072e-06
9.9265597683413658468e-06
9.9136331036788246502e-06
9.900109823408576547e-06
9.8872021663965761561e-06
1.4973751809121375262e-05
1.494960634226869358e-05
1.4927018891752250385e-05
1.4904897453680994356e-05
1.4884769832368752434e-05
1.4865629335872337872e-05
1.4848593093326713157e-05
1.4831539719890562799e-05
1.4815208199929222075e-05
1.479779048384966839e-05
1.4780813597753657824e-05
1.47633724015962588e-05
1.4747175319443661418e-05
1.4731017986620509119e-05
1.471619525368885744e-05
1.47008198672597436e-05
1.4686178393190459557e-05
1.4670250803039125629e-05
1.4654276664042133619e-05
1.4636913807863749352e-05
1.461965900793670158e-05
1.4601449991636810644e-05
1.4584239376250000673e-05
1.456670966517149413e-05
1.4550131746580304389e-05
1.4532942609200303065e-05
1.4516437024087282606e-05
1.0375841744363785887e-05
1.0362841063131678578e-05
1.0345335066958033876e-05
1.0332682388963437551e-05
1.0315458966584762932e-05
1.0303093305902805241e-05
1.0285917660196932792e-05
1.0273492233350696277e-05
1.0256170398668892319e-05
1.0243789271912009494e-05
1.0226293498793636577e-05
1.0213927249323674802e-05
1.0196341397225944589e-05
1.0183988868598302664e-05
1.0163869191691658251e-05
1.0158790709812738393e-05
1.1743862638753438041e-05
1.1726425539604836234e-05
1.1709830368326381423e-05
1.1695010310383898379e-05
1.1681053770847006342e-05
1.1668677107208195453e-05
1.165683394844368755e-05
1.1646123396861222371e-05
1.163508771070304104e-05
1.1624449170474924063e-05
1.1612934786283562913e-05
1.1602196333419567391e-05
1.1591178420858672181e-05
1.1581204809880301168e-05
1.1570799765949036178e-05
1.1561214759188512494e-05
1.1550769777302333552e-05
1.1540671587344294172e-05
1.1529490870273960548e-05
1.1518168616563629039e-05
1.1505804443964123544e-05
1.1493703740458682079e-05
1.1480952400774692077e-05
1.1469078301953078056e-05
1.145692491054983142e-05
1.1445165212515759774e-05
1.1432805390162234239e-05
1.1420808527626720634e-05
8.0560933430211503401e-06
8.0422811862905469138e-06
8.0322865046141940845e-06
8.0186080898311169773e-06
8.0088028267303678856e-06
7.995158711483145008e-06
7.9853539111009654993e-06
7.9716801906899784058e-06
7.96198156151026587e-06
7.9482778423412251843e-06
7.9386678307006413989e-06
7.9249748402180048256e-06
7.915366652915503917e-06
7.8996324624850313426e-06
7.8979177223648076991e-06
1.1089470666286920108e-05
1.1071260155731099312e-05
1.105507376031781178e-05
1.1039730519134811866e-05
1.1026088402847117911e-05
1.1012792096989143856e-05
1.1000612225369760328e-05
1.0988168829777097247e-05
1.0976407868961684586e-05
1.0963928600964163791e-05
1.0952071339429797261e-05
1.0939901662943961002e-05
1.092864614581896128e-05
1.0917067983616890342e-05
1.0906234459813692495e-05
1.0894620675349562435e-05
1.088334635683155561e-05
1.0871071691124714479e-05
1.085890146696693421e-05
1.084595136368835982e-05
1.0833372851443375366e-05
1.0820109752034830604e-05
1.0807477687161278805e-05
1.0794309787806074844e-05
1.0781542933780732097e-05
1.0768219780548296126e-05
1.075548860662021377e-05
7.6587808883372152178e-06
7.649899964734998962e-06
7.6379189843786038274e-06
7.629151537890178698e-06
7.617206505729092802e-06
7.6084534895489360369e-06
7.596474543829485505e-06
7.5877794153423605358e-06
7.5757674232036551458e-06
7.5671312835115189812e-06
7.5551438364589470936e-06
7.5465184719826889392e-06
7.5330686962052901645e-06
7.5273771648703431732e-06
1.0657879556783412316e-05
1.0642371877988337847e-05
1.0627613196803368945e-05
1.0614348228294785459e-05
1.0601228766564686147e-05
1.0589143979938709386e-05
1.0576932539765668539e-05
1.0565573700940945185e-05
1.05536509667673683e-05
1.0542266412146517618e-05
1.0530430664110934492e-05
1.0519313992886743713e-05
1.0507818899181066479e-05
1.0496962799625218614e-05
1.0485277068649428251e-05
1.0473834051021816555e-05
1.0461469441227525884e-05
1.0449403484813832429e-05
1.0436799085376498238e-05
1.0424636568449882688e-05
1.0411728674829138767e-05
1.0399262185147924192e-05
1.0386105122382373667e-05
1.0373278510441692567e-05
1.0359905668180967244e-05
1.034719007024176479e-05
7.3671763560735797937e-06
7.3557232981629201815e-06
7.3472821926400508463e-06
7.3357793659164207548e-06
7.3273820799948751723e-06
7.3159458960721631405e-06
7.3076570309518165515e-06
7.2963040849278974014e-06
7.2880858800642298387e-06
7.2767604343016442994e-06
7.268557145459988056e-06
7.2560956570175019173e-06
7.2500698455364700473e-06
1.0242110611436488154e-05
1.0227987361745224191e-05
1.0215175898348727347e-05
1.02024441180282029e-05
1.0190672167363109521e-05
1.0178798875391597843e-05
1.0167835000652711934e-05
1.0156450513473659587e-05
1.0145628848465396683e-05
1.0134246726834736339e-05
1.012338339606334011e-05
1.0112008481459941936e-05
1.0101133212599314279e-05
1.0089376558988278446e-05
1.0077778641933421219e-05
1.0065343419381263148e-05
1.0053382309778129624e-05
1.0041132614809461347e-05
1.002949125923174654e-05
1.0017213474887534628e-05
1.0005345427890516532e-05
9.9927557969664819736e-06
9.9803902626742456574e-06
9.9674534986154079204e-06
9.9551076397400646063e-06
7.0766143858129128933e-06
7.068435059782988965e-06
7.0572639379357224979e-06
7.0491075315986128868e-06
7.0380884862608966896e-06
7.0301036969105728055e-06
7.0192487265232753575e-06
7.0113785983574546641e-06
7.0005855906605967326e-06
6.9927367027723588683e-06
6.9808039807865223685e-06
6.9750357973195197483e-06
9.8457287832276743422e-06
9.8332599442015691815e-06
9.8208728725103662787e-06
9.8093548590930756774e-06
9.7977234815372316691e-06
9.7870262282199908864e-06
9.7760169309249704409e-06
9.7655825110443293864e-06
9.7545189988936613075e-06
9.7438441762842853731e-06
9.732575160133727333e-06
9.7217433827569277582e-06
9.710069059941103681e-06
9.698547486619312448e-06
9.6862651512820528851e-06
9.6745856776815245215e-06
9.6628215087865172435e-06
9.6518379678966350303e-06
9.6403116823617174502e-06
9.6291842331348670664e-06
9.6173573724005368698e-06
9.605758603886844631e-06
9.5935523912888802942e-06
9.5817579131490434994e-06
9.46233285146759e-06
9.4507369392814328922e-06
9.4398379069141906861e-06
9.4287149158888874229e-06
9.418416178296698204e-06
9.4078155175443315506e-06
9.3977999948409290389e-06
9.387141780458777422e-06
9.3767674210556221486e-06
9.3657187056471750459e-06
9.3551066405653436294e-06
9.3438220993404242601e-06
9.3327993096464535998e-06
9.3210858426374936121e-06
9.3099361575709461383e-06
9.2986814823762435292e-06
9.288247341390658328e-06
9.2773990846237304567e-06
9.2670324296278726642e-06
9.2560081882126446918e-06
9.2451211461808068638e-06
9.2335058578793067558e-06
9.2221165393384880651e-06
9.0855013528476736369e-06
9.0742622658834607688e-06
9.0639302596808064572e-06
9.0534176979021109848e-06
9.0434859135753877223e-06
9.03290319400078678e-06
9.0226180348690903255e-06
9.0117392538192608853e-06
9.0013840116600534261e-06
8.9905349985730057682e-06
8.9800694810248412984e-06
8.9690127871103445965e-06
8.9584527638474773572e-06
8.9476651574774246464e-06
8.9376294410955226102e-06
8.9272904938968335983e-06
8.9175715916654086881e-06
8.9072872930575463623e-06
8.8970653891832289327e-06
8.8860021164839588133e-06
8.8750195808840339173e-06
8.6998591276633648506e-06
8.6895327645334844688e-06
8.6794757772210444537e-06
8.6688837775477762496e-06
8.6588970569533937367e-06
8.6485861471951567294e-06
8.6387338790758032552e-06
8.6283176611616397721e-06
8.6183020214049958389e-06
8.6079702682923353547e-06
8.598343439878390146e-06
8.5884811599269631751e-06
8.5792932329614825313e-06
8.5696065955562935153e-06
8.559982322455624346e-06
8.5495178448245543699e-06
8.5390506187503080579e-06
8.3342588761320671382e-06
8.3242381309809462077e-06
8.3147409483504269314e-06
8.3047318811896864697e-06
8.2950611718961323414e-06
8.2849989947780165272e-06
8.2755935215738848503e-06
8.2659983526884811767e-06
8.2570895165557050519e-06
8.2476960874935598811e-06
8.2383511405470350282e-06
8.2282005058998385489e-06
8.2180494667511111255e-06
8.0113907145065587923e-06
8.0022637044918593996e-06
7.9926481075655880933e-06
7.983391655697593878e-06
7.9737441103889995802e-06
7.9646624831730747899e-06
7.9553569771708348919e-06
7.9466708771775836323e-06
7.937499550466888882e-06
7.9283486359310572365e-06
7.9184246779244957124e-06
7.9085400283309142835e-06
4.4049840258825415586e-06
4.3959919110724644253e-06
4.3926011284457688248e-06
4.3925578086423122139e-06
4.4026489113447213068e-06
4.4384904859581103542e-06
4.4763924117273824841e-06
4.5016290469993598954e-06
4.5149578421394480249e-06
4.5185193333948161986e-06
4.5165163060347380324e-06
4.5119413377574349409e-06
4.4997342885709749142e-06
4.4783200180700779484e-06
4.463965307172311481e-06
4.4568831178310690307e-06
4.4537198823750553253e-06
4.4538918677874264683e-06
4.4657269030260057595e-06
4.5062110869988609868e-06
5.9738768802924919972e-06
5.9696814676686575475e-06
5.9681747150421633508e-06
5.9702184082045574998e-06
5.9727512685685112074e-06
5.9756169887247775207e-06
5.9796825694123554204e-06
5.9832666205026619578e-06
5.9842423308654578705e-06
5.9822393293413135402e-06
5.9778973760914030981e-06
5.968331067100197467e-06
5.9394009761465142402e-06
5.87136220159686496e-06
5.8064904558535559601e-06
5.7582163415688013345e-06
5.7265079469126728764e-06
5.7086120970948245039e-06
5.7005763415725135306e-06
5.6966073055194204477e-06
5.6955158437609988752e-06
5.7020888623780905687e-06
9.6664453437918836375e-06
9.632726951271416616e-06
9.6091700664365877659e-06
9.592088846297705415e-06
9.5796793869104658939e-06
9.5719619202740726912e-06
9.5658546034975597917e-06
9.561546480064661544e-06
9.5612858641482153209e-06
9.5621629600930152352e-06
9.5593807963562371915e-06
9.5530595950120576531e-06
9.5398602254614533357e-06
9.5011210456933756371e-06
9.4017283407210308817e-06
9.2912270356063756424e-06
9.1978477602601296201e-06
9.1259255484544129301e-06
9.0766766410397928965e-06
9.046705317738781973e-06
9.0294979782472080279e-06
9.0197573632846725724e-06
9.0124887520827114606e-06
9.0061926635915419951e-06
8.9999534537685297664e-06
8.9930418234408068589e-06
2.0704485267385147319e-05
2.0678834493001953032e-05
2.0659754613124408349e-05
2.0647745704109431034e-05
2.0642147173068189567e-05
2.0636823935576491083e-05
2.0632489249838909575e-05
2.0626364323166143671e-05
2.061865533002912862e-05
2.0609159059685130017e-05
2.0595257015356929113e-05
2.0571202945367434068e-05
2.051305036717172175e-05
2.0411490614143666303e-05
2.0303550802803085418e-05
2.0198408667281986392e-05
2.0103254167845560537e-05
2.0028191425779621478e-05
1.9975660049689815422e-05
1.9942075653229682854e-05
1.9921948351978277693e-05
1.9908267427503363031e-05
1.9895782410688689124e-05
1.9882293285262328102e-05
1.9866108724128207048e-05
1.9849069770829582023e-05
1.9830185948735103212e-05
1.9812788413886154502e-05
4.9803298121113059383e-05
4.9742397258607112549e-05
4.9688138979125418026e-05
4.9641241601064662952e-05
4.9601264064413376487e-05
4.9566311627692867894e-05
4.9534851704852244736e-05
4.9506101034639838905e-05
4.9477866561383130315e-05
4.9445784824415727312e-05
4.9406518585029649037e-05
4.9342485493088882986e-05
4.9233324145424614104e-05
4.9105832472620912488e-05
4.8970320813526589589e-05
4.8839134249697233189e-05
4.8722916080536927128e-05
4.8628991913418294064e-05
4.8556585380156485265e-05
4.8503655043502736039e-05
4.8464110759024831238e-05
4.8426326068168844274e-05
4.8384467587618563685e-05
4.8338584100431654237e-05
4.8287164742234536786e-05
4.8237310474642820367e-05
4.818311810169905021e-05
4.8127243986849301167e-05
4.8061974788647254689e-05
4.7988399314308536172e-05
8.593154479631942707e-05
8.5777513189532294375e-05
8.5621648675974912834e-05
8.546628955255337304e-05
8.5312249898616000342e-05
8.5158665942434673955e-05
8.5004014093494832238e-05
8.484850435862059388e-05
8.469366465833993269e-05
8.4542765219021060483e-05
8.4397615092525346699e-05
8.4258593451627282131e-05
8.4123448263757907525e-05
8.3991043561079225654e-05
8.3861360935462929802e-05
8.3735979910669368896e-05
8.3615796809246504921e-05
8.350035656626292194e-05
8.3387214475339499508e-05
8.3273343986157443461e-05
8.3155177278378757154e-05
8.3031074370536691351e-05
8.2899835786093593274e-05
8.276328519027724396e-05
8.2623240975571540139e-05
8.2482929678703745084e-05
8.2344192224407205031e-05
8.2209525063528109297e-05
8.2078228675148460721e-05
8.1951483655750718689e-05
8.1827306359654402332e-05
8.1706553139776055003e-05
0.00011040565629200965378
0.00011020661653622972488
0.00011001424735444227481
0.00010982980236431903721
0.00010965055172507798655
0.00010947204232598830697
0.00010929133311719181122
0.00010910901460859028596
0.00010892823848641603813
0.00010875221876262717246
0.0001085818561191483479
0.00010841507217166722712
0.00010824805271241120228
0.00010807831146097122196
0.00010790618835677935844
0.00010773405160077357623
0.00010756396984235913194
0.00010739613918231489718
0.00010722911290301721636
0.00010706132151186136133
0.00010689102774226092547
0.00010671753435016883703
0.00010654141718423149152
0.00010636477151517627631
0.00010618976048905836001
0.00010601813935329864908
0.00010584997306177561455
0.00010568433306651909393
0.00010551954913065216804
0.00010535530437517385204
0.0001051905748763399596
0.00010502566294945494044
0.00010485759161565024367
0.00014200314925280645953
0.00014132102966258664779
0.00014067396775511555929
0.0001400575003939641839
0.00013946859440506400164
0.00013889871174349485402
0.00012333683530147229084
0.00012313104775675445379
0.00012293334114517589367
0.00012274352230193111626
0.00012255591035848406633
0.00012236378995238259438
0.00012216416668616063355
0.00012195952369807587414
0.00012175537094368599417
0.00012155657158329832423
0.00012136450189374791472
0.0001211759177993956512
0.00012098608842030720548
0.00012079278690154420146
0.00012059780460217054548
0.00012040490869782082776
0.00012021660179702707615
0.00012003268151973172696
0.00011985028634192510519
0.00011966591285629630463
0.00011947760296054949901
0.0001192849383967814551
0.00011908934643706413294
0.00011889366109786097213
0.00011870056939322222683
0.00011851125858794132005
0.00011832523351588066667
0.00011814084824349470825
0.00011795729585538315665
0.00011777425910475575904
0.00011759228407089634451
0.00011741035871992582288
0.00011722889832011250703
0.00011704380655441414211
0.00013536868345929474271
0.0001347494731933818917
0.00013414358628978566095
0.00013355035653376780757
0.00013297116515768343933
0.00013240600335110520652
0.00013185025404109711146
0.00011471201386538332418
0.00011454993024649646864
0.00011439423609881064375
0.0001142312118984441558
0.00011404833348580021635
0.00011384430353962318131
0.00011363053768032750212
0.0001134234296513282565
0.00011323373605434580149
0.00011305962545116544427
0.00011289098998057787309
0.00011271526157065137671
0.00011252751188630354248
0.00011233328225722561842
0.00011214253368524483914
0.00011196090031159979992
0.00011178627354399743392
0.00011161192920180362147
0.00011143193330813388586
0.00011124562312877390449
0.00011105774753509573157
0.00011087621711588622369
0.00011070936741604267225
0.00011056263666758680425
0.00011043766014501098889
0.0001103303333175813765
0.00011023459734446843341
0.00011014487835690373887
0.00011005892368253213597
0.00010997491281924678616
0.00010989026459924879531
0.00010980134201424530873
0.00010970578399443953915
0.00010960403125524106047
0.00010949828446550047257
5.3114128337666265968e-08
5.3140224631948600637e-08
5.317053877040612997e-08
5.3186857124102015643e-08
5.3217634621912503924e-08
5.323471226319319493e-08
5.3274546249586125851e-08
5.332779582475949822e-08
5.3347821154777484913e-08
5.3502453570869257047e-08
5.3495529263342877615e-08
3.4031060324476311212e-07
3.1213079209517266572e-07
2.8569152055485763474e-07
2.6115808963199689832e-07
2.3862248737498537412e-07
2.1813970738185178563e-07
1.9974067398901874424e-07
1.8341753617653767316e-07
1.6912493599192161531e-07
1.567820568028126644e-07
1.4628358598891294278e-07
1.3750973815507041886e-07
1.3030957374672208422e-07
1.2448535842939037675e-07
1.1980383447989195447e-07
1.1603123065904024708e-07
1.1294783860280048099e-07
1.103708725880142309e-07
1.081690675469597455e-07
1.0628414038819388182e-07
1.0466906693709839427e-07
1.033080678801072868e-07
1.0217411400476853298e-07
1.0125007106723770318e-07
1.0045165151367138792e-07
9.9719274589524696516e-08
9.901480944321030618e-08
9.8403732093765415192e-08
9.7905267202903200151e-08
9.7533591945349256269e-08
9.7158170705354004623e-08
9.6662164603614585838e-08
9.5937890337875162577e-08
9.5057505057142623668e-08
9.412511563270271909e-08
9.3280038304302294863e-08
5.604439695151893067e-08
5.5994751320307000746e-08
5.5934443219020527286e-08
5.5869628116785452309e-08
5.5807580383367308103e-08
5.5759198150016946622e-08
5.5727468508119557353e-08
5.5713848571595630081e-08
5.5708711503103811719e-08
5.5705298203067020888e-08
5.56974341856338598e-08
5.5685970613784654258e-08
5.5683067789061788579e-08
5.5674087258394379363e-08
5.5684782488041380888e-08
5.568748379958857326e-08
5.5711932674146112185e-08
5.5745869293653289378e-08
5.575224800537188446e-08
5.5872128044220274901e-08
5.5833317200009624683e-08
3.5806843135315424308e-07
3.2780307803933388627e-07
2.9951747097547078197e-07
2.7341245908059231045e-07