/*--------------------------------*- C++ -*----------------------------------*\
  =========                 |
  \\      /  F ield         | OpenFOAM: The Open Source CFD Toolbox
   \\    /   O peration     | Website:  https://openfoam.org
    \\  /    A nd           | Version:  12
     \\/     M anipulation  |
\*---------------------------------------------------------------------------*/
FoamFile
{
    format      ascii;
    class       volScalarField;
    location    "0.00511";
    object      pPrime2Mean;
}
// * * * * * * * * * * * * * * * * * * * * * * * * * * * * * * * * * * * * * //

dimensions      [2 -2 -4 0 0 0 0];

internalField   nonuniform List<scalar> 
106891
(
172681.26311683654785
172666.74840545654297
172664.4317741394043
172673.51148414611816
172700.59482383728027
172749.02856636047363
172829.01579666137695
172938.80464172363281
173082.86988067626953
173264.55567932128906
173464.56419944763184
588903.19266128540039
586941.12017822265625
585004.30369186401367
583084.89176368713379
581173.86120796203613
579263.33491897583008
577349.26156044006348
575431.66876792907715
573514.70916557312012
571605.47396659851074
569708.57228660583496
567821.97880363464355
565940.20236015319824
564060.37718391418457
562182.08976554870605
560303.20739364624023
558420.47742080688477
556532.90200805664062
554642.56312561035156
552754.32959747314453
550874.78728294372559
549007.24788475036621
547149.95409202575684
545300.74125671386719
543461.19207572937012
541635.57789993286133
539827.53503799438477
538039.09710311889648
536271.35549926757812
534522.90725708007812
532786.52474212646484
531051.14849472045898
529310.19339561462402
527565.65493965148926
525821.9512996673584
524077.8653736114502
522326.92322731018066
520564.07871055603027
173771.93165969848633
173524.15087127685547
173303.3588695526123
173107.39052772521973
172937.13026428222656
172795.97977447509766
172687.56987953186035
172612.80496788024902
172567.7601318359375
172544.51769256591797
172533.70930099487305
172529.84830093383789
172531.22796249389648
172544.18004608154297
172572.98403167724609
172628.77469635009766
172711.91646766662598
172827.79833793640137
172980.86688804626465
173151.84899520874023
586782.30893135070801
584834.61338043212891
582908.95692253112793
580992.16087913513184
579076.1163387298584
577160.38067436218262
575248.47015953063965
573345.77212333679199
571459.31748008728027
569592.37587738037109
567739.0029239654541
565889.5295581817627
564039.89247894287109
562191.32572174072266
560342.78052711486816
558489.80028915405273
556629.80656433105469
554764.87994003295898
552900.56917953491211
551042.60045433044434
549192.98634147644043
547350.88136291503906
545517.15526008605957
543695.19884872436523
541888.18312072753906
540096.99322700500488
538321.23676490783691
536560.96333122253418
534815.193603515625
533077.50848960876465
531335.60336494445801
529578.98348236083984
527806.89220809936523
526026.75448799133301
524245.11791038513184
522461.69221115112305
173717.75736618041992
173476.04307746887207
173260.59102249145508
173068.12448883056641
172899.31319427490234
172757.90716361999512
172647.98702621459961
172570.73478317260742
172522.36663436889648
172495.04504776000977
172479.42831993103027
172469.54081726074219
172462.83586120605469
172464.28832054138184
172477.49589157104492
172513.03235626220703
172572.42395782470703
172661.54844284057617
172785.82092666625977
172926.59696578979492
586902.32657241821289
584913.97440910339355
582946.36604881286621
580984.68798637390137
579024.69627571105957
577072.94095230102539
575137.69075393676758
573225.51730155944824
571341.94870185852051
569486.85544395446777
567650.15725898742676
565819.42850494384766
563991.20954322814941
562169.22912979125977
560353.26567459106445
558536.11835861206055
556712.02470016479492
554882.69905662536621
553054.07804679870605
551230.60967063903809
549413.46305084228516
547602.93227958679199
545800.78908538818359
544008.94809913635254
542227.40085220336914
540455.2155876159668
538691.54349136352539
536936.44822883605957
535189.52718925476074
533446.13787078857422
531694.80654907226562
529922.50007057189941
528125.3019905090332
526312.028076171875
524495.34908103942871
522680.62226486206055
173566.56174850463867
173355.21213340759277
173168.4448299407959
173003.96788215637207
172862.85861587524414
172747.54404449462891
172659.07471084594727
172595.09647941589355
172550.08661842346191
172517.09750747680664
172491.63775253295898
172471.5174732208252
172460.55670356750488
172460.96751976013184
172481.39780044555664
172523.05233573913574
172591.29605484008789
172691.97407722473145
172807.37530326843262
585300.72738456726074
583259.21188735961914
581218.50284957885742
579182.43094825744629
577165.76189613342285
575181.01701164245605
573234.30484008789062
571328.43366432189941
569460.50067329406738
567619.12564849853516
565792.37713813781738
563977.6265754699707
562179.17328453063965
560396.52433395385742
558620.86740112304688
556843.59455680847168
555063.87156295776367
553286.02688026428223
551512.7795524597168
549743.66718864440918
547978.17363166809082
546216.5587215423584
544458.42123031616211
542703.63232803344727
540953.26492881774902
539207.67245292663574
537464.4075984954834
535719.78890991210938
533969.24921035766602
532204.0390510559082
530412.88750457763672
528591.65549087524414
526749.66879463195801
524902.93673515319824
174123.42630958557129
173864.47039985656738
173643.04467391967773
173451.95618057250977
173285.6036319732666
173140.97533226013184
173017.22198295593262
172914.11065483093262
172830.1521167755127
172762.19264221191406
172706.11765670776367
172659.70621490478516
172622.0595760345459
172596.58792304992676
172584.35380935668945
172591.65814399719238
172618.51095962524414
172668.97420501708984
172749.01937484741211
172842.46079444885254
586040.00257301330566
583907.45108985900879
581772.16632080078125
579645.04171752929688
577546.60349082946777
575492.65253448486328
573489.38687324523926
571537.30764198303223
569633.36869812011719
567769.9212818145752
565937.78718376159668
564132.42250823974609
562353.6372241973877
560599.08725357055664
558861.21290969848633
557132.0534782409668
555409.29872894287109
553693.83773994445801
551983.73915481567383
550273.94734191894531
548559.8810920715332
546838.64685821533203
545110.30302047729492
543379.92471504211426
541654.89337348937988
539936.6692066192627
538217.13954734802246
536484.4670524597168
534730.38748550415039
532949.53384971618652
531136.39554595947266
529290.67431640625
527423.65091133117676
174463.54108619689941
174214.19545936584473
173999.93546295166016
173814.34575080871582
173652.1000862121582
173510.00658226013184
173386.66648483276367
173281.03530120849609
173191.46643447875977
173115.58900451660156
173052.28102874755859
173001.09418869018555
172964.76330947875977
172943.33144950866699
172940.79295349121094
172955.55857849121094
172989.91182899475098
173049.57191848754883
173120.06192588806152
584905.56328964233398
582680.81499862670898
580466.80606079101562
578285.27091598510742
576154.23691749572754
574081.04227066040039
572065.34840393066406
570105.16623497009277
568198.31982231140137
566340.81240272521973
564527.16267204284668
562751.88543701171875
561009.59738922119141
559294.78054428100586
557603.12846946716309
555932.45810890197754
554279.21350479125977
552633.91635513305664
550983.14602279663086
549316.83271026611328
547632.60808181762695
545935.69344711303711
544237.49592399597168
542549.18254280090332
540870.55162811279297
539185.7755012512207
537473.71625328063965
535721.52804565429688
533927.25381278991699
532093.5357551574707
530226.88868713378906
528341.66658210754395
175422.58868598937988
175137.91333389282227
174888.57999801635742
174669.10671043395996
174474.44651222229004
174301.59289360046387
174149.78333854675293
174018.97836875915527
173908.44184875488281
173816.23579406738281
173740.9399242401123
173681.4670467376709
173639.10683250427246
173612.5762767791748
173603.61973571777344
173609.23224258422852
173629.96229934692383
173671.02709579467773
173719.01392364501953
583911.99647903442383
581618.87912559509277
579357.21321105957031
577145.95108413696289
574994.65755653381348
572903.6293773651123
570870.68882179260254
568896.64338302612305
566983.53030967712402
565129.53949546813965
563327.888671875
561571.25510597229004
559855.60984230041504
558179.22451972961426
556539.2357292175293
554927.17502021789551
553325.87263870239258
551715.08282661437988
550083.69079399108887
548434.89127922058105
546779.59058570861816
545128.96755790710449
543488.87812042236328
541852.99621772766113
540201.16083908081055
538509.4990062713623
536764.57022666931152
534967.12270927429199
533126.06136703491211
531253.93651008605957
176429.5923957824707
176143.74823570251465
175887.67361068725586
175657.52155494689941
175451.02963256835938
175267.91646575927734
175108.7954044342041
174973.95506858825684
174862.53106880187988
174773.44838714599609
174704.92753028869629
174656.31121253967285
174624.36418533325195
174608.47261428833008
174604.65707397460938
174612.37424278259277
174636.4957160949707
174664.05439758300781
583077.14375686645508
580730.84301567077637
578435.6480884552002
576204.08951950073242
574036.43990516662598
571926.41084480285645
569872.56851005554199
567880.94239044189453
565956.4813060760498
564098.11832237243652
562302.26213264465332
560564.97188758850098
558881.42473220825195
557244.99248695373535
555644.11232376098633
554058.26927185058594
552465.20644187927246
550855.52507209777832
549236.81135177612305
547621.77582359313965
546015.76491737365723
544414.81966400146484
542807.17441368103027
541174.25748634338379
539495.88006019592285
537760.17789840698242
535968.73208999633789
534132.45191955566406
178153.26471519470215
177834.30014228820801
177545.63117790222168
177284.60815620422363
177048.97978210449219
176837.79679489135742
176651.17291641235352
176489.69739723205566
176353.52927398681641
176242.58402633666992
176155.52656364440918
176090.86135864257812
176044.29896354675293
176013.47145652770996
175993.74939918518066
175983.76603317260742
175988.39530754089355
175995.43822479248047
582462.99798774719238
580087.56923294067383
577778.27568054199219
575535.30932998657227
573350.9597339630127
571222.99700164794922
569158.02451515197754
567163.56308174133301
565243.50855827331543
563398.33464241027832
561624.08334732055664
559912.90491676330566
558256.97876167297363
556646.66319465637207
555063.28938865661621
553482.7300910949707
551891.23595428466797
550292.74204063415527
548697.31698608398438
547107.4105052947998
545516.16571807861328
543912.09759521484375
542281.41543769836426
540610.58126831054688
538890.11308097839355
537116.93626976013184
535294.35416793823242
180060.82859420776367
179745.31128120422363
179457.27973937988281
179195.45598983764648
178958.71013832092285
178746.36349868774414
178558.30815887451172
178394.47893524169922
178254.90589714050293
178138.43068885803223
178043.56812858581543
177966.62006187438965
177905.54633903503418
177856.91348266601562
177819.52006721496582
177797.89297103881836
177779.40382957458496
586964.62523460388184
584485.77988433837891
582055.78534698486328
579686.32085800170898
577381.89138793945312
575141.24066925048828
572965.40272903442383
570859.92055892944336
568829.05726432800293
566872.1613655090332
564985.80146217346191
563165.87957191467285
561409.04572486877441
559714.01549530029297
558077.87850379943848
556486.50898361206055
554914.22167778015137
553337.9747371673584
551749.97719573974609
550154.38991546630859
548555.21347808837891
546950.58085632324219
545333.93278694152832
543695.96290397644043
542026.39700126647949
540315.14121055603027
538552.81136322021484
182504.6909351348877
182195.91838455200195
181910.36299324035645
181647.76130294799805
181408.02077674865723
181190.99880218505859
180995.9697208404541
180821.8093376159668
180666.40487861633301
180528.07704162597656
180404.64346885681152
180296.36247062683105
180203.17508316040039
180125.44937133789062
180067.59209442138672
180015.81317901611328
588708.73064804077148
586232.52860450744629
583799.9788761138916
581416.1424560546875
579088.11862373352051
576823.55232620239258
574630.0192756652832
572513.3578052520752
570472.75938987731934
568498.36140251159668
566578.12781143188477
564707.06543350219727
562889.67423248291016
561134.81472396850586
559445.89850807189941
557812.30155754089355
556210.17801475524902
554614.11002159118652
553009.27295112609863
551393.48877716064453
549770.43964385986328
548141.52229309082031
546502.53066444396973
544844.62606239318848
543157.05355834960938
541429.01428031921387
539651.50505447387695
537821.60995674133301
184763.7514591217041
184454.02324676513672
184165.21750068664551
183897.47541999816895
183650.29281044006348
183422.07467460632324
183210.59812164306641
183013.15568161010742
182828.55992889404297
182656.48641014099121
182499.27492713928223
182358.96333694458008
182236.31725311279297
182135.0612850189209
182041.57216644287109
587996.94760513305664
585579.46978378295898
583202.24785614013672
580870.96939849853516
578598.06031036376953
576395.93533134460449
574270.64246559143066
572217.05168151855469
570218.79568481445312
568258.2414379119873
566329.74576568603516
564443.4715576171875
562615.54014205932617
560854.24640083312988
559152.96442031860352
557492.09913063049316
555848.61084175109863
554206.30255699157715
552558.95851707458496
550906.46151733398438
549248.42553329467773
547580.19219970703125
545893.02993774414062
544175.67030334472656
542417.3923282623291
540611.94270896911621
538760.84731864929199
187122.73614120483398
186808.86990165710449
186514.85970687866211
186239.6644287109375
185981.19907760620117
185736.91772270202637
185504.13825607299805
185282.04192543029785
185071.04605102539062
184874.17974472045898
184694.36523246765137
184532.34950256347656
184391.54377365112305
184258.476806640625
587571.97069549560547
585204.81851577758789
582873.96825981140137
580594.62264060974121
578381.7180233001709
576239.45109176635742
574158.92380142211914
572121.6696949005127
570108.96953582763672
568115.30203056335449
566153.17876052856445
564242.12994003295898
562393.89327239990234
560605.96288871765137
558864.51509284973145
557151.8098030090332
555453.06182479858398
553759.29137420654297
552065.56156158447266
550367.52706336975098
548659.31777191162109
546933.28735160827637
545180.26804351806641
543390.66119766235352
541558.98680686950684
539687.27069473266602
189644.91241264343262
189319.77580070495605
189011.84977340698242
188718.87611961364746
188438.52627182006836
188168.6363410949707
187908.66551208496094
187658.97746276855469
187422.36384010314941
187201.83853912353516
186998.35188293457031
186815.93795776367188
186642.146728515625
587364.81569862365723
585031.27949523925781
582742.83742713928223
580515.38884735107422
578350.73267555236816
576236.67671203613281
574154.18943786621094
572086.56330680847168
570029.853271484375
567996.2651424407959
566005.05427169799805
564069.54269981384277
562191.52152824401855
560363.58022117614746
558574.09289932250977
556810.89587783813477
555062.85922622680664
553320.87578964233398
551577.63284111022949
549826.82953071594238
548062.89854621887207
546279.49809646606445
544467.81093788146973
542619.69352722167969
540733.37497329711914
192319.60258483886719
191976.6730785369873
191647.30230522155762
191329.75340270996094
191022.62491989135742
190725.42294502258301
190437.73979759216309
190161.28825569152832
189898.69015693664551
189651.53562164306641
189425.27133178710938
189208.96544647216797
587280.57151412963867
584980.16646957397461
582736.27306938171387
580547.95419311523438
578400.18716049194336
576274.24720191955566
574157.29193687438965
572048.18844413757324
569957.64073371887207
567901.26225090026855
565891.43939590454102
563933.30055618286133
562025.78487396240234
560163.96133422851562
558338.85030937194824
556537.70089530944824
554747.73320770263672
552959.8144645690918
551168.97080612182617
549372.75911331176758
547567.30051040649414
545742.83076858520508
543886.14114952087402
541989.62744522094727
587329.37597846984863
585068.63435554504395
582857.08506011962891
580678.18903350830078
578514.20406532287598
576356.20503044128418
574205.8879451751709
572071.7346076965332
569964.7647819519043
567894.94296646118164
565869.79890060424805
563893.84774780273438
561967.77304077148438
560085.39108467102051
558233.22141456604004
556396.05633163452148
554564.72649002075195
552737.30191612243652
550913.92644309997559
549090.14105033874512
547252.59495735168457
545383.76809501647949
543474.10554695129395
585326.93422698974609
583119.3005199432373
580921.97787094116211
578727.40624046325684
576538.24421691894531
574362.70717811584473
572209.75499153137207
570088.00751304626465
568006.09579658508301
565971.35457611083984
563987.58100318908691
562051.08482933044434
560149.03631401062012
558266.05605506896973
556394.01463890075684
554533.30705642700195
552684.21205139160156
550838.31088066101074
548977.38166809082031
547082.90668106079102
545148.44919967651367
579029.83551597595215
576808.31031799316406
574608.29177856445312
572439.41734886169434
570309.2175121307373
568223.68243217468262
566186.70405578613281
564197.07192802429199
562245.15914535522461
560317.71235466003418
558407.49991035461426
556514.24086952209473
554635.15165901184082
552756.77370643615723
550858.06580924987793
548923.32930755615234
546952.56169891357422
572723.3020191192627
570593.63857841491699
568507.69490623474121
566466.43202590942383
564465.00344467163086
562493.97641944885254
560546.37038612365723
558618.9775390625
556704.38137245178223
554785.08676338195801
552840.02852439880371
550858.35338020324707
548846.22457504272461
573045.31917572021484
570915.81414985656738
568826.86035537719727
566778.95953941345215
564766.87866592407227
562782.89856719970703
560819.60618782043457
558865.64440536499023
556902.41783332824707
554911.34557914733887
552886.16919708251953
550836.18514251708984
790669.3178596496582
789050.15644264221191
787434.52212905883789
785787.17193984985352
784094.42368316650391
782355.34157943725586
780570.4820613861084
778736.49045562744141
776843.99251174926758
774879.60959815979004
772833.63683700561523
770707.24416923522949
768515.07334136962891
766278.23967933654785
764016.89647674560547
761747.93933486938477
759485.52685737609863
757239.47187232971191
755011.07303047180176
752793.90071296691895
794089.67454147338867
792445.99529266357422
790852.80732154846191
789258.05132484436035
787625.57685852050781
785942.67757987976074
784208.89646339416504
782424.88054466247559
780585.33011245727539
778677.94681549072266
776687.56610298156738
774604.42988395690918
772432.84707069396973
770193.17092132568359
767913.21904945373535
765617.04169273376465
763320.74761390686035
761035.09356880187988
758767.30562210083008
756518.91104507446289
754285.34737586975098
752063.79728698730469
799218.89147567749023
797394.05442428588867
795679.96323204040527
794059.09433555603027
792486.67808723449707
790908.33664131164551
789286.69322776794434
787609.75716209411621
785878.10687255859375
784092.18790245056152
782245.15347099304199
780322.09420013427734
778305.83146286010742
776186.56433296203613
773971.19583129882812
771685.89468765258789
769365.4358959197998
767037.4527416229248
764717.13506698608398
762411.69489479064941
760125.61962509155273
757860.64192199707031
755613.99361610412598
753385.14255714416504
751183.18702697753906
749024.59178733825684
802504.62477493286133
800588.7188835144043
798782.30215454101562
797085.28647041320801
795480.58377265930176
793922.56443214416504
792354.79561424255371
790739.67423057556152
789065.20322418212891
787332.36467552185059
785541.7910213470459
783685.56274223327637
781746.79813194274902
779706.94692230224609
777556.05780220031738
775303.09641647338867
772978.76102256774902
770623.21545219421387
768267.92394828796387
765927.40329742431641
763605.42191696166992
761304.02567863464355
759025.056396484375
756767.46216773986816
754532.6953067779541
752330.91572189331055
750177.17072296142578
748082.31801605224609
805675.49604415893555
803662.26464462280273
801762.36531639099121
799969.86796379089355
798285.84257888793945
796693.76013374328613
795146.94232368469238
793587.35986137390137
791976.24731063842773
790302.25008964538574
788566.71245384216309
786770.51246452331543
784904.95152473449707
782951.39119338989258
780889.82926940917969
778710.32351875305176
776423.60892105102539
774064.72604179382324
771678.79846382141113
769300.01862716674805
766942.45133781433105
764607.14180374145508
762293.85965728759766
760004.3843936920166
757738.98561477661133
755500.86711502075195
753300.7382755279541
751151.93123435974121
749062.77271270751953
747034.69699478149414
808740.27832984924316
806607.14920997619629
804609.34954452514648
802721.5471305847168
800938.58848762512207
799262.53665351867676
797678.02197456359863
796137.80972671508789
794582.35897636413574
792972.64589500427246
791297.3305549621582
789558.1006908416748
787755.74400520324707
785881.33644485473633
783915.29559516906738
781836.51790809631348
779635.00292587280273
777322.66167640686035
774937.10322952270508
772527.18323516845703
770129.89969062805176
767758.98635864257812
765413.00381469726562
763089.83509635925293
760791.31271171569824
758519.17118263244629
756278.09841346740723
754079.30697441101074
751934.59543418884277
749849.94759559631348
747825.6042594909668
745862.89303016662598
809435.59269142150879
807316.06944465637207
805328.97261238098145
803449.65160942077637
801673.74175643920898
800003.94270706176758
798425.02608299255371
796889.36163520812988
795336.64954376220703
793727.38620948791504
792050.44364356994629
790307.7361888885498
788500.1106014251709
786618.17854118347168
784641.29312324523926
782547.64119720458984
780327.47314262390137
777994.21954917907715
775587.98361015319824
773159.99773979187012
770748.66321182250977
768367.91567420959473
766014.70528030395508
763685.32769584655762
761381.53670120239258
759106.02285385131836
756864.14453887939453
754667.29453468322754
752526.42592430114746
750445.7710075378418
748424.78288078308105
746465.50446510314941
744580.38698959350586
943299.44631385803223
939884.70499801635742
936505.55185699462891
933195.47516250610352
929969.78420829772949
926849.55558776855469
809901.459228515625
807791.33261680603027
805811.41406440734863
803937.33506774902344
802165.15514945983887
800497.94163513183594
798921.13657188415527
797387.08235931396484
795834.73883438110352
794224.36938858032227
792545.27162933349609
790799.14852905273438
788986.83147239685059
787099.13886451721191
785115.01385879516602
783011.94745635986328
780780.44911956787109
778434.64439964294434
776015.62135124206543
773575.98615646362305
771155.77571487426758
768768.82390022277832
766410.8120174407959
764076.98772811889648
761769.4195499420166
759491.31323432922363
757248.51712226867676
755052.71747589111328
752914.3194637298584
750836.23098564147949
748817.35597610473633
746860.4931812286377
744978.50993728637695
743197.39608001708984
947139.76906967163086
943741.20341300964355
940314.61034965515137
936923.8359260559082
933602.25947952270508
930365.63708114624023
927234.75468635559082
810150.66584587097168
808045.01175689697266
806068.49810791015625
804196.80761909484863
802426.68105125427246
800761.13055992126465
799185.47799301147461
797652.25313949584961
796099.92174911499023
794488.56382942199707
792807.98077011108398
791059.75449371337891
789244.58741569519043
787353.4026985168457
785364.94127464294434
783256.27883148193359
781018.09471130371094
778665.11722946166992
776239.26378440856934
773793.79824256896973
771368.98287773132324
768978.82735633850098
766618.73507690429688
764283.18125152587891
761974.19952964782715
759695.32925415039062
757452.60970306396484
755257.68845558166504
753120.75119400024414
751044.26716232299805
749026.61672782897949
747071.26205825805664
745191.0336799621582
743411.91983032226562
741754.10514259338379
172505.66461181640625
172458.40348243713379
172440.48759841918945
172453.54989814758301
172501.17470932006836
172580.42365646362305
172694.87882232666016
172837.39833831787109
173009.53826713562012
173212.82607460021973
173429.36115074157715
587233.80792808532715
585145.24823570251465
583086.33917999267578
581045.76440811157227
579013.40530395507812
576986.93240356445312
574968.98187446594238
572963.1275634765625
570973.69742965698242
569002.89518165588379
567049.38565826416016
565110.23724937438965
563182.05646896362305
561260.97316551208496
559344.73740768432617
557434.11623001098633
555529.70291137695312
553630.98972511291504
551739.97872924804688
549863.21806144714355
548007.59657859802246
546173.73113441467285
544354.89687728881836
542542.54214668273926
540734.08485412597656
538933.81462097167969
537145.2985954284668
535363.37126350402832
533577.1726016998291
531781.59066963195801
529982.14251518249512
528187.96294212341309
526403.83984184265137
524629.18318748474121
522860.8872127532959
521095.18523216247559
174115.10062980651855
173769.49948692321777
173467.78462982177734
173209.64303588867188
172992.2015552520752
172810.31549072265625
172657.607177734375
172528.05476188659668
172417.63027000427246
172325.07320976257324
172251.94784736633301
172200.98083686828613
172176.03786468505859
172178.57765579223633
172211.7980785369873
172272.97437858581543
172365.63252067565918
172483.73943519592285
172629.04230690002441
172804.00638961791992
172991.43447494506836
587297.8948974609375
585190.58855056762695
583120.17415809631348
581068.59200286865234
579022.38909530639648
576981.91196632385254
574955.61284446716309
572951.31023979187012
570973.08280754089355
569020.3369197845459
567089.14595413208008
565176.50750350952148
563280.61166381835938
561397.44421768188477
559522.1547794342041
557652.67438507080078
555788.63159561157227
553928.31318855285645
552070.79587745666504
550219.2940616607666
548379.52376365661621
546553.43352890014648
544736.44770812988281
542921.50146865844727
541106.33552360534668
539295.18962669372559
537491.59403800964355
535690.0880069732666
533879.83363723754883
532056.52737808227539
530226.34589004516602
528398.39040946960449
526577.35469245910645
524762.26786613464355
522948.53617858886719
521130.83564567565918
174036.87344169616699
173680.8101806640625
173369.85461616516113
173104.24145889282227
172881.78680229187012
172697.79652786254883
172545.74141311645508
172418.60820770263672
172310.6917552947998
172218.91647338867188
172143.49139976501465
172086.68888092041016
172052.40196418762207
172042.34613418579102
172059.54263114929199
172101.4538402557373
172171.30510711669922
172263.83657264709473
172380.67453384399414
172524.82184791564941
172679.74740409851074
585536.37470817565918
583442.54819679260254
581368.34810638427734
579299.66919326782227
577241.48017311096191
575208.86307525634766
573212.43771362304688
571251.70784568786621
569318.16109848022461
567404.3421516418457
565511.21610832214355
563644.44990921020508
561802.63672256469727
559975.5087776184082
558152.92214584350586
556330.21479034423828
554505.10092353820801
552676.38723754882812
550846.90272903442383
549022.92505073547363
547208.04208183288574
545398.40521430969238
543585.34353828430176
541763.97076225280762
539937.48457527160645
538111.16312408447266
536282.8048210144043
534444.53137397766113
532592.91069030761719
530733.07078170776367
528872.46123504638672
527014.35257339477539
525156.55082130432129
523293.61940574645996
173796.27957534790039
173473.03352928161621
173194.44106292724609
172959.88531494140625
172766.23751258850098
172607.77252197265625
172477.09426498413086
172366.9793815612793
172272.29084968566895
172191.42781829833984
172125.76116561889648
172079.07432556152344
172053.69191741943359
172052.98688507080078
172075.04185104370117
172122.98885726928711
172192.3414192199707
172284.39225006103516
172402.12160873413086
172528.8543758392334
586086.81643486022949
583955.66126441955566
581848.20797729492188
579754.16459465026855
577682.96967315673828
575651.52949905395508
573667.07769203186035
571722.04959106445312
569801.97827911376953
567899.18561744689941
566021.50037384033203
564183.2725944519043
562385.27628135681152
560609.96027374267578
558836.45248222351074
557053.64897537231445
555259.15237998962402
553455.09377861022949
551647.99239730834961
549846.66210556030273
548054.55801200866699
546264.28604507446289
544462.05094337463379
542639.65882301330566
540800.38844299316406
538952.8824577331543
537100.77162933349609
535240.42121315002441
533367.65657043457031
531483.51111793518066
529592.47344017028809
527697.41069030761719
525797.41375732421875
523888.88151741027832
174153.06480979919434
173816.08987236022949
173521.82874298095703
173271.08626747131348
173062.31369018554688
172890.82157135009766
172749.31924057006836
172629.80785179138184
172525.8934268951416
172434.76099967956543
172356.98771476745605
172295.91901397705078
172253.78326225280762
172233.70571136474609
172234.24286079406738
172258.85023880004883
172304.77219009399414
172374.06328201293945
172470.23971748352051
172576.33619499206543
584653.7309398651123
582503.49526214599609
580381.93985939025879
578298.25963020324707
576263.01786994934082
574276.38716506958008
572326.9247875213623
570400.93639755249023
568495.8670825958252
566625.52531623840332
564808.02905464172363
563043.92465400695801
561309.60137176513672
559574.95014762878418
557822.77726364135742
556051.39151000976562
554267.99866676330566
552485.11663246154785
550714.36763191223145
548955.61981964111328
547193.26453971862793
545407.40062713623047
543588.58615112304688
541742.0882625579834
539880.73666000366211
538013.84849166870117
536140.85551452636719
534254.5328483581543
532350.06074905395508
530429.83737182617188
528500.07833480834961
526564.59376525878906
174448.74392127990723
174137.07063484191895
173867.64455795288086
173639.84543037414551
173449.51298713684082
173289.69399833679199
173152.66534805297852
173032.27146339416504
172925.67586517333984
172833.16015625
172757.41540145874023
172699.98453330993652
172662.86140060424805