/*--------------------------------*- C++ -*----------------------------------*\
  =========                 |
  \\      /  F ield         | OpenFOAM: The Open Source CFD Toolbox
   \\    /   O peration     | Website:  https://openfoam.org
    \\  /    A nd           | Version:  12
     \\/     M anipulation  |
\*---------------------------------------------------------------------------*/
FoamFile
{
    format      ascii;
    class       volScalarField;
    location    "0.00511";
    object      T;
}
// * * * * * * * * * * * * * * * * * * * * * * * * * * * * * * * * * * * * * //

dimensions      [0 0 0 1 0 0 0];

internalField   nonuniform List<scalar> 
106891
(
298.83216417735633286
298.83187922656355795
298.83177835921719634
298.83105473904743121
298.83036430577271858
298.82792732340493558
298.82528783587162025
298.82040067144760087
298.81552295334444125
298.80949309882214493
298.80254976828024382
298.69748907449405806
298.70627594584442477
298.70931439766366111
298.70673762757797931
298.69938604593346554
298.68915439000784318
298.67938009976597868
298.6740650148790337
298.67614368984055773
298.68606224612949518
298.70184381373678661
298.72050902306921216
298.73938560237820639
298.75640409679061804
298.77006037080002443
298.77936405821714061
298.78412286465720626
298.7853879079221997
298.78538598052097086
298.78622786214941698
298.78836818248703366
298.790175829747227
298.78957385667473545
298.78622623552507775
298.78260132813517203
298.78256313627389318
298.78873873909458325
298.80073184224340821
298.815559663526642
298.82977856373639725
298.84141548344763351
298.84975056799004278
298.8535482779439576
298.85051244966285822
298.83864074214574202
298.81879803096194337
298.79551150235886325
298.77568244801187802
298.86114370745207225
298.86237177928830988
298.86429129874545652
298.86662291192595831
298.86901031833991738
298.87116678941470127
298.87292445222556125
298.87423483280696246
298.87528080367616212
298.87588016841385752
298.87594098302025714
298.87550077836050377
298.87392140449151157
298.87188678089711402
298.86778803697478679
298.86312737065969714
298.85593558141732728
298.8487439668465413
298.8406712846453388
298.83200431006366671
298.68800135625389203
298.69310741653583818
298.69247155029700025
298.6861410656271687
298.67623077094447126
298.6671675938122803
298.66415255758687408
298.67064862898820365
298.68649956674551049
298.70804701908235756
298.73031367672325587
298.7494654327600756
298.76383666478398027
298.77354822641842702
298.77952510719063639
298.78278151275537766
298.7844894840200709
298.78625902199331676
298.7893655690291439
298.79347307380123766
298.79648130778065251
298.79616968591847126
298.79250746608977352
298.78811518547132664
298.78693735905744688
298.7917066222584026
298.80242056968057796
298.81688423511980091
298.83216250113667911
298.84593287088466695
298.8563785864260467
298.86137211154289162
298.85831737355874793
298.84566263591966617
298.82508335276156686
298.80178939783803571
298.88928886966868959
298.89251020798241143
298.8970526808343493
298.90246467062343072
298.9080225647526845
298.9132326746063768
298.91774608785226519
298.92125884321586682
298.92340083973925857
298.92428940951623417
298.92391695721209999
298.92230568869371155
298.91902746541484248
298.91472284740927989
298.90819309550835214
298.90096053737175907
298.8912039818114863
298.88138427686715204
298.87083244230802848
298.86015453307692269
298.6670701890645887
298.6741916889520212
298.67557573690680783
298.67128515645555353
298.66397929091652941
298.65858474344088336
298.6606556908917014
298.67350713171003918
298.69594961364373376
298.72248547345333236
298.74617594347398608
298.76249535692932113
298.77120854836005037
298.77505679198065991
298.77741676121559067
298.78056484706053197
298.78526253422637637
298.79108620369578375
298.79714601251509976
298.80218482374169753
298.8046959515492631
298.8037089980147698
298.79981235028475339
298.79575988665453679
298.79490767185285449
298.7992053910347181
298.80871520000920327
298.82183890277832461
298.836121648744097
298.84933526578549845
298.85954905403275461
298.86444503406409012
298.86153112064823745
298.84961646041085714
298.83053622274184136
298.80919864758277527
298.92475859467748478
298.93303901622374497
298.94241956465998555
298.95180513911736853
298.96026226257367853
298.96700770449706397
298.97162965493572528
298.97400255176950168
298.97413190595659671
298.97227319071885177
298.96890872527302463
298.96343205241794294
298.95682077256458342
298.94769458882581148
298.93775852329531517
298.92546094400671564
298.91306486640110052
298.90018164493159247
298.88759316645518993
298.65909729753752799
298.66282531906898612
298.66152626235401613
298.65842878161521412
298.65856420278396399
298.66700592500592393
298.68624851422828215
298.71397687036949264
298.74317499805408715
298.76571026116909024
298.77701348901899792
298.7783523518654647
298.77540650575230075
298.77453222307389069
298.77927723890820744
298.78900903727389959
298.80016885554169903
298.80897714764807915
298.81332414754979254
298.81326935031955827
298.81049541693931815
298.80711176016217223
298.80524949356572506
298.80676969594185266
298.81243199386591414
298.82155752579171804
298.83256664087866739
298.84378102427945123
298.85368754873803709
298.86078502093988618
298.86341043442587306
298.86013178270121671
298.85025153919787044
298.8353245575466417
298.95129148931277996
298.96128499603167938
298.9736890486310017
298.9871517385390689
299.00007061287521992
299.01096706873158837
299.01876679517476987
299.02298175175980077
299.02368411101861057
299.02142335990168931
299.01675840230205949
299.01034309927132426
299.00206569855851058
298.99287039617507844
298.98155071632010049
298.96960873930487423
298.95562197101685342
298.94164081464953142
298.927426701776767
298.9136655375472742
298.64973109036526466
298.6565355225161511
298.65935813019342504
298.66170160546971601
298.66791176379337003
298.68179861231789118
298.70479767750089195
298.73415346790147851
298.76287884619455326
298.78289232209135662
298.78954262416294796
298.78475476112186016
298.77630185348385794
298.77307794902287696
298.77983239417966388
298.79456989659882993
298.81051829730677127
298.8209310624137629
298.82332399121361277
298.82015523588944461
298.81590397843280016
298.81428010547142549
298.81685533162698221
298.82327146839230636
298.83235809123067384
298.84227269047346454
298.85097700245103169
298.85737094778596656
298.86121244493580207
298.86237875990389057
298.86088991937583614
298.85688512986990872
298.85073475013081179
299.00378530785098974
299.01958991966768053
299.0359878045232449
299.0508466767728919
299.06236822951166232
299.06934006641455426
299.07142117200805842
299.06905658563249517
299.06312917380637373
299.05466916317709547
299.04482476435038052
299.03360403021298453
299.02207250318525666
299.00913429804785437
298.99601943048912744
298.98137166513254215
298.96695020193277514
298.9525684598644375
298.93867402653273757
298.66296992715024317
298.67090524872685364
298.67879156335357038
298.68921823953837702
298.70449361673621524
298.72550900872448665
298.75060424329694797
298.77513649392437856
298.79233892549956408
298.79713669760582206
298.79052573863515363
298.7801887189189074
298.77589068831292707
298.78301499933417062
298.79919555169493606
298.81640879833355484
298.82697945435194242
298.82862100111316295
298.82487673938737771
298.82192516670369287
298.82470522868675289
298.83391523051864169
298.84675262522574712
298.8594880932516844
298.86932322296041775
298.87494934638868926
298.8761172555820167
298.87332159601550075
298.86813742723785481
298.86278056130731784
298.85891473274784857
298.857090168717491
299.04982386457641041
299.06666746357637976
299.08312685363239325
299.0971217384772558
299.10682412939200958
299.11102729913795883
299.10975973855897792
299.10376454541966496
299.0943189169845482
299.08273791100555172
299.07041792304767114
299.05748458270994661
299.04487545089006062
299.03147349130568955
299.01836777031616066
299.00424300654975696
298.99047195885617612
298.97703048074572507
298.96403513812634856
298.69315076651383833
298.70576883786577582
298.71814622605114664
298.7306047534220852
298.74419417234668117
298.75998638538453633
298.77710969217525871
298.79165319383417909
298.79863844341883805
298.79657807791414825
298.78976583804654865
298.78555747830711198
298.78919983513418401
298.80049725826455642
298.81435312035711149
298.8247997232808757
298.82977728817456864
298.83233050960916444
298.8372266689871708
298.84705829996528337
298.86093495232654504
298.87564488560030895
298.88779299656141575
298.89533477224671287
298.89767857598570799
298.89514417588338802
298.88901367681484089
298.8815585858546342
298.87532310478923137
298.87219219747697707
299.10628873323054222
299.11870026174995019
299.12764818957697344
299.13213734734171112
299.13176780294327273
299.1269297086221286
299.11854384253592798
299.10786781201625217
299.09598987958059979
299.08401313889328321
299.07188387691439857
299.06037413732940422
299.04835199900355747
299.03670084291491094
299.02434664239808626
299.01245477270617812
299.00109491657258332
298.99006046102937262
298.73771721592095219
298.74881940509777678
298.7550394742664821
298.7583176370945921
298.76278167338028879
298.77154535393827928
298.78402994931747116
298.79612229277773849
298.80299076371017009
298.80281550137834756
298.79852942606203214
298.79552597566805616
298.79793498158426246
298.80651123838265448
298.81962061602189351
298.83539612006859443
298.85231221105613031
298.86891586696987133
298.88355196894696064
298.89492212636753266
298.90278977375419345
298.90764444371507125
298.91018489823591153
298.91078275632349914
298.9093772439578629
298.90596473120115206
298.90120490508320472
298.89651323504858738
299.12687050093870766
299.13165884406026862
299.13343363768888139
299.13209634835362749
299.1277612389751539
299.12098164899452968
299.11253175451565767
299.10333833177622864
299.09400564153787627
299.0851375292554053
299.07638430667481089
299.06819628082428153
299.0594712724170563
299.05082985280392904
299.04151454440147972
299.03243816971848901
299.02385910705214656
299.0154966527650231
298.76972154685574878
298.76999777851864337
298.76581820363435327
298.76237417131233087
298.76530802645771701
298.77687750095924457
298.79370408802418524
298.80840518289761576
298.8146164017442743
298.81132227310490634
298.80368778753768311
298.79997632910146876
298.80702783128225519
298.82695532684601858
298.85607393346742811
298.88694890261615456
298.91204188395494157
298.92667272328890249
298.93016691068834234
298.92542397834995427
298.917876712980501
298.91256662529821142
298.91155576348489831
298.91350693398692329
298.91553629432024763
298.91557544360500742
298.91349860826755958
299.12083884786557064
299.11595134230384474
299.10975917443721528
299.10277306783507356
299.09576808463583575
299.08935649264429912
299.0840025093997383
299.07960165046108614
299.07612713828001461
299.07277945970287192
299.06955203308115188
299.06548083501678548
299.06104537067921001
299.05576465185276902
299.05028653656859206
299.04512743053442136
299.03988277630179482
298.77902401111964537
298.77892172459280573
298.77374070375628889
298.76642255534005699
298.7619136609143311
298.76491158877206544
298.77715054979506704
298.79559242802082508
298.81350500505487844
298.82420122772799687
298.82536613681907056
298.82094744849018753
298.81920517487486677
298.82837953670531306
298.85211635569527289
298.8869888135213273
298.92364365085114741
298.95114781775782831
298.96209051930435407
298.95605530555104679
298.93940484040552974
298.92111792737938458
298.9081749663595815
298.90300765938411587
298.90378756945210625
298.90672133502260976
298.90862405078269148
299.0837945043327295
299.07556489127250643
299.06868224850973093
299.0638381921677933
299.06113263723136697
299.06044158832338553
299.06112985428171669
299.06274786625414208
299.06433844402113209
299.06580677884755914
299.06632464598305887
299.06624837266451777
299.06538528737439719
299.06403448012713397
299.06282007735063644
299.06126410927100778
298.78741842157705833
298.78162645261443231
298.77288213230428937
298.76543152477330523
298.76387093710752652
298.77108601397202392
298.78641831442530474
298.80574488559307156
298.82361278306376562
298.83595068353480428
298.84185869412067404
298.8440692960568299
298.84791387379851813
298.85907381617147394
298.88054172690061705
298.9102563024746928
298.94108722726718952
298.96398596534731951
298.97208829523145823
298.96428174114362264
298.94547963339618946
298.92358703905142647
298.90542446953696754
298.89396629445627696
298.88828264153499958
298.88567121096770052
298.88400692096826106
298.8827843374952522
299.04729477654683478
299.04373628997524293
299.04239723998250611
299.04286139705317282
299.04479835310166891
299.04752394780263103
299.05078139867106302
299.05394668875931075
299.05717688676077159
299.06006691173422496
299.06284327170112647
299.06550707411031453
299.06792620189588661
299.07053400420733169
299.07263367173527513
298.78105172796733768
298.7713032524185337
298.76554722301841593
298.76793639149860837
298.77941632951410611
298.79717925849638505
298.8165676874853034
298.8336846964099891
298.84687952422751778
298.85660381526827223
298.86459566782895081
298.87322654957142731
298.8850081624646009
298.9015300336745895
298.92195228045920885
298.9424333915076204
298.95729667964582177
298.96206422406851289
298.95551377268924398
298.94040443868937018
298.92177521722965139
298.90400797610703876
298.8891358192881853
298.87713207211390909
298.86745328481066508
298.86021639453764465
298.85624578527489348
299.02713592445928725
299.02899279529106025
299.03185469435652521
299.03521762605976164
299.03847145778428285
299.0416498629117541
299.04458949862595318
299.04777010046029773
299.05128253064248156
299.05542334884171396
299.06025313093067552
299.06532133266642859
299.070850504305497
299.07571095792923188
298.77072673166219374
298.76853042616522771
298.7754296511008647
298.79035119754087191
298.80920704902615626
298.82772409112652667
298.84373349351614024
298.85749407405904776
298.87019321624109125
298.88240422108634675
298.89378999869711606
298.9040201408485018
298.91350366058458121
298.92287229836000506
298.93154040030231045
298.93737654310126572
298.93810827309840761
298.93308908918163525
298.92356817014558601
298.91150422432207279
298.8981429201922424
298.88369163858510547
298.86831950524816648
298.85339240012638129
298.8413939083287687
298.83451118539244362
299.01906604701048309
299.02368166310208153
299.02773780963303807
299.03067497651397844
299.03287670238171359
299.03471434302991838
299.03700413092633426
299.0403056824380883
299.04493254033076255
299.05107332371784423
299.05798920184508916
299.06560218232118586
299.07259487014795241
298.77138721821876288
298.78274887503135915
298.80031244815063474
298.81938679085476451
298.83654387569958999
298.85125052670497325
298.86508454253191758
298.87926298561689009
298.89300572945961676
298.90402666764310879
298.91057792700530626
298.91283519314271189
298.91238156945678384
298.9107184157581969
298.90828996608610169
298.90491507074278843
298.90064257992014518
298.89592067633390116
298.89080342861291228
298.88411364802192338
298.8740398979003885
298.86000084367702812
298.8440887933089698
298.83020593558728706
298.82141642752475263
299.01585056921857131
299.01990853433579787
299.02211207314718422
299.02314942395685193
299.0237508462003575
299.02506364423578589
299.02796663116760101
299.03273365607907408
299.03965201679119446
299.04772135249845633
299.05664365409933225
299.06499602371064839
298.78748172025137819
298.80721042009116672
298.82662713148164357
298.84286696396787875
298.85632761617421238
298.86921635325791158
298.88256474854762246
298.89469521042133238
298.90253329728693643
298.90406279823895375
298.89978757313929236
298.89197147433486634
298.88311136481581798
298.87476638813723184
298.86784798798896645
298.86327290437043303
298.86165217031924612
298.86227542790925327
298.86251301902501609
298.85907946338079455
298.85043459504851171
298.83812835177940315
298.82586672667474659
298.81662681026546124
298.80815429008754336
298.82841262896408807
298.84464423658846499
298.85736821100454108
298.86854777011927808
298.87896718212243741
298.88695746178439094
298.88966225485199857
298.88555400150607966
298.8757724960548785
298.86317463115284454
298.85039327354712668
298.83894883895044359
298.82987486366823759
298.8245289111692955
298.82423830554546385
298.82877157829994985
298.83538403965616226
298.83986486602066179
298.83921972666337297
298.83348703800163548
298.82507242087541499
298.81616747616618568
298.84175467052835984
298.85413426469034448
298.86336039777791029
298.86983322773249938
298.8722791868149784
298.86883149633484891
298.85912603390795539
298.84513688010594024
298.82998083436609704
298.81585481153871342
298.80362407235281808
298.79381188058817997
298.7878817409737735
298.78793310633625424
298.79482720855833122
298.80657646473866862
298.81866258930165259
298.82664346402765432
298.82844657349153294
298.82442871474898993
298.81565689700687471
298.85087518852134281
298.84165576246948604
298.82726531791263369
298.81059521380410615
298.79480694444850997
298.78140371483118543
298.77013715853001941
298.76071327394248556
298.75456522858252129
298.75460798003638274
298.76293015648514029
298.77852528541558286
298.79695654866168297
298.81253636655657147
298.82092425623017107
298.82023765043146568
298.81065616282586461
298.7611774645896503
298.74979139928586847
298.74053219985205487
298.73228476938385256
298.72636862833275018
298.72630740745398725
298.735267297717769
298.75326295247327835
298.77611981622800386
298.79709860931859566
298.80982363470479868
298.81060141675152408
298.79929277904000173
298.72203768471496232
298.71514641150400848
298.70845078379534243
298.70314222912185187
298.7030707666174294
298.71217441254475489
298.73120420256003626
298.75619769583482821
298.77967709785031047
298.79391335343990477
298.79426043803073298
298.78082710238027175
298.74624143430673939
298.6606189588242728
298.59502350242814828
298.54933594967371846
298.52206815688009556
298.50820530045012902
298.50015812821800409
298.49117394392141023
298.47908368889841313
298.4660960828131806
298.45527651935691438
298.44644124303999888
298.4357227122105769
298.41822434751554738
298.39167413437064624
298.35756650984041016
298.31969227482255747
298.28245796707710724
298.25063466631769415
298.22863181716485315
298.92834098940551257
298.8010418920388247
298.69607027489473694
298.61520003395384038
298.56004207814027041
298.52808739812502381
298.51140288005655066
298.4996699626653367
298.48568169398225791
298.46865354625191458
298.452785587455935
298.44205151418583455
298.43586745937841442
298.42911446090135996
298.41528692137524104
298.39057523010092154
298.35553872865347103
298.31408013573229709
298.27176673151910791
298.23512865780804759
298.20971046597588838
298.19795722907161917
299.35408151113506392
299.17691742157734325
299.01873663179833329
298.87738060388886652
298.75500311446057822
298.65734078187153955
298.58843329280716716
298.54603998166203382
298.5207375876146898
298.50084393762995205
298.47938234681294034
298.45687455068048166
298.43888296413467742
298.4293371237303063
298.42647299726098709
298.42365688895256426
298.41308632554972746
298.39000013902978026
298.3545152033285035
298.31083449056052359
298.26550414019277468
298.22593273448882201
298.19803038487702906
298.18407724500309541
298.18251803666248634
298.18964086730557028
299.58629654819009147
299.39518298210128933
299.22575780901541975
299.07121574023881294
298.92899193668500857
298.8035001799814836
298.70309094900733271
298.63363889195812817
298.59248964345107424
298.56833128083593465
298.54771782651238254
298.52349880445450481
298.49758181655124645
298.47706248017141206
298.46673938800188353
298.46473267311154132
298.46367577239993807
298.45504849660619584
298.43355495024502488
298.3989073030934378
298.35532690342472506
298.3098778854586044
298.27031218234952803
298.24239158741210076
298.22788173805321321
298.22499253154609278
298.23057260710999117
298.24172736033000319
299.38866695167644139
299.25304043576653612
299.15082112608479292
299.06969789938051463
298.9947837010053604
298.91895128098815348
298.84642286200045191
298.78738299214575136
298.75007846591427096
298.7334095997091481
298.7268778854509037
298.7177540443202588
298.70051043093343424
298.67922892382938471
298.66247004518595531
298.65549253774508998
298.65601460176708315
298.65620141736678761
298.64790123085379037
298.62674917024173737
298.59348067886139688
298.55326997105265718
298.5137023889578245
298.48198557029195399
298.46203932747300769
298.45313074722514557
298.45164253867073967
298.45415165235226596
298.45896274355567357
298.46548314955236947
299.15891562368369705
299.12599703213828661
299.11661732564357408
299.12544381653566461
299.13622398922080947
299.13238718929994775
299.10764976814078864
299.0699906067798679
299.03466695563764688
299.01424173994712419
299.01060743136605424
299.01424299145304531
299.01248847228674776
299.00008813893771276
298.98229981277927436
298.96883700714636234
298.96561384337564959
298.97057260221060915
298.97562876813856292
298.97234836653774437
298.95591548156812678
298.92641022768435732
298.88859999218874464
298.85010293098878265
298.81817540933167265
298.79644151676785668
298.78392536863469786
298.77744461445951174
298.77492003155373368
298.77645795229085479
298.7826621814548389
298.79228525569141084
299.37608956715109798
299.36688661386915555
299.37873716230114951
299.40686378486515196
299.43339825367115736
299.44052370234163618
299.42199515131682119
299.3874035215328604
299.3544430675023591
299.33689311943709299
299.33677018639588141
299.34313180279644939
299.34195892041964271
299.32777437455882819
299.30724476945761126
299.29179054100933399
299.28827460896997081
299.29468668781061069
299.30206049634040255
299.30091304231058302
299.28566550027517223
299.25608718427997701
299.21721218710320045
299.1774735302212207
299.14475633594918236
299.12269029937220921
299.10999258204043372
299.10317366507166525
299.10023425625468008
299.10157605673049375
299.1079010984263391
299.1175421461514361
299.1266485525404164
300.37497988387735859
300.40058919378168412
300.42026122681141942
300.42853466123648332
300.4297927056522326
300.42492197308308732
299.74241035661503929
299.73416497171518813
299.74839530238352836
299.77991309904672335
299.80896506747427566
299.81618595729878507
299.79539494239372743
299.7572295009164236
299.72097596750137427
299.70116106284001489
299.69982912151141363
299.70513838492217928
299.70212122139105304
299.68531949664043168
299.66224099472333364
299.64511207024753503
299.64072729521336669
299.64645006127096849
299.65266171201278667
299.64952782128648323
299.63156905998374668
299.59889998149344592
299.55691551784815374
299.51452238657037697
299.47973535674697132
299.45593818160534738
299.44144806060279507
299.43250373062232939
299.42719438816379807
299.42623211748747281
299.43047598431479628
299.43816341210418841
299.44528215637762969
299.44805796906183559
300.20463513407230494
300.23874096889647944
300.28060123016092575
300.31681061218284867
300.34351156711545627
300.36518099274655924
300.38064702489708679
300.13595001475545132
300.12596363395749677
300.13936737086618223
300.17091059757399307
300.1998370473710338
300.20573780781842288
300.18261709275708427
300.14157187301964314
300.10260632338918185
300.08083247447461872
300.07838356215978592
300.08301012734591495
300.07889619763403743
300.06028455459352244
300.03470745001646947
300.01487808473098085
300.00809329502118317
300.01206089563879686
300.01731540519716646
300.01355912250858182
299.99471384202286117
299.96048840781423905
299.91628661768180564
299.87153428816702672
299.83477392219640478
299.80958150503499837
299.79399924715789894
299.78389567535015203
299.77718155653997201
299.77477847436682623
299.7777773762391007
299.78453363548101152
299.79073108369635747
299.79236469873387705
299.78806914601790368
298.7959300296274705
298.7991113131693055
298.80580445562162595
298.81453069030305869
298.82489983015062762
298.83416393151787815
298.84258454704291808
298.84648185449208313
298.84692794511676084
298.84224121228248805
298.83168064716079471
298.64886778048861515
298.66673543030049132
298.68355939628384021
298.69452177640795298
298.69749898733459759
298.694245454460372
298.68877290926587875
298.68493752868505453
298.6849440864965004
298.68930215999540678
298.69757109241402304
298.7091986862600379
298.72333918888728022
298.73857876044269233
298.75337557340725425
298.76658945664945577
298.7775834753049935
298.78561459470790851
298.78933644867151997
298.78741202800682686
298.78039520796249917
298.77210744640160556
298.76815876168330988
298.7727613788100598
298.78555462172954549
298.80087036768566122
298.81093622483928129
298.81101777627532101
298.80260127169003681
298.79270735553109262
298.7894104175194343
298.79678558459818305
298.81275730492944831
298.83055918212016877
298.84271745741341419
298.84560181859671957
298.96257488439096051
298.95042547595573978
298.93535840167214701
298.91808839913807105
298.89968896811006971
298.88132015003066044
298.86424437400381748
298.84967029377730796
298.83866985813199335
298.83195525935968817
298.82985733822926022
298.83207922883127594
298.83819669950378284
298.84645459977065229
298.85623508433923234
298.86454987410280637
298.87147671460968468
298.87346673328647739
298.87172489193801539
298.86469763105384345
298.85215344718176311
298.6308391516081997
298.64837844537333922
298.66511224967945282
298.67701254084187212
298.68293049988960774
298.68495147603277928
298.68643261998391836
298.68945775614741933
298.69417835209407031
298.69977574473807636
298.70568364907842351
298.71225083358200436
298.72019771657403453
298.72960762437224957
298.73978721326852792
298.74980392093914361
298.75858401211593218
298.76480103786394693
298.76678595862807697
298.76354218771069782
298.75678002269609124
298.75137449636110887
298.75380458052228505
298.7680574118407435
298.79235540318489939
298.81871226602549996
298.83721901805483867
298.84177856865966305
298.83386672179574362
298.82154752395882724
298.81421867789657654
298.81727885799676869
298.82953685461603754
298.84428696053652175
298.85379878562156364
298.85438996551670243
298.99218625577555031
298.98283318615131066
298.97023998601008543
298.95494488880336803
298.93792935759825014
298.92028468155660903
298.90346179150952821
298.88888130843906765
298.87765629025705039
298.87067336691291075
298.86822913651923272
298.86991070582001839
298.8751328080512053
298.88200074647056681
298.88971809704634097
298.89540460164090518
298.89914866430501661
298.89787188058710399
298.89311609039094719
298.88362714263212183
298.86963544557181649
298.63382513522981299
298.65123270851120196
298.66562638427581078
298.6761743070642865
298.68443513467360617
298.69272330324577069
298.70167136499020444
298.70986371417717464
298.71568938586000286
298.71896463855949833
298.72087342486611306
298.72297302520394169
298.72617919635075623
298.73057754506919537
298.73579304548502478
298.74121682364074104
298.74553403343270475
298.74666617315330086
298.74357902163677636
298.73805243467825221
298.73546623271818135
298.74262080121434337
298.76397431216571476
298.79707655897254881
298.83284725995895315
298.85982867796695928
298.87047831624249739
298.86537814450650785
298.85218992289298967
298.84063132473102087
298.83691733903930299
298.84124272849720683
298.84933732694048558
298.85554810534233638
299.01177203424111894
299.00154222569659623
298.98840303405239638
298.97322603120284157
298.95731437888258597
298.94217839385055413
298.92915443656488605
298.91940297863266096
298.91356736699077601
298.91163366657400502
298.91304143775010971
298.91697378024514364
298.92136038529105235
298.92557649874618164
298.92701372020599138
298.92609433013853959
298.92049977590193066
298.91214643974132059
298.9002663221988314
298.88543953683517884
298.62748664310782942
298.64600157565041627
298.6638925764835335
298.67977576167305642
298.69362339169043707
298.70622627020424034
298.71792396020236993
298.72741839253484386
298.73324252448321658
298.73537087598907647
298.73493602639030087
298.73323961112583902
298.73113218112263212
298.72928946138262063
298.72854537989820756
298.7294745110139047
298.73144964236519172
298.73255396071533596
298.73116090855609173
298.72832627216530454
298.72870344130592457
298.73895817101606553
298.76345045479570217
298.80042871749361666
298.84135340433294914
298.87444677736607446
298.89131677453167413
298.89092796786650297
298.87860464132126026
298.86252624487781304
298.84973992593194225
298.84359797319609697
298.84355915288682581
298.84672843576515788
299.03421535342823745
299.02616431168331701
299.0157133858364773
299.0036308042877522
298.9909786650699175
298.97918094173206782
298.96947759372613973
298.96270621174238613
298.95915575408213272
298.95853825302361884
298.9598110396778452
298.96193185471156539
298.96307614916264583
298.9627196726113425
298.95893883846031258
298.95268536216923394
298.94248998906010684
298.93063981920198557
298.91681441526179697
298.90200110659640131
298.65301918542695603
298.67504406948535234
298.69545972942927392
298.71290457774227889
298.72682746056131009
298.73768239259572965
298.74596113256353647
298.75162528059445322
298.75470360614053789
298.7550881779694123
298.7524500805484422
298.74686931393216582
298.73943245021388293
298.7324091746120871
298.72812634214722038
298.72737844253907724
298.72879288420449484
298.73012376961213477
298.73097422171463222
298.73459429111460395
298.74638417098498167
298.77027863938775454
298.80536754778279374
298.84507248535288682
298.8797929539646816
298.90122337516055495
298.90554508762733121
298.89461600222159632
298.87461412406486261
298.85311497446656404
298.83647401953436429
298.82844611643230337
299.04328364150933339
299.03580744921617907
299.0276687496817658
299.01974026799996409
299.01295988347879984
299.00804793837335183
299.00539763695167039
299.00480149825477838
299.00552294130238806
299.00635897817085151
299.00632958115767224
299.00380932308473803
298.9989469721047044
298.99039979013758739