/*--------------------------------*- C++ -*----------------------------------*\
  =========                 |
  \\      /  F ield         | OpenFOAM: The Open Source CFD Toolbox
   \\    /   O peration     | Website:  https://openfoam.org
    \\  /    A nd           | Version:  12
     \\/     M anipulation  |
\*---------------------------------------------------------------------------*/
FoamFile
{
    format      ascii;
    class       volScalarField;
    location    "0.0065";
    object      alphat;
}
// * * * * * * * * * * * * * * * * * * * * * * * * * * * * * * * * * * * * * //

dimensions      [1 -1 -1 0 0 0 0];

internalField   nonuniform List<scalar> 
75962
(
5.8166711864376221327e-07
6.3119133609005813616e-07
7.4813409134891392113e-07
9.3439423025253475657e-07
1.0438937158650049106e-06
1.095171689280973552e-06
1.1766019360417201009e-06
1.315891311905040626e-06
1.428412783051217595e-06
1.4843514255445157734e-06
1.5173547998582183442e-06
1.5736178371396093142e-06
1.7148109312552521376e-06
1.9277461511786189208e-06
2.0675685421563664472e-06
2.1285667858623862058e-06
2.1498966421985375838e-06
2.1767553517715038549e-06
2.24630006271357444e-06
2.4166346869682422101e-06
2.587920876829956925e-06
2.7055551838018752235e-06
2.7885093601779731973e-06
2.8844651006660979285e-06
3.0133091602917801904e-06
3.1460631983115543377e-06
3.2436226730588689341e-06
3.2924949213029378669e-06
3.309396342798427331e-06
3.3257973308212618026e-06
3.3692132619470260362e-06
3.433815575727698196e-06
3.4813801215227002452e-06
3.5104024068700518421e-06
3.539050753720679879e-06
3.5953577459595268118e-06
3.7247801065112334516e-06
3.9214742453574336317e-06
4.1239473596548258995e-06
4.3005450727609351944e-06
4.4333739815162726577e-06
4.5199826369159111641e-06
4.5705069711028150755e-06
4.6003531205142466381e-06
4.6244753746249834416e-06
4.6556749912181895178e-06
4.70515328575783881e-06
4.777649103555379742e-06
4.8671233103054523816e-06
4.9566348098982874031e-06
5.0262202070358324329e-06
5.0662256313787238862e-06
5.0867490878379347693e-06
5.1146888527686351048e-06
5.1836015942389093223e-06
5.3777186803352846364e-06
5.6222807838562052597e-06
5.7977048700065616189e-06
5.8923361595904030181e-06
5.9247740596751492437e-06
5.9273474071263617565e-06
5.926213952593048326e-06
5.932727363255996455e-06
5.9547010121548170784e-06
6.0189510995852091906e-06
6.1323573682484926561e-06
6.2502720627041441923e-06
6.3619681464462716919e-06
6.4517122115381724741e-06
6.5052918437152163584e-06
6.5236059090071589546e-06
6.5281008549396425978e-06
6.5435053099254493494e-06
6.6058836487088891935e-06
6.8059103772320897596e-06
7.0206174219789716146e-06
7.1480502497153901138e-06
7.2061622046927156573e-06
7.2272762787183880779e-06
7.2365458554222265321e-06
7.2450745264032601219e-06
7.2552705586403644741e-06
7.2690749258211797936e-06
7.2925294230449560207e-06
7.3454108090514027681e-06
7.4923126073413474227e-06
7.6784099750048267254e-06
7.8124431402557668365e-06
7.8768067256222874258e-06
7.8928450762003780157e-06
7.8996901241169245394e-06
7.9269864435604246651e-06
8.0490258033719957347e-06
8.3068774050562007661e-06
8.5030710420408970213e-06
8.6297385388575670448e-06
8.706147881285338194e-06
8.750435423457368533e-06
8.7731965620266300207e-06
8.7805650097058739173e-06
8.7800610311578486145e-06
8.7799581211627953113e-06
8.7923996152389486991e-06
8.8626389791898324826e-06
8.9875197318320739517e-06
9.0530153019903652139e-06
9.0660768416774447341e-06
9.0556776962784933714e-06
9.0208114497503835407e-06
8.9535100049365645312e-06
8.9151219889825380208e-06
8.9046321306586525293e-06
8.9093337292083703565e-06
8.9629408279076510285e-06
9.1732829606911957536e-06
9.4399291853381765482e-06
9.6088308382811510588e-06
9.6894753417112674962e-06
9.7195823826965311969e-06
9.7526384728612751981e-06
9.83912675710135165e-06
1.0075370046791934405e-05
1.0345964399855511591e-05
1.0539332245081908947e-05
1.0635837624179119505e-05
1.0655873649606879131e-05
1.0641200227860382979e-05
1.0576940565988426449e-05
1.050633300619298987e-05
1.0487028928399894036e-05
1.0504872160847943314e-05
1.065858813219470624e-05
1.0966343353460395832e-05
1.1144643013171703802e-05
1.1208702116160091332e-05
1.1216491428621235059e-05
1.1212703584933884002e-05
1.1211379818346851718e-05
1.1216864897794748309e-05
1.1216860317228299164e-05
1.1202549674826587568e-05
1.1144605257877846207e-05
1.0983709584496671754e-05
1.0848060560530670829e-05
1.0781492417433834972e-05
1.0760227249718278827e-05
1.0757275171546604064e-05
1.0788688751473081556e-05
1.0849747259655209713e-05
1.0885594059143480772e-05
1.0900486607260208822e-05
1.0902596646428020495e-05
1.0897748234903576763e-05
1.088995296634429664e-05
1.0876892716416625267e-05
1.0847877301623176188e-05
1.0795977626332893689e-05
1.0750036831710807895e-05
1.0714172749206759034e-05
1.0689520172169690143e-05
1.067424224664483893e-05
1.0665921189580540625e-05
1.0661201973932341817e-05
1.066171347367425515e-05
1.0676198819687421031e-05
1.0727846055776755368e-05
1.0797227223802743191e-05
1.0857043423416930849e-05
1.0905120536430862741e-05
1.0939555365922158016e-05
1.0960215821203341492e-05
1.0969471071408390533e-05
1.0971169482811610166e-05
1.097053234604982042e-05
1.0972916494362953106e-05
1.098950271511226425e-05
1.1024904552881897344e-05
1.1061701204130493931e-05
1.1096735419369665337e-05
1.1128364938011258461e-05
1.1159259918282801971e-05
1.1191473700506210831e-05
1.1227794673082928701e-05
1.1268823307838833197e-05
1.131198345383716446e-05
1.1353361027140931652e-05
1.1387506587928670929e-05
1.1411729638648114549e-05
1.2097780074629353907e-05
1.2123144125965520042e-05
1.2147940144053413175e-05
1.2171088978150098331e-05
1.2191190017240166824e-05
1.2207698213005378874e-05
1.2220250043463495436e-05
1.2228385354628768349e-05
1.2232488490126032309e-05
1.2232896905753748689e-05
1.2229928606560330301e-05
1.2224442496161387945e-05
1.2217697710107892822e-05
1.2210425330548237204e-05
1.2202795440128943671e-05
1.2194466760170885939e-05
1.2185955574855470961e-05
1.2176960434599624672e-05
1.216676309629380787e-05
1.2154453068328907825e-05
1.2138210550570799874e-05
1.2120998996727244524e-05
1.2103442252489069605e-05
1.2086177764274407993e-05
1.2068958837321873003e-05
1.2052308981118794749e-05
1.2035908263485705044e-05
1.2020032090077480908e-05
1.2004092110620482494e-05
1.1988138506736258155e-05
1.1971652226379705602e-05
1.195504730816386612e-05
1.1938501993389156637e-05
1.1922965164141844426e-05
1.190862069924561628e-05
1.1895734608801808647e-05
1.1883431163905252995e-05
1.1871258258887960885e-05
1.1858333225039469368e-05
1.1844911534714678541e-05
1.1830976114116595208e-05
1.1817439810090258901e-05
1.1804308662331553341e-05
1.1791974736546457982e-05
1.1779721647822542175e-05
1.176750377734637298e-05
1.175449221588719935e-05
1.1740873127264856332e-05
1.172620587188059607e-05
1.171111078201769783e-05
1.1695547014343368262e-05
1.1680217883131809511e-05
1.1665011133903873685e-05
1.1650412374217918363e-05
1.1636019468292416057e-05
1.1622003413232138123e-05
1.1607944368800611595e-05
1.1594293066868180124e-05
1.1581064568826405335e-05
1.1568829466843622838e-05
1.1557272315728266989e-05
1.1546183487506719262e-05
1.1534556958223005562e-05
1.1521867455541053265e-05
1.1507467767416638575e-05
1.1491589848019459556e-05
1.1474491970316297654e-05
1.1456889129322498695e-05
1.1439060779728042196e-05
1.1421376923269537602e-05
1.1403851090432182066e-05
1.1386760533074742038e-05
1.137016801341916771e-05
1.1354333417965542448e-05
1.1339104212822578282e-05
1.1324526132781190626e-05
1.1310180499752024892e-05
1.1296107372460342287e-05
1.1281843507587871871e-05
1.1267595425442746815e-05
1.1253046250938424772e-05
1.1238554267811829915e-05
1.1223897868058090062e-05
1.1209289383476424382e-05
1.1194397276513267864e-05
1.1179314719103851725e-05
1.1163908575524476277e-05
1.1148548687602067813e-05
1.1133495423527192694e-05
1.1119159377829615102e-05
1.1105609504081916328e-05
1.1092754040381486754e-05
1.1080094712717363528e-05
1.1067247644902285044e-05
1.1053597159108331173e-05
1.1039234677186521332e-05
1.1024059467375124286e-05
1.1008862484556718788e-05
1.0993916478533339115e-05
1.0979855561596105104e-05
1.0966666431294014726e-05
1.0954197158846913667e-05
1.0942188030708216125e-05
1.0930174204789223794e-05
1.0918023582239093372e-05
1.0905457323325072939e-05
1.089246844861946929e-05
1.0879037042767875868e-05
1.0865335084005717231e-05
1.0851426420685632198e-05
1.083765174260783262e-05
1.0823732200261494465e-05
1.0810004669343479213e-05
1.079590151971029425e-05
1.0781827116282332544e-05
1.0767333654382692576e-05
1.0752885136185217594e-05
1.0738134819667001111e-05
1.0723596678591605224e-05
1.0708855807932121182e-05
1.0694604564249005765e-05
1.0680265617812056571e-05
1.0666535643754398969e-05
1.0652656060442499271e-05
1.0639250138476718724e-05
1.0625415688037152662e-05
1.0611961703473945311e-05
1.0597837361411585901e-05
1.0584166767551922081e-05
1.0569904652038657471e-05
1.055625148942189837e-05
1.0542353605363450199e-05
1.0529257232669017119e-05
1.0516188990542593509e-05
1.0504136489481961383e-05
1.0492014116079411505e-05
1.0480746758100459672e-05
1.0468977747538266474e-05
1.0457525405990717661e-05
1.0445112263993427631e-05
1.0432621287822872708e-05
1.0418865690776751392e-05
1.0405157855304986953e-05
1.0390362913884931861e-05
1.0376158381422984089e-05
1.0361380322121243447e-05
1.0347597084101004282e-05
1.0333377850344778771e-05
1.0320241561242708169e-05
1.0306519696568549479e-05
1.0293755232360896854e-05
1.0280315664442283048e-05
1.0267632301708913136e-05
1.025420149568396728e-05
1.024140535051102941e-05
1.0227761291954317311e-05
1.0214669201150696677e-05
1.0200742531661822235e-05
1.0187555244865784083e-05
1.0173733410920352503e-05
1.0160879860166662826e-05
1.0147404849286916894e-05
1.0134857275402872021e-05
1.0121455752586181525e-05
1.0108850369253954624e-05
1.0095229817777817208e-05
1.0082299085452836495e-05
1.0068307140329084033e-05
1.0055049665995916279e-05
1.0040710496524997184e-05
1.0027216318896117246e-05
1.0012676574837040303e-05
9.9990279113972910913e-06
9.9846090627316282307e-06
9.9712782485938044138e-06
9.9574518214889442549e-06
9.9449445568902533485e-06
9.931939143404989266e-06
9.9200984097780088171e-06
9.907572891701841165e-06
9.8959438165195531779e-06
9.8833820963517426695e-06
9.8715054188522619115e-06
9.8585810457493629525e-06
9.8462531400691466038e-06
9.8328119239980693589e-06
9.8199962125788320584e-06
9.8061950932188226074e-06
9.7932864873769556117e-06
9.7797055326814929507e-06
9.7674174159272978242e-06
9.7545840356055628725e-06
9.7431414063808569336e-06
9.7309172296546810884e-06
9.7198690984581307133e-06
9.7076960360396384429e-06
9.6966207128519247795e-06
9.684477679022500808e-06
9.6735781167059408015e-06
9.6619895505586880948e-06
9.6516851666003608974e-06
9.6407698983456469911e-06
9.630936499961601703e-06
9.6201245423463770757e-06
9.6100958186912648361e-06
9.5987654132527276397e-06
9.5881135176539021884e-06
9.5762399292859568412e-06
9.5654333674679750649e-06
9.5538810017426379647e-06
9.5437732029120020578e-06
9.5332171339905921661e-06
9.5239954535950238304e-06
9.5140815198071221071e-06
9.5049309264467615949e-06
9.494655501989306701e-06
9.484810222193442247e-06
9.4736760218558181337e-06
9.4633262912787122364e-06
9.451950677484889944e-06
9.4418915153383879696e-06
9.4311245921408239486e-06
9.4217772018206740592e-06
9.4116874956323838774e-06
9.4026840570603204645e-06
9.3926506773790823917e-06
9.3834060319701917315e-06
9.3727956265433719349e-06
9.362895581947321358e-06
9.3515778110677292233e-06
9.3409457145355139483e-06
9.3290395096149281542e-06
9.3177983577744962607e-06
9.3055155831170696743e-06
9.2940715286692446881e-06
9.2815870990384553987e-06
9.2703380767895969625e-06
9.2581781663797599498e-06
9.2473897601877150872e-06
9.2359633930992170381e-06
9.2259914873821579571e-06
9.2153766974034938449e-06
9.2060651101680146009e-06
9.1960217715261946672e-06
9.1870168703984043631e-06
9.1771059473566146951e-06
9.1681714412390562084e-06
9.1582150532794201958e-06
9.149383220702314538e-06
9.1396079181999851656e-06
9.1310895240849017401e-06
9.1216789181676305969e-06
9.1134657244265961128e-06
9.1043695480546578636e-06
5.9964955501654723853e-07
6.6579910516096312893e-07
7.7326220795450712373e-07
9.4778641438031663573e-07
1.0603849739918563742e-06
1.1095891969626844107e-06
1.1801280157035536319e-06
1.3346672744191652496e-06
1.49631578466844288e-06
1.5935672448402116354e-06
1.6417623583328849366e-06
1.6975072637947615208e-06
1.8250178423942114894e-06
2.0127646717579859438e-06
2.140044360343210793e-06
2.1941707444607874705e-06
2.216316974195529315e-06
2.2566005089673504438e-06
2.3597669261207059337e-06
2.5946650463171108797e-06
2.8131131413119439511e-06
2.9392532694388809747e-06
2.9933817521104749969e-06
3.0563360722523957562e-06
3.1628228640067910415e-06
3.2698343932932209411e-06
3.3418698948511537485e-06
3.3896581801641734564e-06
3.4414592900720290603e-06
3.506550728841039352e-06
3.5681404642096707401e-06
3.6059971901360767373e-06
3.6266454449546771002e-06
3.659087692906430785e-06
3.7176656451947241873e-06
3.8095123097377248099e-06
3.9437182279966149224e-06
4.1209270793113010007e-06
4.3201121457833325249e-06
4.5036907577784961266e-06
4.6401267310344601919e-06
4.7204341012449192369e-06
4.7582375639773621189e-06
4.7793713190952295531e-06
4.8098793754944374143e-06
4.8623594928037421937e-06
4.9368852304899095692e-06
5.026438133959879765e-06
5.1193085464286026214e-06
5.2010424453402619952e-06
5.259324007258832236e-06
5.290953636296395239e-06
5.3068853951436411446e-06
5.3298128976806052393e-06
5.3880241948348053999e-06
5.5669196608073034688e-06
5.8787093563795747239e-06
6.1180955975239601166e-06
6.2550419797381588905e-06
6.3078803727202699609e-06
6.3162446670912077799e-06
6.3135778897793996342e-06
6.3142343686794269228e-06
6.3209392441307458527e-06
6.3398826079932267812e-06
6.3982475540381972918e-06
6.5301413810465754113e-06
6.6560781845866263847e-06
6.7532803551554476882e-06
6.8108913855381046442e-06
6.8309989723365249057e-06
6.8333407741848922225e-06
6.8416256948070852754e-06
6.8801073333961367863e-06
7.0280477548666024748e-06
7.2753127657422448805e-06
7.4480739004476633462e-06
7.5449218286718084588e-06
7.5903368723601159654e-06
7.610520794245041615e-06
7.6211949297835314228e-06
7.6289251600963793536e-06
7.637820693443737218e-06
7.654080245080225383e-06
7.6965943154968389833e-06
7.8354869020992721671e-06
8.0601260897059123935e-06
8.2296296247043721048e-06
8.3198582858437074311e-06
8.3468337180123310912e-06
8.3513449741757109175e-06
8.3637087881787393822e-06
8.4265697674301987674e-06
8.6268536902720956546e-06
8.8315417335092554136e-06
8.9732276510203901455e-06
9.0637806745540454474e-06
9.1166694692250452135e-06
9.1431030138529126181e-06
9.1522585207814030438e-06
9.1540658593060957694e-06
9.1577084678989949392e-06
9.1781874939562069286e-06
9.2668515162963988979e-06
9.4027509155794568573e-06
9.48294265975421183e-06
9.5080573396626110144e-06
9.5018145829639946243e-06
9.4816367591832124084e-06
9.4311156475359320529e-06
9.3892883102911338936e-06
9.3753297460631089918e-06
9.3757943354451280665e-06
9.406606175133684587e-06
9.5597310834603610544e-06
9.8681711644047519688e-06
1.0077450635034132298e-05
1.0180361605838421512e-05
1.0224513778560651009e-05
1.0280139233537605419e-05
1.0419548164479263685e-05
1.0662122302580693349e-05
1.089679132426893453e-05
1.1068678284021464666e-05
1.1154163042797194641e-05
1.1169721886141610308e-05
1.1153122591419415449e-05
1.1083051353108091418e-05
1.1008456966076632442e-05
1.0987785056525163884e-05
1.1006194204451110597e-05
1.1167180154723690762e-05
1.1491296904847996219e-05
1.1674748947414077986e-05
1.1739493684701292843e-05
1.1759950791385133137e-05
1.1796731737435616651e-05
1.185454346983102465e-05
1.1900519412982212136e-05
1.1912950973609358937e-05
1.1901001769897994709e-05
1.1850424187837689156e-05
1.1687905511298389932e-05
1.1526615405723225291e-05
1.1447200863773480543e-05
1.1422149424726506947e-05
1.1418355892926065675e-05
1.1448553057187880623e-05
1.1503955209061669012e-05
1.1532512174717412791e-05
1.1541840098596127127e-05
1.1541008702229146692e-05
1.1535267406341416158e-05
1.1525257933988374137e-05
1.1502730845985436413e-05
1.1450038611027112725e-05
1.1391578037758292026e-05
1.1345337987662116631e-05
1.1311959778726118851e-05
1.1290334297311216351e-05
1.1277567804461677766e-05
1.1270114417923241337e-05
1.126562805078705632e-05
1.1267704446950881683e-05
1.1288150517767199825e-05
1.1348411215850781253e-05
1.1409698790421981073e-05
1.1455051904597974601e-05
1.1483765183809342176e-05
1.149882428877494614e-05
1.1505340888386687343e-05
1.1510829865787065762e-05
1.1521718644107838754e-05
1.1541938244650392351e-05
1.1568462546063493324e-05
1.1598951232501986824e-05
1.1630390405156193181e-05
1.1660557655946370459e-05
1.168877767515439655e-05
1.1716329393151808801e-05
1.1745800616574433986e-05
1.1779718921722336547e-05
1.1819563774970531594e-05
1.1864653024396056453e-05
1.1911734132765060021e-05
1.1956318912672767968e-05
1.1994249560588491886e-05
1.2021913213329648716e-05
1.2038856335197846301e-05
1.2710074706367196422e-05
1.2737101924304013869e-05
1.2764591272880090354e-05
1.279118251152916288e-05
1.2815610176544196035e-05
1.2836742746691911683e-05
1.2853778215974218262e-05
1.2867005459289533871e-05
1.2876188831039385649e-05
1.2881570690735486993e-05
1.2883382699702597944e-05
1.2881837958159752006e-05
1.2877302525766718224e-05
1.2870815881554250912e-05
1.2863206631630075575e-05
1.285499206910426095e-05
1.2846360985571896081e-05
1.2837354827014135964e-05
1.2827887767119255274e-05
1.2817291836691059993e-05
1.2803965080636388663e-05
1.2786055804396528784e-05
1.2767222881660799855e-05
1.2748067263892605343e-05
1.2728803381403675028e-05
1.2709532747971752963e-05
1.2690618654003924516e-05
1.2672296413429430672e-05
1.2654741782658671763e-05
1.2637715059567234915e-05
1.2620879907815584948e-05
1.2603759624348882283e-05
1.2586301962205573426e-05
1.2568852304317119654e-05
1.2552152576216991833e-05
1.2536794151161557599e-05
1.2522929423310777761e-05
1.2510059785852789386e-05
1.2497398052903737682e-05
1.2484198866833871495e-05
1.247021180897727454e-05
1.2455549001018784426e-05
1.2440693197062332255e-05
1.2426011323320537393e-05
1.2411764683275308799e-05
1.2397830383790401921e-05
1.2384004824063310696e-05
1.2369989715729560705e-05
1.235571099875917065e-05
1.2341084819766762578e-05
1.2326190357744075559e-05
1.2311023400860679204e-05
1.2295751371613124767e-05
1.2280504289493609493e-05
1.2265402364731406193e-05
1.2250473368594852412e-05
1.2235652012895708121e-05
1.2220980637590182414e-05
1.2206617223186802586e-05
1.2192876259727768312e-05
1.2179942394206260461e-05
1.2167744461371762563e-05
1.2155776737369823417e-05
1.214337192039595853e-05
1.2129799458948338766e-05
1.2114755766702981743e-05
1.2098229708845793142e-05
1.2080679785161552959e-05
1.2062466779488353462e-05
1.204402894226409425e-05
1.2025447623469558378e-05
1.2007024602988468467e-05
1.1988868420507042291e-05
1.1971366217672878754e-05
1.1954591311668957184e-05
1.19386473884252011e-05
1.1923278230327831248e-05
1.1908255109385742701e-05
1.1893268694947277877e-05
1.1878178076524406284e-05
1.1862963123991654424e-05
1.184769718980908243e-05
1.1832394502473404341e-05
1.1817044132557624766e-05
1.1801400947804650319e-05
1.178544001917511164e-05
1.1769035427751636043e-05
1.1752572578306416903e-05
1.1736246198324184545e-05
1.1720696837289549459e-05
1.1705994566038613065e-05
1.169238668813062863e-05
1.1679364774580222494e-05
1.1666510166952331692e-05
1.1653032182617048385e-05
1.1638526026531453674e-05
1.1622829233450466919e-05
1.1606325672254679202e-05
1.1589620392691375641e-05
1.1573491129888066327e-05
1.1558293535402603967e-05
1.1544403530634490202e-05
1.1531303486999645597e-05
1.151898402188536173e-05
1.1506553044839783618e-05
1.1494107110563064674e-05
1.1481024529094390174e-05
1.1467687785485591672e-05
1.1453798544049438075e-05
1.1439917683861474253e-05
1.1425720510388568535e-05
1.1411814288612605464e-05
1.1397503553451827923e-05
1.1383375935889988303e-05
1.1368460845233986742e-05
1.1353503472759678131e-05
1.1337740809277999608e-05
1.1322078122363830752e-05
1.1305903373010646243e-05
1.1290096689801542906e-05
1.1273954974199480822e-05
1.1258479730476888682e-05
1.1242842596590842851e-05
1.1228109786083618926e-05
1.1213210097289039142e-05
1.1199164115143992869e-05
1.118467950490779233e-05
1.1170895681733037516e-05
1.1156367118076301545e-05
1.1142432715146000124e-05
1.1127669627515387606e-05
1.1113553359319193879e-05
1.1098897509312115456e-05
1.1085165505959607748e-05
1.1071243646010796405e-05
1.1058508707302083725e-05
1.1045515778112553542e-05
1.1033476274222215303e-05
1.1020719368010770188e-05
1.1008397332457282156e-05
1.0994948986802529834e-05
1.0981635620949342733e-05
1.0966955348804122689e-05
1.0952544559993900966e-05
1.0936922674825440527e-05
1.0922069576224444003e-05
1.0906490509538479045e-05
1.0892116011251476489e-05
1.0877213166173134724e-05
1.0863647235146338475e-05
1.0849384712506320155e-05
1.0836273779765089899e-05
1.0822289920862464602e-05
1.0809166252307728518e-05
1.0795004441272500133e-05
1.0781558245161874219e-05
1.0766922502786253974e-05
1.0752990667891051903e-05
1.073798904606689592e-05
1.0723945723288467964e-05
1.0709132132923956853e-05
1.0695527596909037526e-05
1.0681163819324208266e-05
1.0667968507137513655e-05
1.0653768156925206957e-05
1.0640612801028145618e-05
1.0626270891105546852e-05
1.0612876508019703233e-05
1.0598245857163359016e-05
1.058453171294452294e-05
1.0569541187277168442e-05
1.0555541400693478822e-05
1.0540292227156941208e-05
1.0526116407374300275e-05
1.0510951310704360853e-05
1.0497081586124432272e-05
1.0482476172608942545e-05
1.0469336040746160798e-05
1.0455418761035298894e-05
1.0442828985829186595e-05
1.0429279547284058281e-05
1.0416885808521094174e-05
1.0403323849385244558e-05
1.0390723115277348645e-05
1.0376809747298531048e-05
1.0363726616200839525e-05
1.034930288570828169e-05
1.0335745957343250514e-05
1.0320942362766682426e-05
1.0307307439628095221e-05
1.029275181762217108e-05
1.027975617805438321e-05
1.0266047739054430448e-05
1.0254031374259861328e-05
1.0241075128975581703e-05
1.0229556348898352037e-05
1.021671369868182709e-05
1.0205158433615075115e-05
1.0192292941440039898e-05
1.0180854638753561374e-05
1.0168433239724595924e-05
1.0157514773227684004e-05
1.0145658108944444474e-05
1.0135130025034379931e-05
1.0123345401529893614e-05
1.0112633677512422367e-05
1.0100431625093347844e-05
1.0089281591565850131e-05
1.0076741645770182277e-05
1.0065575112367260949e-05
1.0053423464823594435e-05
1.0042947329052918457e-05
1.00316422345339555e-05
1.0021859151845323926e-05
1.0010976781884150676e-05
1.0001108753638228885e-05
9.9897598891498749898e-06
9.9791974850442500389e-06
9.9671131429117109681e-06
9.9561744868445075735e-06
9.9440756025278341046e-06
9.9337142268558361685e-06
9.9225058663325427748e-06
9.9130701757013347294e-06
9.9026342502160706979e-06
9.8935567854765431344e-06
9.8831071763950748682e-06
9.8736152696524161334e-06
9.86240805951131093e-06
9.8520667942755598415e-06
9.8399713604940303749e-06
9.8288553055006439095e-06
9.8162107744202245258e-06
9.804561522471218912e-06
9.7915133883802238216e-06
9.7795842748622556701e-06
9.7663013654768572792e-06
9.7545019786055350971e-06
9.7415403662271792413e-06
9.7302738903266935993e-06
9.7180814279788709122e-06
9.7076278346203965619e-06
9.6962661139659580921e-06
9.6865098726789322176e-06
9.6757630869466244324e-06
9.6663111660758180776e-06
9.6556559706602925613e-06
9.646250245222500426e-06
9.6355192574376087562e-06
9.6262526048335711308e-06
9.6157932279624136642e-06
9.6069684824353473041e-06
9.597058592651650099e-06
9.5886151445901954743e-06
9.5790975927644794822e-06
6.0374666667300898843e-07
7.1195536252998479727e-07
8.0839681115226977473e-07
9.9542110960667533309e-07
1.1521858102228009429e-06
1.2199048933440887378e-06
1.2936361733000525506e-06
1.4254344864635198216e-06
1.5476308124475433864e-06
1.6167787809061086487e-06
1.6581408707340441284e-06
1.7251188817597334923e-06
1.8900102793208895655e-06
2.139462136923284429e-06
2.2985569410991116207e-06
2.3638572183559977428e-06
2.383386427938134218e-06
2.4084328589048091358e-06
2.4726522125601995661e-06
2.657389954417877292e-06
2.9139887172554778563e-06
3.0833917543491456449e-06
3.1708434836682163163e-06
3.2363262481642936513e-06
3.3284574819823670097e-06
3.4381329561584454196e-06
3.5270112841130798789e-06
3.5750920466408630403e-06
3.597367562205773448e-06
3.6328787344682272367e-06
3.7201314289765453889e-06
3.8239710444168593614e-06
3.8986196629488189879e-06
3.9378533240004706404e-06
3.9615496924616756737e-06
3.9986651982263438294e-06
4.0812851344027496249e-06
4.2773272621513280551e-06
4.5212197941322053552e-06
4.7383012289094523129e-06
4.9018648874199977143e-06
5.0088182743733842132e-06
5.0714758236425385766e-06
5.1047109261625393215e-06
5.1230459222579421218e-06
5.1471733199020984747e-06
5.2018874626556735471e-06
5.2979417542709787323e-06
5.3983581537091020861e-06
5.4798819683936166974e-06
5.5306093584207342853e-06
5.5529381560019047058e-06
5.5644971231214760494e-06
5.5878768496404175611e-06
5.6521985661894676666e-06
5.8548671538704400797e-06
6.1638224257826081465e-06
6.387728998718280766e-06
6.5107202008028303085e-06
6.5568101101338473947e-06
6.5652021059957106928e-06
6.5684278791777283611e-06
6.5842815000551588084e-06
6.6292107399000606852e-06
6.7285071098552113594e-06
6.8434966645910828487e-06
6.9576975441214068045e-06
7.0588138604472765508e-06
7.1314451138662111337e-06
7.1668272154343600592e-06
7.1734580091889260908e-06
7.1721962416396910778e-06
7.1813155385083633401e-06
7.2418439665985967957e-06
7.4742026904204347188e-06
7.7761545501647392928e-06
7.9562595153102657892e-06
8.0356022985541283795e-06
8.0570211527875642155e-06
8.0564274991927977999e-06
8.0532351232735804896e-06
8.0524467316825912202e-06
8.0558434206007551294e-06
8.0743793387322832211e-06
8.149530332884049119e-06
8.3635237861400468854e-06
8.570322993716041632e-06
8.7003254891991475855e-06
8.7551928542830277608e-06
8.7615354535133829175e-06
8.7539158244023617907e-06
8.7494159314314547756e-06
8.7780516512508521138e-06
8.9350174362313883737e-06
9.1535805273204479148e-06
9.2948315119766806492e-06
9.3771683318038861267e-06
9.4203684109909565676e-06
9.4399980125045836947e-06
9.4496239626867561164e-06
9.4629719716759999902e-06
9.4980320681924850813e-06
9.6124603856022070237e-06
9.7718126529586133669e-06
9.8821266972752310452e-06
9.9335714766462136495e-06
9.9410922804992110901e-06
9.9292699133961661776e-06
9.8932342144333448235e-06
9.8385084938150592647e-06
9.8128998273442231824e-06
9.8087622599568232427e-06
9.8242264815016532768e-06
9.9183115320985059982e-06
1.0228521351487125722e-05
1.0553742187005078066e-05
1.0751528915949862177e-05
1.0842344328361342784e-05
1.0872938703867222836e-05
1.0900047175556740737e-05
1.0970583879906211023e-05
1.1187889380359242002e-05
1.1473869505968785652e-05
1.1664475643028316028e-05
1.1747656730226498027e-05
1.1755653856453001965e-05
1.1728056392632925665e-05
1.1621849127148175141e-05
1.1531419043263340827e-05
1.1509691379203307665e-05
1.1536911584498449364e-05
1.1743606159144582272e-05
1.2130446691822015836e-05
1.2349221079982848945e-05
1.2428419670851640675e-05
1.2445901059219957786e-05
1.2463109149258540917e-05
1.2516539533416641615e-05
1.2585307611192771352e-05
1.2610158060096669219e-05
1.2599903299868427789e-05
1.2554599519000258866e-05
1.2393436583909300073e-05
1.2195092607524765183e-05
1.2087057494596734753e-05
1.204511972132039948e-05
1.2033172225170349955e-05
1.2033015668644921048e-05
1.2061886313001718933e-05
1.210118345903467975e-05
1.2130392903955363511e-05
1.2150875084499944924e-05
1.2160544837273931927e-05
1.2158228022475986901e-05
1.2146839657467058701e-05
1.2127125679287627808e-05
1.2084657537856768867e-05
1.2019570378329295907e-05
1.1972580539778435315e-05
1.1944361261999750785e-05
1.1928774227912641403e-05
1.1920044903086616055e-05
1.1914130466297888963e-05
1.1911118890615458266e-05
1.1913470190975781974e-05
1.1927156425484323836e-05
1.196172345647028596e-05
1.19999460895670842e-05
1.2035504021010356971e-05
1.2068152830988736603e-05
1.2098833774000450632e-05
1.213098205075136003e-05
1.2166122360464839061e-05
1.2203799611782284389e-05
1.2242596822156456317e-05
1.2278602112449470084e-05
1.230928569724714233e-05
1.2333308933596424107e-05
1.2352952356411920278e-05
1.2371883660250577433e-05
1.2393881091776219461e-05
1.2421174959556342338e-05
1.2453726649501562388e-05
1.2490384337250145052e-05
1.252850873529884298e-05
1.2565799308086960282e-05
1.2599903651223215271e-05
1.2628997409898418987e-05
1.2652953229756687864e-05
1.3381515189100318827e-05
1.3406709048593983233e-05
1.3431894455525604265e-05
1.3455715541685121884e-05
1.3477133418985264479e-05
1.3495516962750077445e-05
1.3510840491802522122e-05
1.3523545672967871373e-05
1.3534216503862341575e-05
1.3543058634750660565e-05
1.354976909176603718e-05
1.3553850849232656925e-05
1.3554751954713637331e-05
1.3552633623375328928e-05
1.354796503488662129e-05
1.3541423604754470171e-05
1.3533691127518141293e-05
1.3525332552594484403e-05
1.3516621568512464033e-05
1.3507657266762445759e-05
1.3498328143552186837e-05
1.3487722837095470133e-05
1.3473059873869737069e-05
1.3451161689668092477e-05
1.3427579578396049121e-05
1.3404158475483972347e-05
1.3380833220249812546e-05
1.335878709529018776e-05
1.3337689456288428358e-05
1.3318079688037027649e-05
1.329886264543894155e-05
1.328011075378032959e-05
1.3260895236999630629e-05
1.3242101250035949673e-05
1.3223661296721633441e-05
1.3206857913712152937e-05
1.3191222829887506432e-05
1.3177158713371280233e-05
1.3163241540513302753e-05
1.3149441567562004197e-05
1.313444874412891056e-05
1.3118888901875043644e-05
1.3102144486080026086e-05
1.3085505802558222653e-05
1.3068640425849876554e-05
1.3052650202983376423e-05
1.3036762965747941603e-05
1.302174113313390766e-05
1.3006640516265683026e-05
1.2992171998906738769e-05
1.2977254589451636858e-05
1.2962528769939921596e-05
1.2947039348163282428e-05
1.2931695721660143003e-05
1.2915759538742260524e-05
1.2900183276014478827e-05
1.2884193778655701239e-05