/*--------------------------------*- C++ -*----------------------------------*\
  =========                 |
  \\      /  F ield         | OpenFOAM: The Open Source CFD Toolbox
   \\    /   O peration     | Website:  https://openfoam.org
    \\  /    A nd           | Version:  12
     \\/     M anipulation  |
\*---------------------------------------------------------------------------*/
FoamFile
{
    format      ascii;
    class       volScalarField;
    location    "0.0065";
    object      k_0;
}
// * * * * * * * * * * * * * * * * * * * * * * * * * * * * * * * * * * * * * //

dimensions      [0 2 -2 0 0 0 0];

internalField   nonuniform List<scalar> 
75962
(
3.7214847663788594087e-05
4.4074460719744756182e-05
6.1956714063739386027e-05
9.6395164252376458144e-05
0.00012057561846986145505
0.00013317641054897566165
0.00015426290304976675478
0.00019342796429690448253
0.00022814261797642225774
0.00024649198628652363875
0.00025781019181755904235
0.00027759645100040348945
0.00032977187743506365019
0.00041655354714757459721
0.00047930116233903426182
0.00050931060625464784353
0.00052167746546520881584
0.00053674337524494504167
0.00057271963412963732606
0.00066327094920484263967
0.0007609291352105510128
0.00083264879597570447094
0.00088616564944022757199
0.00094977972414777905516
0.0010376379880047475676
0.0011323888863266256058
0.0012053089578344365358
0.0012432490666473196977
0.0012573627736816301963
0.0012716660597948050305
0.0013073610250941673522
0.0013605290655491048511
0.0014013173932383485819
0.0014275920277063221427
0.0014532660992827085063
0.0015018109878799194845
0.0016143788944340323448
0.0017924591548702515417
0.0019847239351384405107
0.0021596034716340004739
0.0022967947344301412743
0.0023912427688548409249
0.0024502274795290776045
0.0024869219176042087725
0.0025158382032019425273
0.0025515194048366897014
0.0026081011816611056851
0.0026924462270399734422
0.0027983071059955216993
0.0029060772359638157268
0.0029922557945545476786
0.0030446833492944794762
0.0030743640230796250197
0.0031128843589411179377
0.0032016429183716220083
0.0034504092855309419739
0.0037770624958485474187
0.0040249275374773648903
0.0041692932932510390343
0.0042288257024217955002
0.004244236066416111515
0.0042499395112139317504
0.0042621532244775132622
0.004294673750809951257
0.0043897619457797833198
0.0045610041491027956614
0.0047439344194441426111
0.0049212733995350251698
0.0050677371454306277196
0.0051601268497837799246
0.0051983060133720089893
0.0052140529830919232421
0.0052449632235008125311
0.0053497865609824796912
0.0056843454113023033497
0.0060596018138253130922
0.0062986706069659203697
0.0064213322478142032673
0.006476314934735661645
0.0065044649211219909141
0.0065254196053199436597
0.0065456015059992024574
0.0065720468741189688386
0.0066194605211222345281
0.0067259984943363292087
0.0070118691240633902045
0.0073788096572549111488
0.0076492451154281573128
0.0077825028191883822287
0.0078201639876359727716
0.0078421930267282020238
0.0079089503375677303737
0.0081711375350987259375
0.0087244623238650082647
0.0091660682273368362938
0.0094658248589050315858
0.0096543330348622478226
0.0097660489646087950133
0.0098244746993048810701
0.0098466616513736299893
0.0098526487360895472628
0.009861664424850362376
0.0098997906853591829263
0.01006847839564301017
0.010363809418139417057
0.010525834405104163294
0.010569540168692020954
0.010562660815441365231
0.010501417313040961946
0.01036424644651811125
0.010290388557805854597
0.010276756395454292314
0.010297051764233518256
0.010432908446854207568
0.01094332172472793456
0.011606294024061304671
0.012043578451215715061
0.012265247803223361042
0.012361606515516179033
0.012467657838361793227
0.012712092662853393191
0.013350259922769502907
0.014092846763818262998
0.01463550750899340544
0.014914047535229823724
0.014983196025865183967
0.01496213428804037647
0.014808785323544194565
0.01464173342354917369
0.014618098818987743451
0.014696900643607577544
0.015158880249620806241
0.01607551903715981681
0.016628397251043619542
0.016840227132085529294
0.016877044716094285332
0.016874020208376271091
0.016876994858470967253
0.016903166551750063024
0.016918584361286261725
0.016898450417617113389
0.016754632156267035975
0.016310380091202954234
0.015948487443626063742
0.015790813656276075916
0.015761998607744631684
0.015780956387914379935
0.015895308039047442716
0.016093969986617429752
0.016217017435507654483
0.016277811203535434703
0.016301284002764360875
0.016305551006245335571
0.016303654705158255461
0.016289772809036782986
0.016232339112691108324
0.016110022536813584787
0.016007164712132874312
0.015933447027233590271
0.015890164416132179087
0.015870535068136477214
0.01586656543459649335
0.015868499379203520466
0.015881511094549768254
0.015932511815323929794
0.016092284689353461569
0.016304247576583660168
0.016486553446806721107
0.01663192525144463127
0.016734866018697329426
0.016796773340848173556
0.016827355771011298646
0.01684029452685642525
0.016851575302704265014
0.016875627282971247811
0.01694391423192023044
0.017068890873404716363
0.017196534118745374076
0.017318590143563610678
0.017432223496740839597
0.017547066908955546299
0.017669041089953430035
0.017805163256764559854
0.017955749350995857394
0.01811226724969697624
0.018263230618902975833
0.018392584624274548738
0.018492330518922774074
0.021924918998465912218
0.022055751553819807897
0.022184518300453343054
0.022307423246087504376
0.02241936737796712889
0.022517849362401809454
0.022600606551146908141
0.022665115833508667903
0.022712342984975864707
0.022743825225986325639
0.022761608853104787348
0.022769643749635332108
0.022772831385944866667
0.02277379018941369862
0.022773115307294044402
0.022770027621772274268
0.02276733844299248799
0.022764546817306250542
0.022758875477671823562
0.022746032237659672554
0.02271793538944151189
0.022684828864924903163
0.022649025449243041785
0.022613524411034081202
0.022578085701485801212
0.022544982439380249067
0.022513063796911550463
0.022483455237250513786
0.022454436720705892028
0.022427038593669165745
0.022399986637005438184
0.022374496316617770858
0.022349733954701540145
0.022327246800671426974
0.022306266304661578892
0.022287708712846698161
0.022269590553694096347
0.022252072859758467022
0.022233224618368439135
0.022214297633225410511
0.022194406733495541939
0.022175546547270878761
0.022156592196757567831
0.022138856256088492586
0.022120347220200054644
0.022102057529662724744
0.022082070659132327362
0.022061880704844692019
0.022040025037823741949
0.022018250170368295487
0.021995288793590212634
0.021972771445957953174
0.021949581470466873051
0.021927266136347291908
0.02190453065487201964
0.021882399465390472981
0.021859415955871690923
0.021836893813001783532
0.021814135232394421537
0.021792665484825647637
0.021771427062197399455
0.021750829972187493005
0.021729095599256675886
0.02170634283087960123
0.021681486118482865694
0.02165552775339875391
0.021628454246448155368
0.021601441311109678689
0.021574141524560046246
0.021547004870974030555
0.021519587066748790266
0.021492659126183789875
0.021466171000133999619
0.021440790949391844156
0.021415791811974140696
0.021391548638793916881
0.021367041582823737
0.021343126512985546861
0.021318608661447337183
0.021294498771272856591
0.02126955337735816215
0.021245008616608287988
0.021220048077981990692
0.02119571623603710292
0.021171083116648704847
0.021146648375604339826
0.021121639885405774084
0.021096728794314026367
0.02107191699326739151
0.021047895428065229589
0.021024591756144492966
0.02100206082366184307
0.020979483041305622276
0.020956782837898545874
0.020932776387086019648
0.02090826377516656967
0.02088243936825775332
0.020857155617435587519
0.020831999055476391192
0.020808142285586014864
0.020784925463145729335
0.020761943098904746957
0.02073906446034750467
0.020715722036408958096
0.020692517174961885806
0.020669063200511976486
0.020645482206922270707
0.020621438729419735297
0.020597128773782707317
0.020572362036343053854
0.020548184085827952972
0.020523512806744997894
0.020499757160800234634
0.020474943434015669547
0.020450723192698350844
0.020425416998721999257
0.020400713128791814893
0.020375156118118166459
0.020350507918408554386
0.020324961989828402298
0.020300886610441028213
0.020275861412554045671
0.020252424990206692457
0.020227782200954419478
0.020204576486861271917
0.020179755512745700674
0.020156729608108037849
0.020131683947652675992
0.02010883906645252045
0.020083939693454375824
0.02006110953188180307
0.020036620050914197982
0.020014010436751987487
0.019990041986045883893
0.019968406505825958552
0.019945210794757750605
0.019924461249171097899
0.019901698819905395965
0.019880797717050990164
0.019857576203671612608
0.01983582072731975357
0.019811107413053592741
0.019788190364863494225
0.019762272096401529986
0.019739112534784265113
0.019713663871473496858
0.019691391689548625593
0.019666528747311312619
0.019644767590679491909
0.019619877317089477048
0.019598014974162691892
0.019573330893311952083
0.019551656064772278409
0.019527578328395807372
0.019506531803573753242
0.019482890639417042855
0.019461837368638084528
0.019437807830822745325
0.019416446002452524694
0.01939222583048343107
0.019371136659858269324
0.019347206493965467961
0.019326615925589030881
0.019302915814410452622
0.019282694524587300211
0.0192592026826875172
0.01923895059533109464
0.019215152297098383322
0.01919452851491997708
0.019170057702632182367
0.019149050590951163797
0.019124237582028469351
0.019102887391055756172
0.019078420488159070906
0.019057633610863884688
0.019034168630227676217
0.019014751048921613164
0.018992389355463198952
0.01897357602846921551
0.018951505523758058191
0.018932605502371184503
0.018910302172532329062
0.018891152957017987024
0.018868778199387283706
0.018849576856011615589
0.018826941202456662361
0.018807288366553747555
0.018784072554732116761
0.018764068038821805212
0.018740899057247913106
0.018721840003446378609
0.01869975728056440939
0.018682161175065364195
0.018660956416550411596
0.018643944824487709844
0.018622514990971287402
0.018605199591876123849
0.01858352514762565133
0.018566103945973945477
0.018545261909006034023
0.01852849393269606279
0.018508668728928975161
0.01849267898453331796
0.01847309626057849416
0.018457116483601508639
0.018437018992081156271
0.018420424427568575509
0.018399614572020623476
0.018382767077235406816
0.018362324138501931459
0.018346284631603801407
0.018327292608324611406
0.018312496707192496559
0.018294717329645493464
0.018280231284634268496
0.01826231824130383069
0.018247194754704869346
0.018228092873684743902
0.01821255427465121382
0.018193014888306914545
0.018177933462657044905
0.018159181337737514972
0.018144885822621439203
0.018126899298220113671
0.018112720570213160232
0.018094754111500088029
0.018080507237204675175
0.018061999041532553895
0.018047354903948188698
0.01802835825260788033
0.018013028164118625313
0.017993686397165059576
0.017977630825242747054
0.017958041174625571923
0.017941907264371243641
0.017921703905574626337
0.017905981287424939385
0.017886235220229945719
0.017871092047745430753
0.017852633488099713122
0.017838899263399609491
0.017821891519546200627
0.017809344221344849957
0.017793596989914201023
0.017781656629647198814
0.017766075777687764109
0.017754148078554646273
0.017738093265700600326
0.017726173984910564146
0.017710346199789388233
0.017699121447655900147
0.017684150041304653317
0.017673518388301015514
0.017659177279942098876
3.7839687622646778046e-05
4.6637222718903826593e-05
6.2784355965313974829e-05
9.3929246772944799187e-05
0.00011796648686788162438
0.00013023161146457940289
0.00014798881780387075874
0.00018935536503779796841
0.00023791082782709447566
0.00026997668351096511729
0.00028680451675062426566
0.00030684790754018000797
0.00035468489244677627731
0.00043110666367865955757
0.00048755183871112851022
0.00051412618144685998198
0.00052700236148973944855
0.00054827065268117463042
0.0006004687339398525215
0.00072639019540868645427
0.00085446599796792281709
0.00093380977074336210791
0.00096993090266111992807
0.0010127378897886781667
0.0010859136204714446051
0.0011618726199410646209
0.0012148300955399371492
0.001251083307215694997
0.001291404641214649639
0.0013430949809963294971
0.0013930277534469337735
0.0014248689544267491465
0.0014437721081072168224
0.0014727536911762237164
0.0015230348861742738689
0.0016015752922610277092
0.0017192221001902879916
0.0018804416429876098273
0.002069013330623567775
0.0022497475238208528708
0.0023901253202654819917
0.0024779957969867437255
0.0025236388133666946658
0.0025508440419536272323
0.0025860471204340830173
0.0026441699671753814832
0.0027276817136581577722
0.0028304549323490755912
0.0029398543201672707251
0.0030390019409980558937
0.0031128395565492047829
0.0031563290776448205133
0.0031811551826677101316
0.0032137488830047502598
0.0032885176636236997452
0.0035143436713591246108
0.0039238430332011065699
0.0042578971406288827414
0.0044627104113263895563
0.00455268859379406865
0.0045774272259792433623
0.0045817701497763707597
0.004586203617243348081
0.0045968732856421874386
0.0046258798689841852322
0.0047151569394384704528
0.0049172273100678929453
0.0051149724777767866316
0.0052722061202864654514
0.0053708433747536856936
0.0054125995730928376515
0.0054259993429868254994
0.0054464079806681754692
0.0055126310297843412675
0.0057576280680504523038
0.0061798575001583604463
0.0064928605431607382126
0.0066821712818631810032
0.0067805317294877265333
0.006828782709471994429
0.0068540640180511534438
0.0068706918397067389889
0.0068897813995934288622
0.0069256836686127304717
0.0070141806977036588039
0.007284560803271814336
0.0077233315314802278295
0.0080632487293657781335
0.0082486887881480681906
0.0083086946615513000008
0.0083263728714621457888
0.0083638490267790004812
0.0085072886275256980743
0.0089383041081594026556
0.0093922603262683868053
0.0097201728551036294113
0.0099366691185273064296
0.010065156662095677345
0.01012999928757279261
0.010155171246468690238
0.010166370096856627847
0.01018501349398885647
0.010242980608823466088
0.01045380226137211134
0.010773321769909032994
0.010968492709682890404
0.01104027373969822777
0.011044247857339400953
0.011019035433885382425
0.010922281042192127226
0.010840276402784438867
0.010817447511018591158
0.010826755077230611202
0.010909385524180248428
0.011283507558229433076
0.012042621252240192156
0.012578210437189225185
0.01285512853768137724
0.012986338171927572921
0.013149504681975737394
0.013531771339825159062
0.014191996369952950344
0.014843006800224945937
0.015329646440021453893
0.015579447489454043008
0.015637300865262351163
0.01561151683318605897
0.015443282393244665146
0.015266900469681713576
0.015240461603992469172
0.015320762445040003036
0.015800549265977160973
0.01675914377333929603
0.01732402563219475472
0.017536595081115203404
0.017611082746869344273
0.017730393317820378196
0.017913271750696548035
0.018064992444095259033
0.018121918084814711558
0.01811237392143338204
0.01799262737056057937
0.017540780331658390595
0.017099495330001369259
0.016902487773746165123
0.0168624726490352074
0.016880478235271483695
0.016994635100193833388
0.017180955675254169779
0.017285152587469369834
0.017330021631642759938
0.017343861024469605508
0.017344778832288947762
0.017337153880316300003
0.017297948433661183842
0.017174277077816758191
0.017037347034843438459
0.016937526838401405216
0.016873123325877731338
0.016839294411614906533
0.016826964645088645506
0.01682609487553581723
0.016829604165998469922
0.016847748312419114081
0.016916133198286883305
0.017100883739777316545
0.017287878302498019267
0.017426534208484757704
0.017514362489609820034
0.017560394706618610849
0.017581273267887349149
0.017601917852305814377
0.017643682583830630484
0.017719143995710871092
0.017817648064968088367
0.017929747901048526809
0.018043906627555336003
0.018152209672430773268
0.018253301623625345362
0.018353194547514762452
0.018461930941678431073
0.018588229838930648424
0.018736210208647546827
0.018902528348247224499
0.019075734725080541188
0.019240957118452663849
0.019384927080247364023
0.019496366464815017422
0.019574069356193057184
0.022956539100013228366
0.023094599841638134563
0.023234494782553450493
0.02337131510652688815
0.023500748761467318143
0.023618646595954261719
0.02372133808794612414
0.023808558441549141499
0.023878070735915989109
0.02393010674478709271
0.023966186207678083497
0.023988565221803814786
0.024000004680512141558
0.024005072210017654871
0.024006849084750252199
0.024006867011602848333
0.024005586594971761727
0.024003415001458500155
0.024000320870514339766
0.023993648768738305016
0.023976850589412432996
0.023942340979768005765
0.023903648828021411415
0.023863569120383731903
0.023823676507324417079
0.023784634910135320218
0.023747381186370541961
0.023712073159142633277
0.023679019418958054816
0.023647758412075291917
0.023618150593888751626
0.023589537920089168749
0.023561904311607238111
0.023535316858173605664
0.023510470417706111346
0.023487715032423125971
0.023467007387860287088
0.023447487816840334451
0.023428252587239177529
0.02340837768517233311
0.023387753774603701334
0.02336637703971628649
0.023344895021023288201
0.023323548364178919162
0.023302690344643321729
0.023281920224720888818
0.02326108514795265092
0.023239788729729680267
0.023218307288357151186
0.023196520972815697775
0.023174586928654938162
0.023152130784207101966
0.023129289420961863383
0.02310615520740126605
0.023082992426425780197
0.023059875376125308494
0.023036537956904211411
0.023012908552862306605
0.022989044248129059111
0.022965479560021897359
0.02294257304081871382
0.022920471194672623061
0.022898570050337418297
0.022876205462283666359
0.022852370675416094903
0.022826933286019916725
0.022799837816318037353
0.022771967417322742933
0.0227434866430588703
0.022714961976710804775
0.022685917577036911197
0.022656934196375249496
0.022627896345787646554
0.022599713534262228648
0.022572214205882661781
0.022545695238134322302
0.022519604593118712488
0.022493869547489962757
0.022468112497576610276
0.022442255034034120503
0.022416266387442072144
0.02239025761056945979
0.022364214502687371211
0.022338317415137802502
0.022312081643580155416
0.022285775244760767932
0.022258871304040240419
0.022232200780919971622
0.022205396243218721714
0.022179655400627620865
0.022154394449530816213
0.022130495453620047802
0.022106928416688150646
0.022083726543524730135
0.02205969082269289977
0.022034589461588423992
0.022008112350112497835
0.021980885100887425504
0.021953540429515541743
0.021927105774562648949
0.021901376106590569881
0.021877069213666347491
0.021852539638520497578
0.021828905944421883589
0.021804300845552543331
0.021780424482192573682
0.021755661216415513037
0.021731501372845664355
0.021706355682424498948
0.021681768915357058081
0.021656108269333059629
0.021631609727591333964
0.021605866661510951532
0.021581475555640782654
0.021555066197363307451
0.021529598313427499717
0.02150210721427300159
0.021475804568890394242
0.021448073893401382178
0.021421926658524170078
0.021394347566233772734
0.021368782344551643521
0.021341740397158207032
0.021317030945402031666
0.021290548419517815737
0.021266390353743225283
0.021240081131389445396
0.021216439829735832256
0.021190358580049428044
0.021167077592444689949
0.021141035189166816621
0.021117446270858857699
0.021091293784490459245
0.021067655939164691564
0.021041966035743611685
0.021019390821873762398
0.020994688435103218277
0.020972997995135127247
0.020948660633637442019
0.020926735985582117783
0.020901832793425102058
0.020879040347483789758
0.020852645731944938201
0.020828632635161086623
0.020800943263100488134
0.020776594523875157455
0.020749356006617807047
0.020726081289383340572
0.020699805482297582021
0.020677479806811126933
0.020651467079925531212
0.02062912501059129336
0.020603235577431756181
0.020580908585579003878
0.020555327200620671091
0.020533382259366378397
0.020507786919344503374
0.020485502169528810312
0.020459381670154107996
0.020436738720687502163
0.020410653618710847268
0.020388532966078714431
0.020362960470969269922
0.020341535176722821271
0.020316286436016607608
0.020295301827587527987
0.020270231482985713589
0.020249249203022855886
0.02022397852737852636
0.020202574581193160491
0.020176614819584458294
0.020154708137691539072
0.020128245968114834297
0.020105979889972928204
0.020079823937128222361
0.020058234520627542252
0.020033183894322261626
0.020012913215483929541
0.019988827105708383697
0.019969100148631912378
0.019945205352786883612
0.019925522189962286551
0.019901493610864406936
0.019881585490402878258
0.019857342050185369797
0.01983709164908214681
0.01981249830813579596
0.019791815923122371007
0.019766587379746264341
0.0197456287988567597
0.019720531939432541652
0.019700523144806397075
0.019676761724140547083
0.019658511236892026869
0.019635891801278074209
0.019618308527554407378
0.019595398440665018347
0.019577245742153227825
0.019553803755085263222
0.019535387570721009926
0.019512579189714135408
0.019494884195469047716
0.019473132744631287822
0.019456386421507952666
0.019435081017511724594
0.019418496469924464293
0.019396888809379907864
0.019379844233855671176
0.019357623328644490979
0.01934035118556241134
0.019318456233305466435
0.019301909964928344599
0.019281202226441092329
0.019265781391935101613
0.019246157199830225132
0.019231048357212954247
0.019211248579813228893
0.019195538166389820162
0.019174723120331194082
0.019158467785407896911
0.019137234962313273701
0.019121620026078041399
0.019101413008203171895
0.019086810401036689161
0.019067551009131759876
0.019053214019930746898
0.01903388880143521561
0.019019096893538214865
0.01899892625248713468
0.018983467971706240174
0.018962551606678822863
0.018946506673474937388
0.018925469140774021232
0.018909017541809961666
0.018887732650419025021
0.018871079242994436009
0.018849208702100932189
0.018832761626932356669
0.01881126051138992672
0.01879554551440325294
0.018775371951893837091
0.018760983507300821316
0.01874222069704924859
0.018729001003886060206
0.018711550589023330515
0.018698947407257405368
0.018681654336368491015
0.01866914267713192313
0.018651318881526351978
0.018638823232532443497
0.018621247730913448315
0.018609499170695611991
0.018593078167791352723
0.018581960408247628208
0.018566418636200777287
3.6349367681045048205e-05
5.0596143124601967794e-05
6.5391124288434048254e-05
9.915973243885466094e-05
0.00013283793247521253939
0.00014939520252227862589
0.00016857242908831115871
0.00020478349983414929751
0.0002414262230291095736
0.00026382577219799568024
0.00027789951299717990897
0.00030102362517973418844
0.00036134552325011435638
0.00046285686471654428767
0.00053461504806275863752
0.00056721291739958434874
0.0005791630480889695988
0.00059319000878806983114
0.00062589848445839294747
0.00072337367400695422662
0.00087075601797110158565
0.00097601705269839678352
0.0010333948178378911387
0.0010780874302181472739
0.0011419543753553042763
0.0012198124440556670431
0.0012848384234401051974
0.0013214162553461898924
0.00133997460322419896
0.0013691111756670164192
0.0014378869539188124122
0.0015213328191295372258
0.0015843318178102058606
0.0016202912898971122239
0.0016431266190218547871
0.0016764126340327034637
0.0017488541559461780531
0.0019239899656155994966
0.0021524876824855886798
0.0023661181036995506365
0.0025348088535112329837
0.0026512146543721825699
0.0027239251174170585855
0.0027647826960617489546
0.0027875415258192329238
0.0028153144699515201578
0.0028770177781924752454
0.0029868352103272037545
0.0031053929686496364176
0.0032059785480266838817
0.0032728695994125220868
0.0033065373326081411338
0.003326271071584753318
0.0033587585427404605294
0.0034400012726555546407
0.0036944094075587997038
0.0040990670324002869557
0.0044096560690384178569
0.0045924284828022477953
0.0046714195504713113341
0.0046961907696841474064
0.0047098500686819757058
0.0047368248079363173969
0.004802354282726154118
0.0049477059256411576316
0.0051215056043961903684
0.0053005706578250115849
0.0054642782439630888103
0.0055860332020965788521
0.0056505744868148690199
0.005670451729057413362
0.0056774532015909078692
0.0056990031481701482544
0.0058008508071553102278
0.0061849979051144038031
0.006704781971264445542
0.0070344481331984067343
0.0071942944843886996731
0.0072504579292855071346
0.0072623363756775657571
0.0072642420213615685118
0.0072674780673150961643
0.0072788932954714821721
0.0073211841939435900323
0.0074712883116045802206
0.0078853811666594331165
0.0082965934126101835433
0.0085629963439655520235
0.0086799042525000699028
0.008699045258066639974
0.0086921438048574561214
0.0086955349981235260937
0.0087698579230884466523
0.0091078090838881374525
0.0095824280870821457873
0.0099021459931151155354
0.01009523864135501367
0.010198978471873922785
0.010247591705350146685
0.010274078601690016244
0.010311741862041229334
0.010400809746741328937
0.010667466797560304706
0.011038062546392191435
0.011300851785853409034
0.011430779317902964656
0.011462808663492982456
0.01145471845289425597
0.011393328487969395235
0.011287216999219858854
0.01124226398000615669
0.011241847347639461613
0.011286257504310160532
0.011516705396898484909
0.012267292267920613599
0.013081383439154135179
0.013596826637011677139
0.013846064079999192975
0.013942781200621149479
0.014032594265183905013
0.014237175811000949907
0.01483051307235087532
0.015621188164126626613
0.016164132650853497292
0.016412297985454914889
0.016452227101238430657
0.016397359457029202917
0.016129827383660155088
0.015911410909690566762
0.015883299917970852139
0.015988333651671942509
0.016594419049420730539
0.017732744867449811571
0.018402301513308568642
0.018658159618360616733
0.018724155017034397469
0.01878642472121468121
0.01895914452668430103
0.019184022291295281526
0.019283082358334112383
0.019282554736726933292
0.019181467668367039453
0.018732511973119987669
0.018177833522165027375
0.017894859384807143554
0.01780504717227280459
0.017800218876834583703
0.01782656799004398232
0.017935215721991634025
0.018071336095270989358
0.018174650722472537184
0.01825170665249656668
0.018299639848741083847
0.018318281225129569995
0.018317707286720573412
0.018298411913074057872
0.018212778927934679396
0.018056934014296539825
0.017950468801216680481
0.017894762725711544499
0.017872653476471715012
0.017868330906231463112
0.017869128050065321428
0.017873653425800113681
0.017888572016130803444
0.017933110687183343585
0.018038606083107672218
0.018155374714049512391
0.018264952544743216778
0.018366223512046420119
0.018462255749030036245
0.018564735985659081008
0.01867998640020733167
0.018807774840413220979
0.018943737932180081812
0.019074299385659805595
0.019189363860794655253
0.019282805134325082391
0.019360880221509307875
0.019435703276108148851
0.019521028541729601447
0.019626059544357660896
0.019751774309898530169
0.019894122850946195646
0.020042956017213765796
0.020188643214719918101
0.020322300772823171516
0.020438285366890740491
0.020537576169011782096
0.024180973693264339736
0.02431225185979699055
0.024444170507403932546
0.024572347635476332606
0.024693213562961283808
0.024804048446527279109
0.024903408532664147307
0.024990925394697705714
0.025067017398220516056
0.025132001129782685633
0.025185803054019406666
0.025228567605656754269
0.025260193313390764958
0.025282388894521688749
0.025296850692774396074
0.025305394394425664156
0.025309825507573602277
0.025311921432476083837
0.02531272543694795818
0.025312574248854281811
0.025310917422078606925
0.025304417277823534199
0.025283065223079759926
0.02523560117147413337
0.025183354840658315338
0.025133055373143402961
0.025083497333056748585
0.025037890524694402655
0.02499434352218800337
0.024955296904604615249
0.02491788468010963653
0.024883724480301076115
0.024849846862865520442
0.024818737149133924397
0.024788345223813564727
0.024761647841767587402
0.024735959143579230174
0.02471334968710667615
0.024690249802524995293
0.024668572933743269926
0.024644719600547152633
0.024621327989635288791
0.024595513373850217548
0.024570983624264408629
0.024545271514465158424
0.024521690607601127898
0.024497086972331508226
0.024474518705699568888
0.024450835186095712381
0.024429132504967723122
0.024405764793810475616
0.024383479054259426383
0.024358878415804856299
0.024335390031526106525
0.02431007611561895182
0.024286251335342706748
0.024260548604683383062
0.024236050699371677192
0.024209841301709125738
0.024185383505957142036
0.024160123179090848416
0.024137007298262503491
0.0241127618789583123
0.024089512597430494389
0.024063703285595511305
0.024037755170322850501
0.024009019654422977114
0.023980665004827442233
0.023950252330672827661
0.023920771186436096123
0.02388939438736639026
0.023859368141095925464
0.023828097659863056029
0.023799022408705319126
0.023769217096897183455
0.023741707721946777448
0.023713256201831078157
0.023686643252886625116
0.023658585717577777785
0.023631913792865461704
0.023603687699708591347
0.023577009871062270391
0.023548996700547743938
0.023522159929150920216
0.023493420522570050701
0.023465419968584304289
0.02343573779132284568
0.023407692812976658991
0.023378892831158216981
0.023352321404226581564
0.023325243838257892631
0.02330052781179920221
0.02327484510802353343
0.023250879465437468419
0.023224206376682057784
0.023198314596800839044
0.023168733316369281849
0.023141018123598498801
0.023110768657598413506
0.023083929133720766658
0.02305558620425796762
0.023030519468189004223
0.0230038610332140743
0.022979474391341174477
0.022953023476789940344
0.022928470439965532163
0.022901649090347978716
0.022877256504481281729
0.022850267175706068246
0.022826067163529899923
0.02279890489696369954
0.022774661520346149712
0.022747385148589600867
0.022722760468304913778
0.022694377543673510678
0.022668186736008094639
0.022637851999343910209
0.022610556172855955648
0.022579801322891668303
0.02255268968683073541
0.022522503406986183611
0.022495885767643920838
0.022466435159073035871
0.022440968217016202257
0.022412197959456876817
0.022387756014029043528
0.022359379701949944758
0.022335525708265840245
0.022307684771375096977
0.022283962063313692004
0.022256047845878496744
0.022231952159053013085
0.02220348175861270798
0.022179594131440626137
0.02215154295455359218
0.022128599635534443313
0.022101555078893712902