/*--------------------------------*- C++ -*----------------------------------*\
  =========                 |
  \\      /  F ield         | OpenFOAM: The Open Source CFD Toolbox
   \\    /   O peration     | Website:  https://openfoam.org
    \\  /    A nd           | Version:  12
     \\/     M anipulation  |
\*---------------------------------------------------------------------------*/
FoamFile
{
    format      ascii;
    class       volScalarField;
    location    "0.0065";
    object      p;
}
// * * * * * * * * * * * * * * * * * * * * * * * * * * * * * * * * * * * * * //

dimensions      [1 -1 -2 0 0 0 0];

internalField   nonuniform List<scalar> 
75962
(
99481.247243635894847
99192.11113515109173
99142.675070905621396
99309.957673930577585
99227.167799566232134
99147.821247329877224
99095.789514506643172
99081.97359472111566
99119.935221253414056
99155.285415917387581
99152.797588100016583
99131.028810543590225
99161.843923888620338
99268.278868464491097
99350.979237062114407
99298.635311422622181
99153.976079517349717
99035.408065278927097
99025.609391159581719
99102.554758435668191
99181.263978739982122
99194.534432381507941
99156.058489320974331
99146.19441216600535
99191.559557353306445
99228.734283179132035
99229.313058933956199
99215.432054939345107
99188.328395373871899
99147.086607578850817
99116.579853535266011
99112.635691224306356
99121.190537305825274
99136.788182866410352
99167.489181239317986
99196.21888134512119
99185.759043704965734
99151.434048215465737
99154.963600693154149
99217.622108341776766
99290.55013231607154
99320.519097631287877
99314.546297613633214
99311.688593243205105
99331.538625528584816
99354.225329086068086
99349.345697650613147
99317.021596758553642
99294.58554203780659
99313.604249933894607
99359.816939551659743
99402.975388633523835
99427.969947079822305
99438.446721740881912
99438.208281524683116
99433.450601715390803
99423.973263742795098
99394.615347057537292
99336.545920697259135
99267.526154677165323
99223.139514569804305
99228.918713821854908
99276.053209457008052
99325.849206682891236
99342.949358288096846
99327.353836600959767
99310.756097897217842
99319.802168617243296
99350.988072985273902
99376.706165970710572
99377.184238777816063
99361.993241166492226
99355.739570632824325
99368.046328320648172
99380.310201860789675
99365.041907847538823
99316.48632164033188
99255.771827781150932
99212.74379172490444
99199.617402125761146
99211.573412522251601
99238.963736581994453
99268.978765817475505
99285.512921269488288
99279.443399274576223
99259.40359433532285
99244.708975373927387
99248.670252056559548
99263.35263597148878
99270.169403249732568
99260.036391259360244
99238.814716690176283
99214.674100930889836
99185.548871081133257
99145.709300914197229
99098.992719214074896
99064.797609623477911
99058.487886835253448
99079.387368434312521
99111.865999794463278
99140.602247986404109
99162.407938490447123
99182.505680896560079
99205.222675622630049
99228.969769549861667
99246.727401656025904
99248.377139194315532
99230.027097054131445
99202.437714336570934
99187.123303345098975
99202.377137802293873
99245.513014879688853
99292.20927923200361
99320.184346408233978
99325.891991373893688
99320.120443644424086
99314.265725588178611
99308.008857419365086
99292.497800825003651
99261.474918007472297
99220.27750755326997
99184.401114368374692
99168.90417925165093
99178.860931462637382
99205.518372996040853
99231.904284887408721
99245.804270983542665
99249.081712459068513
99252.295905685896287
99262.481136325397529
99276.07521566277137
99283.050102350651287
99278.734852711990243
99266.668587696753093
99255.866718698001932
99251.647164365276694
99253.150285633921158
99255.170798123304849
99252.53251445008209
99243.828123746992787
99229.563365280118887
99211.574553677099175
99191.521625377732562
99173.068784778894042
99160.977423098986037
99157.421569874335546
99160.877514927735319
99165.889866842684569
99165.821295582325547
99156.905776909581618
99141.369321930265869
99125.429092916907393
99114.533199825396878
99110.153942093646037
99109.727246885944624
99109.716441436801688
99108.455665610075812
99107.338481783575844
99108.927734820521437
99114.204426226395299
99122.58390645297186
99133.523913803874166
99144.27778012251656
99153.774611875225673
99160.522338529641274
99163.013751163889538
99163.07429460878484
99164.124947395801428
99170.631986892549321
99182.826051819778513
99194.908830914093414
99198.720572076475946
99188.445344444204238
99165.710236383543815
99139.600877699645935
99122.406729028502014
99121.906702499458333
99138.537762585183373
99164.110208485595649
99187.440335737963323
99201.990943292083102
99209.285820779477945
99216.462012269490515
99230.293764744856162
99252.48658362099377
99278.832941311367904
99302.699420835400815
99319.811281633883482
99389.424443842828623
99365.565218080839259
99344.109872597749927
99324.433305509330239
99306.086858166381717
99290.116765621758532
99278.811536851237179
99274.116154231844121
99276.907099319840199
99285.89863323312602
99298.14909215013904
99311.161253871468944
99324.191427925557946
99337.543034464848461
99351.360277928702999
99364.175005093537038
99373.330724048137199
99376.954923492259695
99375.350221315660747
99371.229690619991743
99368.480267066101078
99369.724319311833824
99375.066197926265886
99382.641066745170974
99390.346872217865894
99397.207490814704215
99403.082081446671509
99407.693878633785062
99409.581515048630536
99406.153641842014622
99395.334491877147229
99378.134872340524453
99359.195817577507114
99344.752177703034249
99339.363465090078535
99343.31712383464037
99352.597490904809092
99361.419649492032477
99365.461732407071395
99363.779995668170159
99358.935695140316966
99355.425317577944952
99356.878883381607011
99363.8191333826544
99374.047253944692784
99383.870895360349095
99389.475106554673403
99388.31647263999912
99379.776234746357659
99365.71976802602876
99349.703340914333239
99334.971829284375417
99323.740458346292144
99316.894345713648363
99313.720912821503589
99312.990875489660539
99314.304498330006027
99318.903054491238436
99329.231803461225354
99347.330103436150239
99372.818904533065506
99401.874162202700973
99428.033059227469494
99444.520170884250547
99446.931266931758728
99434.797813558456255
99411.252413804846583
99381.163217763489229
99349.035282108248794
99317.916673702711705
99289.412266824903782
99264.425451268136385
99243.908024147647666
99228.901754530787002
99219.922869395086309
99216.332064389396692
99216.31007424920972
99217.566396482288837
99218.294411124952603
99217.750137467344757
99216.09384780198161
99213.72110161971068
99210.562365768520976
99205.812773957470199
99198.38759126199875
99187.777711472692317
99174.846447436779272
99161.984576621776796
99152.444080974819371
99149.098323561542202
99153.082248419770622
99163.098136389133288
99175.63541923261073
99186.131621651104069
99190.764750352856936
99188.001811781214201
99179.227248540628352
99168.235449305197108
99159.853699893850717
99158.209528563224012
99165.370284623990301
99180.794767351093469
99201.639591328392271
99223.896206849050941
99243.844127945267246
99259.200167864808463
99269.435630501189735
99275.406133006763412
99278.641335224310751
99280.604758227636921
99282.142612590832869
99283.359519245728734
99283.833360581411398
99282.976186215833877
99280.397083080257289
99276.026149361467105
99270.090957381980843
99263.043639784227707
99255.504317723796703
99248.251637842826312
99242.172423915413674
99238.056216145952931
99236.275411698574317
99236.537853846210055
99237.884504979752819
99239.014120982814347
99238.753433270772803
99236.49145885973121
99232.413768743906985
99227.524148256445187
99223.36516944837058
99221.635078250910738
99223.861373800886213
99231.08094398175308
99243.507729459583061
99260.322840804874431
99279.820827277537319
99299.571102209942183
99316.919500013871584
99329.510618653614074
99335.837041323306039
99335.569987135066185
99329.517077158205211
99319.346691086087958
99307.226418691381696
99295.333980549505213
99285.446431883930927
99278.714648448600201
99275.464690509281354
99275.273836382228183
99277.137862115370808
99279.749817870208062
99281.746293375457753
99282.000504712181282
99279.899682167932042
99275.366424873427604
99268.942249488711241
99261.641170754257473
99254.741968614805955
99249.2935099939059
99245.736875670205336
99243.757256572745973
99242.367975219560321
99240.32378267031163
99236.550747849585605
99230.454737978696357
99221.997356608277187
99211.535394314676523
99199.531984670116799
99186.298097535327543
99172.001136216873419
99156.834358391046408
99141.288309890296659
99126.237418992401217
99112.812953793283668
99102.142148317550891
99095.000029671020457
99091.533270278800046
99091.238269415101968
99093.119940454940661
99095.785374910978135
99097.6815660201828
99097.46927534819406
99094.233502893141122
99087.589070130314212
99077.758185685088392
99065.613552825758234
99052.523969881076482
99040.024103936491883
99029.512606201897142
99021.948198509810027
99017.677210172914783
99016.400776647686143
99017.277568991237786
99019.239095213051769
99021.500936299315072
99024.045721371629043
99027.481297241683933
99032.756209264174686
99040.819685472146375
99051.961798150383402
99065.640874068019912
99080.384379601629917
99094.379854770304519
99106.014467135202722
99114.210597058117855
99118.919055127174943
99121.721556636097375
99124.956320945799234
99130.865474170190282
99141.048764407270937
99155.812978919173474
99174.038796273409389
99193.388202572066803
99211.263775405881461
99225.588514829025371
99235.45766033657128
99241.457756982374121
99245.264433492120588
99249.173793387235492
99255.339675853902008
99265.065561407318455
99278.607857580311247
99295.282332559960196
99313.329208686249331
99330.586752920542494
99345.102971139494912
99355.612297124564066
99361.613497684709728
99363.146417425305117
99360.557464758589049
99354.319671481076512
99345.147003703459632
99333.964668264743523
99321.818440601346083
99309.76837638161669
99298.741372095028055
99289.571187978217495
99283.001011571774143
99279.622907429511542
99279.624098204250913
99282.569019737478811
99287.646542048867559
99294.028476777937612
99301.099423921084963
99308.55468615765858
99316.378463701606961
99324.743481579382205
99333.860156998736784
99343.863583896789351
99354.825866128463531
99366.838158888815087
99379.970402182429098
99394.15934874289087
99002.001072870596545
99103.922051309025846
99241.122359247281565
99525.794408721660147
99361.383047723851632
98947.123619261983549
98819.332586661927053
98952.236595993177616
99085.653832708325353
99123.729344601742923
99124.885870974947466
99132.093437171439291
99194.653087732585846
99322.460361289005959
99397.245763460785383
99305.506898510822793
99116.180861156797619
99002.441326283849776
99022.073075993539533
99098.747388869975111
99152.262831163534429
99167.750855169055285
99154.379393198003527
99148.311308904885664
99181.539265100538614
99231.251625541510293
99263.052916748289135
99259.319850755025982
99208.773963246698258
99139.9671343046939
99110.16711055272026
99131.594386573284282
99159.875540354507393
99171.280193421582226
99186.281440321021364
99200.781296861678129
99180.614539324204088
99141.226171358968713
99144.146993553353241
99209.966993217196432
99278.253672540988191
99299.529701857623877
99287.085639444558183
99287.209117150952807
99317.059592757024802
99347.082142324594315
99348.914030380256008
99330.468746412574546
99318.21213922611787
99327.750876048114151
99349.129120182769839
99368.276885738479905
99379.743889803561615
99383.803061595652252
99385.038887017872185
99389.706896935647819
99394.876849553256761
99379.627376049902523
99333.496037412507576
99273.04955410164257
99234.630675312015228
99241.483693323694752
99286.665582501198514
99338.224305109790293
99362.848494935868075
99354.020223163912306
99339.167897833438474
99349.695238099069684
99383.761415446046158
99411.568385815975489
99409.884026836443809
99388.401026130959508
99372.546409394853981
99376.148999953933526
99384.800704718727502
99375.139721029045177
99339.341613019365468
99292.346067064863746
99257.293582886501099
99247.133928822004236
99257.686550524260383
99274.70149235779536
99287.053240676468704
99289.072715262998827
99279.204647091813968
99264.304017545116949
99257.686882197551313
99265.134154064609902
99278.230626964141265
99281.039690373028861
99265.568808720257948
99238.412651521197404
99209.285499527512002
99178.303986534112482
99142.587172921412275
99106.358328598260414
99083.516820506803924
99087.241988247667905
99116.590404283444514
99155.023584839815157
99185.839045384782366
99204.076991803929559
99216.41723143895797
99232.68149563568295
99255.321762188526918
99275.630170725940843
99278.250515127860126
99256.178129484469537
99222.698768942631432
99204.343856304170913
99225.5130941758689
99278.894084874526015
99333.800300318049267
99362.06531319541682
99358.519439643743681
99341.306281810349901
99329.958641711593373
99327.231829428987112
99321.934327139519155
99303.590115159546258
99271.935803261207184
99238.227178738903604
99217.673781765537569
99218.965491180526442
99237.855428243303322
99259.56339742372802
99270.811367891583359
99269.417444748163689
99265.074106635147473
99267.498719645882375
99277.218260699373786
99286.48431509573129
99289.77663122145168
99289.067911374368123
99291.349115727382014
99299.589969705120893
99308.822740701230941
99311.411707191771711
99302.730920043861261
99283.706828186768689
99259.383207869599573
99234.411307132264483
99212.87701129404013
99197.955541066330625
99191.604155553039163
99192.398363039115793
99194.621187602475402
99193.277992555551464
99184.796607555268565
99171.716154754263698
99159.799880978272995
99153.651255626653438
99152.445625913605909
99152.11578089366958
99147.462791056677816
99136.344925426194095
99123.228928434822592
99115.090371690836037
99118.164274236842175
99130.89158333078376
99148.582634796490311
99164.309308879834134
99175.822687040621531
99184.924467149292468
99192.727510469820118
99197.919867466320284
99198.47843264004041
99195.530231721873861
99193.11785544284794
99194.345311355136801
99197.78953399490274
99197.844485968220397
99189.291210243478417
99171.16419824717741
99149.732181274448521
99133.945250115342787
99131.774131264683092
99145.75348357456096
99171.324181619129376
99199.320358299868531
99221.521719297757954
99234.884429540397832
99242.035426854679827
99248.294512756750919
99258.359085900097853
99273.945779921108624
99293.629168869534624
99314.303492639912292
99333.157071958878078
99389.00315087166382
99365.602610690242727
99344.268762804887956
99324.839357864460908
99306.160303067867062
99287.847388919617515
99271.503850153021631
99260.454636189067969
99258.120291345592705
99265.919920865781023
99281.524254585499875
99300.393521607489674
99318.287945568547002
99333.097962224550429
99344.821769507499994
99354.633021642439417
99363.283019112335751
99370.087798107517301
99374.247202011814807
99376.238502471096581
99377.661686335151899
99380.400749970620382
99384.985428236512234
99389.85598863872292
99392.772221781982807
99392.906094825157197
99391.499196183402091
99390.68480255905888
99391.513911549234763
99392.734298287221463
99391.06638093694346
99383.181258552547661
99368.517784138981369
99350.664321084201219
99335.771094481096952
99329.38508488239313
99333.381036167222192
99344.821846337275929
99357.657482004869962
99366.319548644489259
99368.309033151948825
99364.863049277453683
99359.445138793671504
99355.4602453338739
99354.798354173501139
99357.278421822775272
99361.046944932619226
99363.897437971143518
99364.133526120393071
99361.153906606763485
99355.390071693167556
99347.947326401117607
99340.338799889432266
99333.782087026236695
99328.854989621919231
99325.649411822509137
99324.225738249049755
99325.288798901514383
99330.483039735481725
99341.803399647571496
99360.300409096424119
99384.731316049495945
99411.13118768511049
99433.837354146511643
99447.486382985603996
99448.950906601763563
99438.24147935093788
99417.921955243495177
99391.638055554387392
99362.704934477776987
99333.508972872441518
99305.750638805839117
99281.040440027456498
99261.086237571769743
99247.291833160357783
99239.976020961257746
99237.878655604014057
99238.568570206320146
99239.606597589881858
99239.593800532908062
99238.399224977503764
99236.550247642633622
99234.266960783468676
99230.858549998665694
99224.93309882520407
99215.336315858061425
99202.202453479389078
99187.474898632004624
99174.606531234894646
99167.45115391035506
99168.69672642700607
99178.54477372916881
99194.214909161644755
99210.63632469130971
99222.160439708153717
99224.671290107406094
99217.179501094025909
99202.272707863230607
99185.178777750843437
99171.970941188803408
99167.585518195846817
99174.29160301743832
99191.111202458836487
99214.391466791945277
99239.315489156739204
99261.620330181816826
99278.926102595811244
99291.087765439297073
99299.56521409022389
99306.220713234230061
99312.350349221815122
99318.175428405782441
99322.965720892883837
99325.539607965067262
99324.896585529786535
99320.594014693240752
99312.843278522326727
99302.33935119380476
99290.015538189036306
99276.919270684098592
99264.173005138291046
99252.936097106343368
99244.347182773897657
99239.194054985564435
99237.606920324498788
99238.858820530556841
99241.532558390055783
99244.01822589225776
99245.068864766493789
99244.194079335706192
99241.926348759123357
99239.569630116180633
99238.808765319248778
99241.238351463427534
99247.954535732249497
99259.16912066511577
99274.048508596693864
99290.824884119676426
99307.205031273188069
99320.941331969355815
99330.228529693704331
99334.084269163882709
99332.505521366154426
99326.275019254448125
99316.804865937228897
99305.808251641865354
99295.110476428759284
99286.368976353405742
99280.838320660797763
99279.022788661153754
99280.575016652088379
99284.400861326168524
99288.833286047432921
99292.130106971380883
99292.887218805321027
99290.382624629695783
99284.724277030938538
99276.775015536230057
99267.867896252661012
99259.425036979577271
99252.585396197988302
99247.820832467623404
99244.829919800977223
99242.754083781634108
99240.500283654517261
99237.139514380833134
99232.110371586066321
99225.295250648268848
99216.837009941213182
99206.933109966019401
99195.756019958018442
99183.463226592095452
99170.251687879077508
99156.548689016490243
99143.092597194234258
99130.845629381903564
99120.744895779032959
99113.384829313348746
99108.837318404097459
99106.643715351063292
99106.026858352328418
99105.971848914996372
99105.318307276902488
99102.956690562554286
99098.036265155766159
99090.111986038900795
99079.270412037032656
99066.189721626971732
99052.133255326654762
99038.618571155268
99027.066746924028848
99018.471749347794685
99013.315371595323086
99011.464591977462987
99012.20087183600117
99014.520775707089342
99017.63043988973368
99021.291175642705639
99025.787899503411609
99031.782265904199448
99039.86964691709727
99050.172521896936814
99061.97971987388155
99074.007341481250478
99084.968715724593494
99093.661322187937913
99099.726566556098987
99103.800961896340596
99107.175522934179753
99111.621509490447352
99118.979899895537528
99130.17262146891153
99144.789127160853241
99161.345139362951159
99177.711474116891623
99191.734663867973723
99201.995439206366427
99208.270373995663249
99211.702804375643609
99214.481289580391604
99219.040201597483247
99227.430875311911223
99240.62343603966292
99258.223515082805534
99278.711944055554341
99300.2606902156258
99320.630163450870896
99337.785281938442495
99350.285153592412826
99357.567675601516385
99359.891598302478087
99358.008794681416475
99352.650488820901955
99344.389942964640795
99333.9272597420495
99322.191173665953102
99310.322976126830326
99299.474839060581871
99290.620331942103803
99284.475946204081993
99281.483993050977006
99281.836130561845494
99285.271043113869382
99291.040565477655036
99298.164167089009425
99305.749973164696712
99313.328025526570855
99320.974600997258676
99329.178134375513764
99338.541700581685291
99349.52604476941633
99362.304107524905703
99376.75641033379361
99392.557701935351361
99409.27632656073547
99206.720815929322271
99198.32383639649197
99019.930684613485937
98997.497266477133962
99066.450120798603166
98999.404072858626023
98960.945233669044683
99090.519715358517715
99193.293486166308867
99173.201103657396743
99130.190490056411363
99138.470207960708649
99199.954211293428671
99307.467845847597346
99366.256795995141147
99272.510147705223062
99101.269225314477808
99021.503728437484824
99068.979370247296174
99131.971756086641108
99150.51174138346687
99160.577901382261189
99171.703409640904283
99183.139109594820184
99214.074650811744505
99262.592886188824195
99300.810754276448279
99298.082400466475519
99238.96525985574408
99164.976116580335656
99145.816760099696694
99178.876824636987294
99199.146047033558716
99187.832671426440356
99189.287498727499042
99204.851045640942175
99195.385773379399325
99158.81289559819561
99147.574568756739609
99190.723994602318271
99249.595180456119124
99276.842272632886306
99273.72626346584002
99277.216171325955656
99303.28608518189867
99332.172592322924174
99342.774348729493795
99337.465219407022232
99325.87998141440039
99314.372784412829787
99307.221722686139401
99307.82960766517499
99317.498700478696264
99330.056773989039357
99341.134443686227314
99354.392313785399892
99368.845641713953228
99371.049464992043795
99345.190085723384982
99299.521554321414442
99261.874643417628249
99255.456931623935816
99286.821467243760708
99339.68632370463456
99380.115612518828129
99386.60661697856267
99372.356967550760601
99369.615578665034263
99392.37838229018962
99420.194236048890161
99427.521732395529398
99410.57855400655535
99389.56855523167178
99381.179619518734398
99386.184096428842167
99389.167956115576089
99377.856857694147038
99354.220685065869475
99329.72148425297928
99314.699384295352502
99307.922239157080185
99303.936614335005288
99297.53947556015919
99287.999432408847497
99276.685700262372848
99266.285951355603174
99262.183664789059549
99266.308911456697388
99272.332011152175255
99272.575303138452
99260.85997022416268
99240.092215045457124
99214.062859551631846
99187.300357426021947
99160.583071842134814
99139.30912068359612
99129.433963308256352
99141.192595552871353
99171.913272237710771
99208.223327531610266
99235.09341658402991
99247.761097834489192
99254.635189381006057
99265.971005388186313
99284.249439668579726
99299.788473089050967
99299.339448820799589
99278.043154002414667
99250.122026868106332
99240.700497138081118
99269.379803657691809
99323.496726926823612
99371.379480016068555
99386.913154694644618
99370.816159844878712
99347.316362688405206
99337.149912973982282
99342.750311869138386
99351.021471313229995
99348.639246212231228
99330.65003138249449
99302.688743093371158
99277.975034613817115
99268.055425767699489
99274.950074755121022
99288.083985131248483
99294.274073095701169
99288.048574533226201
99276.703918377257651
99271.367514443918481
99276.390388099098345
99288.212115617090603
99300.867639393603895
99313.503280703065684
99328.762135790166212
99346.738648826314602
99360.362991060581408
99362.341568629301037
99349.156166095592198
99322.706041275785537
99290.288985061328276
99258.638237021412351
99234.559624814763083
99220.572147666825913
99216.349232623819262
99216.986400070090895
99215.677280077361502
99208.80266642710194
99198.37681351446372
99190.227129321865505
99189.191517400060548
99194.036040576087544
99199.39673526425031
99197.267179422022309
99183.652131919050589
99162.241557205445133
99142.727876622753683
99135.233753006905317
99144.207122461753897
99164.861118914865074
99187.174341138204909
99202.010509889514651
99209.730678357431316
99216.373748186946614
99225.652844765994814
99234.847842351300642
99237.891235846720519
99231.828505661003874
99219.528809742012527
99207.506958555735764
99199.587148223028635
99194.943352193513419
99190.006418918070267
99181.792354970690212
99170.345405342057347
99159.85666519041115
99156.192896748616477
99163.718613828517846
99183.153232636774192
99210.630246536529739
99238.631608633775613
99259.414311480853939
99269.671883893199265
99271.577013618312776
99271.71561368140101
99277.808814736345084
99293.612292713616625
99317.065022051974665
99342.159117196104489
99365.677312119631097
99349.681627549449331
99334.015745232260088
99316.981436138652498
99297.676546663002227
99276.877282670553541
99257.928908100890112
99245.947551821940579
99245.338513720213086
99256.957668343893602
99277.589610889466712
99301.503057531954255
99323.155002984363819
99339.39866011547565
99350.344519270263845
99357.956038644028013
99364.296274671942228
99370.319387259020004
99376.004155587870628
99381.469101030859747
99387.094444292219123
99392.664008462044876
99396.987552047750796
99398.225110563347698
99395.033816739538452
99387.959332920640009
99379.670400176502881
99373.579768218260142
99371.509372561529744
99372.298361442488385
99372.487930791918188
99368.299706032703398
99358.275663085834822
99344.722142967308173
99332.67814389267005
99327.316426953766495
99331.306155513433623
99343.123673599868198
99357.806650800135685
99369.637756813928718
99374.873837173799984
99372.666588383130147
99364.60554627761303
99353.909405962695018
99344.040574180558906
99337.335912100621499
99334.490903581303428
99334.922428274701815
99337.468911784366355
99340.915559627363109
99344.085307665358414
99346.047184273818857
99346.28062461585796
99344.803170184139162
99342.088712927114102
99338.918409666061052
99336.600966353493277
99337.006685421612929
99342.108506562930415
99353.26724958315026
99370.393864231227781
99391.407068423170131
99412.492120648312266
99429.230670957040275
99438.072498374007409
99437.455518121874775
99427.958361793324002
99411.560124575640657
99390.559969494774123
99366.818712422042154
99341.763192095939303
99316.94042620997061
99294.425863035663497
99276.544112433271948
99264.960037424054462
99259.801935630355729
99259.428373539310996
99261.129092309754924
99262.447326015069848
99262.269769325357629
99260.841798676454346
99258.818623870334704
99256.247910289093852
99252.172087161583477
99245.127784639480524
99234.304160217230674
99220.558511896379059
99206.623490434794803
99196.417787334517925
99193.614669603572111
99200.090487528796075
99214.836531967754127
99233.825986499461578
99251.090484771149931
99260.78162358920963
99259.365854557952844
99246.997733474810957
99227.51174777529377
99207.104091437227908
99192.25583295263641
99187.706774674472399
99195.082830706392997
99212.62069627350138
99236.014950404918636
99260.20027817467053
99281.270239463410689
99297.558786253342987
99309.619064513637568
99319.371131043168134
99328.845474383546389
99338.999203303625109
99349.311905281079817
99358.174541845088243
99363.676513928163331
99364.353659936314216
99359.568596793702454
99349.62117330521869
99335.539400118796038
99318.764145192268188
99300.871323898201808
99283.454104656630079
99268.130477543789311
99256.354062120793969
99249.206036984309321
99246.985344741624431
99248.927088502430706
99253.312025472143432
99257.991791900058161
99261.132990865095053
99261.878561480567441
99260.633689628797583
99258.860329955496127
99258.487871143166558
99261.209560115050408
99267.930481819246779
99278.475614475144539
99291.603750824739109
99305.342095461863209
99317.639358178304974
99326.889257040209486
99332.253487739770208
99333.641438229533378
99331.438797383219935
99326.287075643922435
99318.948076294953353
99310.281382470988319
99301.392964121027035
99293.599872982842498
99288.160883638411178
99285.981511969410349
99287.192070669465465
99290.980414931633277
99295.736535047748475
99299.56277269347629
99300.765410003616125
99298.367088748156675
99292.388011671137065
99283.690375947669963
99273.640724468190456
99263.643838391872123
99254.802877682683174
99247.725890840112697
99242.41877071246563
99238.45675339292211
99235.193034078227356
99232.036060573518625
99228.502506145741791
99224.267245718860067
99219.143881653391873
99213.009449038523599
99205.695629773676046
99197.082523527918966
99187.209628420998342
99176.389285405239207
99165.181440690852469
99154.36992459265457
99144.678441929921973
99136.585727894387674
99130.235789373095031
99125.440038855478633
99121.738416097738082
99118.583444079893525
99115.221185894042719
99110.763340895544388
99104.351781708843191
99095.452712671874906
99083.946315892550047
99070.272614677000092
99055.515850075942581
99041.211834429734154
99028.867731181017007
99019.615790847528842
99013.955115424891119
99011.766435381650808
99012.43757820535393
99015.05013639308163
99018.823410868892097
99023.29637256883143
99028.541059627066716
99034.942216512063169
99042.778386013946147
99051.864131762573379
99061.518135049685952
99070.863047809427371
99078.880582995931036
99085.174218115571421
99089.93334376666462
99093.944574392124196
99098.536823055706918
99105.059473269124283
99114.318683411562233
99126.235342287603999
99139.841779179419973
99153.466931043803925
99165.338137151513365
99173.996655931536225
99178.97134398847993
99180.998303764426964
99181.867891641450115
99183.995973380340729
99189.662018360482762
99200.332953025746974
99216.408805002211011
99237.233403566046036
99260.898713304617559
99284.663141951532452
99306.412876427159063
99324.503169319796143
99338.034364265564363
99346.726156257180264
99350.779484012819012
99350.832122077365057
99347.745805095488322
99342.221364402386826
99334.719315232912777
99325.723581858779653
99316.038698297968949
99306.803719483839814
99299.151500940206461
99293.952655137749389
99291.722698113895603
99292.557453200541204
99296.155271122072008
99301.864845750067616
99308.80522551535978
99316.141434203876997
99323.38664062328462
99330.622732091025682
99338.500455661182059
99347.950571506022243
99359.724405612156261
99374.079431155798375
99390.731622758423327
99408.973961269235588
99427.822858223589719
99446.249621891533025
99293.567489317487343
99032.645481916406425
99033.3895950691076
99108.812342914941837
99239.66658521379577
99265.566910674984683
99175.388678601346328
99184.33341683850449
99247.265966499893693