/*--------------------------------*- C++ -*----------------------------------*\
  =========                 |
  \\      /  F ield         | OpenFOAM: The Open Source CFD Toolbox
   \\    /   O peration     | Website:  https://openfoam.org
    \\  /    A nd           | Version:  12
     \\/     M anipulation  |
\*---------------------------------------------------------------------------*/
FoamFile
{
    format      ascii;
    class       volScalarField;
    location    "0.0065";
    object      pPrime2Mean;
}
// * * * * * * * * * * * * * * * * * * * * * * * * * * * * * * * * * * * * * //

dimensions      [2 -2 -4 0 0 0 0];

internalField   nonuniform List<scalar> 
75962
(
914347.85630035400391
894501.07124900817871
885851.22039222717285
879685.73108673095703
874691.06584358215332
870280.02616691589355
866038.82873344421387
861877.14440155029297
857718.9235782623291
853572.6343879699707
849456.9582576751709
845405.99284744262695
841426.8822135925293
837460.5843620300293
833520.6002197265625
829696.68738174438477
826036.134521484375
822541.47090339660645
819146.66953468322754
815773.91078186035156
812384.89784049987793
809000.27889060974121
805712.12130928039551
802575.94060516357422
799622.00185775756836
796877.79584312438965
794377.53011894226074
792150.5655632019043
790206.03340721130371
788513.88962745666504
787031.52395057678223
785716.15145111083984
784526.93389511108398
783423.45425033569336
782359.83442497253418
781295.46205139160156
780229.8805103302002
779181.15798759460449
778147.8198356628418
777097.85521697998047
775999.47071838378906
774849.30598640441895
773652.35520362854004
772395.72161293029785
771054.40048789978027
769607.8444938659668
768059.56705284118652
766426.26767921447754
764719.94244575500488
762922.11194801330566
761000.29105949401855
758945.20448875427246
756754.56918525695801
754427.63798713684082
751990.05023002624512
749473.13293075561523
746901.72606658935547
744299.53313827514648
741697.9560375213623
739133.46215438842773
736635.13422966003418
734215.39366340637207
731868.18799018859863
729580.33075332641602
727349.97402572631836
725185.85888481140137
723089.05952072143555
721042.49888229370117
719022.50156021118164
717016.41671562194824
715029.04706382751465
713062.73650360107422
711102.37820053100586
709125.07208061218262
707120.892333984375
705099.01771926879883
703075.12710952758789
701055.64603424072266
699033.84309005737305
696993.27910232543945
694924.10819244384766
692829.36733627319336
690721.78652763366699
688615.24054527282715
686519.64149856567383
684443.85029220581055
682388.41304588317871
680346.30633354187012
678315.34504508972168
676307.94937133789062
674342.59675216674805
672428.70610809326172
670565.13918304443359
668749.11435317993164
666988.25054550170898
665299.11616325378418
663688.23794174194336
662141.67751312255859
660632.60408210754395
659133.92223739624023
657630.57376861572266
656123.52075004577637
654622.03372573852539
653132.56355857849121
651652.31539344787598
650174.90445518493652
648696.57723236083984
647212.22078514099121
645712.33880233764648
644180.84859275817871
642601.14315795898438
640962.06318855285645
639262.53595352172852
637509.1705379486084
635709.9313907623291
633867.78396606445312
631983.76616287231445
630059.66824150085449
628095.20540428161621
626086.45873069763184
624026.58824920654297
621908.73149108886719
619733.1167163848877
617507.15830039978027
615238.19091606140137
612931.5685977935791
610596.88665580749512
608247.98687171936035
605897.68990516662598
603557.38883590698242
601238.21154022216797
598951.60444641113281
596708.47610664367676
594516.36574554443359
592376.08491325378418
590285.93359184265137
588245.60637664794922
586256.32125282287598
584322.01194953918457
582447.33563995361328
580633.9248161315918
578879.0621280670166
577175.35823249816895
575510.15937042236328
573868.32155990600586
572237.54023361206055
570611.51770210266113
568988.14970970153809
567364.69879150390625
565732.85360336303711
564077.72465896606445
562382.23574829101562
560634.75676536560059
558834.1832447052002
556987.97449684143066
555106.08187675476074
553197.0744457244873
551267.70427322387695
549323.44255638122559
547365.93943405151367
545387.83672714233398
543373.39984703063965
541312.13852310180664
539209.03595161437988
537080.34079933166504
534940.18565368652344
532792.10186958312988
530631.77293395996094
528457.48173713684082
526276.54430389404297
524101.31614685058594
521940.22068786621094
519797.09188652038574
517676.31748199462891
515583.15970039367676
513519.08251762390137
511481.88588905334473
509468.19715309143066
507475.16133117675781
505502.57707786560059
503554.68379211425781
501639.38914680480957
499765.54779243469238
497939.24154090881348
496159.79104042053223
494418.24822235107422
492701.97748184204102
491002.06017112731934
431512.77751350402832
430192.81362724304199
428863.49594306945801
427522.83198547363281
426169.89107131958008
424805.63719749450684
423430.87370300292969
422043.75226020812988
420640.08345413208008
419216.85652732849121
417775.24245262145996
416319.54586982727051
414854.03606986999512
413380.73336982727051
411898.65314674377441
410403.75679206848145
408890.44844627380371
407355.10305595397949
405799.3265266418457
404229.70659828186035
402654.12445259094238
401077.67631721496582
399500.59435653686523
397918.97429084777832
396328.68870162963867
394730.10144996643066
393128.94786071777344
391532.20936393737793
389944.21543312072754
388367.45444679260254
386806.12545204162598
385266.70401382446289
383755.3159294128418
382276.47941017150879
380833.92361068725586
379430.79003715515137
378068.2005558013916
376743.86153411865234
375451.33908653259277
374180.83029365539551
372922.13611221313477
371668.58959579467773
370419.37291526794434
369178.52411079406738
367951.71858787536621
366742.63764190673828
365551.3151912689209
364375.38063430786133
363213.15777206420898
362065.95134162902832
360936.95499229431152
359828.29674530029297
358739.25351715087891
357666.18281745910645
356603.89766693115234
355546.57478332519531
354488.16561698913574
353423.40579032897949
352349.09801864624023
351264.5247631072998
350170.28654479980469
349066.42041969299316
347951.50868225097656
346823.50564765930176
345682.01592636108398
344530.09625053405762
343373.69264602661133
342218.89756202697754
341068.99795722961426
339924.0096492767334
338782.77080535888672
337644.30825233459473
336506.80849838256836
335366.27363204956055
334217.42183303833008
333056.56499099731445
331883.48489570617676
330700.26226043701172
329508.43510818481445
328307.62502288818359
327096.39693069458008
325873.22970390319824
324635.98002052307129
323381.18756103515625
322105.1263542175293
320806.18206596374512
319486.10519409179688
318149.0908203125
316799.7830810546875
315441.34009170532227
314074.40310096740723
312697.60452651977539
311309.43210220336914
309910.12846183776855
308502.13412857055664
307088.96271705627441
305673.28672218322754
304256.00791549682617
302837.42201042175293
301419.6615104675293
300007.74109077453613
298607.86415672302246
297224.9941463470459
295861.87593078613281
294519.20464134216309
293195.79494476318359
291889.22689819335938
290597.24651527404785
289318.57608222961426
288052.28929710388184
286797.03110122680664
285552.13319206237793
284319.74712181091309
283105.23200416564941
281914.56160163879395
280751.08550834655762
279614.38536262512207
278501.96665000915527
277412.44059371948242
276347.30584144592285
275309.38626098632812
274299.27686500549316
273313.41667175292969
272345.43631172180176
271389.20470809936523
270440.77391624450684
269498.14670944213867
268560.07431793212891
267625.33909034729004
266692.85345077514648
265762.03388977050781
264832.35066413879395
263901.94567489624023
262966.68393898010254
262020.47125244140625
261056.69316101074219
260069.40401268005371
259053.58011054992676
258004.90905952453613
256920.36918640136719
255799.7957820892334
254647.17153358459473
253470.69279289245605
252280.89886283874512
251087.26602745056152
249894.71950531005859
248702.28348541259766
247504.97700500488281
246297.30447959899902
245075.38617515563965
243836.88035774230957
242579.92555809020996
241303.0434741973877
240006.26787567138672
238692.12176513671875
237365.23351669311523
236030.6948184967041
234692.69875335693359
233354.26635932922363
232017.86113548278809
230686.23981475830078
229362.82262992858887
228051.20321273803711
226753.95946311950684
225471.6463451385498
224203.09181213378906
222946.87891960144043
221702.83261680603027
220472.2957649230957
219257.15679359436035
218058.77042961120605
216877.79595375061035
215714.88707160949707
214571.38678359985352
213449.46695709228516
212351.67428970336914
211280.10693740844727
210235.45319366455078
209216.66374015808105
208221.93693923950195
207250.5743350982666
206303.97064208984375
205384.44642639160156
204492.77935409545898
203626.4890308380127
202780.40362167358398
201949.15339660644531
201129.70535278320312
200322.10701370239258
199528.22776794433594
198749.64145851135254
197986.28358459472656
197236.65385055541992
196498.97659111022949
195772.30276489257812
195056.79128074645996
194353.10412788391113
193661.57940673828125
192981.8478889465332
192312.89557838439941
191653.28664207458496
191001.30565643310547
190355.11434555053711
189712.88545036315918
189072.7825984954834
188432.78561592102051
187790.63793754577637
187144.12554168701172
186491.41859436035156
185830.78720664978027
185159.62559700012207
184474.29811096191406
183771.63201904296875
183051.11871528625488
182315.73625946044922
181570.23850440979004
180818.27326583862305
180060.59729957580566
179295.42304801940918
178520.23503303527832
177733.55777740478516
176935.89996147155762
176129.87263870239258
175319.6495246887207
174510.28823280334473
173706.97782707214355
172914.29474067687988
172135.44875335693359
171371.66042518615723
170621.9596061706543
169883.84136772155762
169154.93028831481934
168434.94501304626465
167726.55349922180176
167034.31573104858398
166362.45025634765625
165713.08174514770508
165086.09892845153809
164480.3784122467041
163894.91121673583984
163328.92024040222168
162781.46264839172363
162251.61745643615723
161739.4710693359375
161246.97081184387207
160777.53609275817871
160334.82650566101074
159921.67215728759766
159539.8039722442627
159190.12551498413086
158872.89091110229492
158587.51004791259766
158332.35989952087402
158104.77538108825684
935929.04083824157715
908912.59998512268066
896887.1729679107666
887939.55513381958008
880915.34349632263184
875239.89605522155762
870252.90370941162109
865577.36604690551758
861004.06040382385254
856452.10551452636719
851865.35400199890137
847262.83369064331055
842699.36214447021484
838208.46446418762207
833811.35162925720215
829608.20232200622559
825684.32991218566895
822020.67751312255859
818593.03310012817383
815326.07096290588379
812162.34981346130371
809078.52832794189453
806077.81364631652832
803163.07173156738281
800327.56173896789551
797593.64334869384766
795004.39687156677246
792602.01891136169434
790444.88689994812012
788559.89875793457031
786936.75606346130371
785536.23648643493652
784309.5878963470459
783220.48392105102539
782216.70121192932129
781251.40101432800293
780299.59339332580566
779347.16561508178711
778366.71586418151855
777325.06767463684082
776190.00915718078613
774961.46640014648438
773653.64828872680664
772269.08884429931641
770791.9608154296875
769210.49967575073242
767535.24268531799316
765783.8019847869873
763961.5364933013916
762060.25131607055664
760063.89908218383789
757961.10453605651855
755756.7004566192627
753448.93389320373535
751044.55708885192871
748554.98137664794922
745997.44744873046875
743395.19819259643555
740783.68694686889648
738206.1190013885498
735700.44030570983887
733290.04622077941895
730978.52816009521484
728750.59208679199219
726596.00151252746582
724515.5760326385498
722509.89863395690918
720558.82293510437012
718630.71952629089355
716706.18562126159668
714790.74604415893555
712886.21853065490723
710979.36155700683594
709053.54353713989258
707106.66085815429688
705148.2960090637207
703188.93599891662598
701228.25549507141113
699256.70608139038086
697260.17091178894043
695226.57061386108398
693162.86735725402832
691090.64715385437012
689028.93015289306641
686980.26977729797363
684940.87776756286621
682909.85233497619629
680887.98699951171875
678880.15674209594727
676900.37089538574219
674964.17495727539062
673076.09918022155762
671228.97379302978516
669416.14280128479004
667641.60817527770996
665920.06437110900879
664261.62697982788086
662657.32263565063477
661083.77186393737793
659514.74605178833008
657933.19489097595215
656339.3004093170166
654747.00985336303711
653167.32992935180664
651601.94626617431641
650046.16540336608887
648496.55607795715332
646950.9609317779541
645402.58230209350586
643836.7014274597168
642233.93216705322266
640575.82596015930176
638855.96076774597168
637081.80020713806152
635267.93617057800293
633426.63920593261719
631564.43950462341309
629678.43157386779785
627757.00261497497559
625786.7459774017334
623757.73856925964355
621666.01280403137207
619513.43852043151855
617307.84229278564453
615057.31710433959961
612765.67844200134277
610438.18122291564941
608086.72166442871094
605725.3801097869873
603367.17667388916016
601025.17812347412109
598713.78744506835938
596445.73209381103516
594225.72874641418457
592050.8495979309082
589918.01808738708496
587829.47511291503906
585791.06265258789062
583810.62006950378418
581894.8663272857666
580047.27682304382324
578266.47214126586914
576545.80657958984375
574869.84960174560547
573216.6270580291748
571569.3757266998291
569924.59125709533691
568288.10916137695312
566663.30567932128906
565042.06073760986328
563406.37158012390137
561735.81994438171387
560016.59358596801758
558247.09573364257812
556434.42555999755859
554587.49569892883301
552714.36270141601562
550822.83440208435059
548919.07971382141113
547002.97122573852539
545063.99362754821777
543086.94643592834473
541065.09314727783203
539004.93817901611328
536920.0906867980957
534821.89820671081543
532713.21013832092285
530589.4055347442627
528446.01642417907715
526286.51629447937012
524122.16524505615234
521964.81610298156738
519823.67338180541992
517707.01204681396484
515620.14658737182617
513561.18977165222168
511524.21886253356934
509505.47161102294922
507504.79125785827637
505524.19476890563965
503568.50940132141113
501644.84294700622559
499759.82122993469238
497917.67930221557617
496118.51430320739746
494356.21375274658203
492619.7436695098877
490899.49634552001953
489191.86876487731934
432721.06490898132324
431389.84280204772949
430051.92249870300293
428704.77365493774414
427345.75537872314453
425973.91616821289062
424591.47707176208496
423201.19128227233887
421801.86153221130371
420388.06794929504395
418955.21516799926758
417503.70490837097168
416038.44625663757324
414565.37790679931641
413088.29269790649414
411606.87848091125488
410116.00684356689453
408607.84139823913574
407076.45548057556152
405521.93704414367676
403950.56629753112793
402371.03384590148926
400790.08004760742188
399210.10842704772949
397629.44182968139648
396044.98715972900391
394456.00936889648438
392865.77003479003906
391278.83150863647461
389697.71207046508789
388123.80754089355469
386560.85199928283691
385015.37361526489258
383494.3216724395752
382004.28286933898926
380552.09115028381348
379143.11745834350586
377777.69772338867188
376449.67551040649414
375148.66947555541992
373863.7730541229248
372586.80685806274414
371314.60474014282227
370049.41474533081055
368796.77314567565918
367561.95104026794434
366347.08981132507324
365150.14159774780273
363966.23864364624023
362791.05183982849121
361623.51848602294922
360466.50533103942871
359325.32462882995605
358204.60846328735352
357105.49275207519531
356024.45515441894531
354954.43716812133789
353887.18088531494141
352815.46386909484863
351734.12951850891113
350639.96083068847656
349531.39461898803711
348408.38759613037109
347271.99288177490234
346123.49554824829102
344964.23101234436035
343796.45973968505859
342624.10977172851562
341452.26067543029785
340285.12904167175293
339124.66747093200684
337970.99355125427246
336823.56100273132324
335680.68577766418457
334537.83191299438477
333388.13289642333984
332226.01277542114258
331050.26628875732422
329862.93864822387695
328665.78000068664551
327458.57170295715332
326240.3360481262207
325010.26666641235352
323766.57331848144531
322505.56379127502441
321223.27207946777344
319918.28635215759277
318592.90023612976074
317251.69416999816895
315899.28564453125
314538.43244171142578
313169.09069061279297
311788.61519622802734
310394.0632266998291
308985.54290771484375
307567.84877586364746
306148.36730766296387
304732.68151664733887
303321.94814872741699
301914.42561912536621
300509.48391914367676
299110.04681205749512
297721.70261764526367
296350.08349227905273
294998.88057899475098
293669.03946304321289
292359.09909820556641
291066.7214412689209
289790.65048217773438
288530.98943328857422
287287.29261016845703
286057.25075340270996
284838.14542579650879
283630.06181907653809
282437.33487319946289
281266.44102668762207
280122.35428619384766
279006.40273857116699
277917.21235656738281
276853.74964141845703
275817.29917144775391
274810.16972160339355
273832.26215744018555
272879.21804428100586
271943.94674873352051
271019.61749458312988
270101.35826110839844
269185.90556144714355
268270.67123794555664
267353.79714202880859
266434.93283462524414
265515.35312271118164
264596.50813674926758
263677.96255874633789
262755.98720741271973
261824.0097827911377
260874.37956619262695
259900.10606384277344
258895.70732879638672
257857.28289985656738
256782.71097564697266
255672.38667869567871
254530.14416313171387
253363.26520729064941
252180.92990112304688
250991.11322212219238
249797.58549690246582
248599.26827049255371
247392.47248458862305
246173.9117488861084
244941.92279434204102
243695.39849090576172
242432.56369209289551
241151.4528865814209
239851.69260787963867
238535.66986083984375
237207.83939743041992
235872.91774940490723
234534.6727237701416
233195.93945693969727
231859.15298843383789
230526.87182235717773
229201.98511505126953
227887.35915946960449
226585.01441764831543
225295.64842224121094
224019.07451438903809
222755.27225875854492
221504.96865463256836
220269.34415435791016
219049.29862213134766
217845.18740653991699
216657.31375503540039
215486.62020683288574
214334.90170669555664
213204.47719573974609
212097.67622375488281
211016.27236747741699
209960.91098213195801
208930.92492866516113
207925.156005859375
206943.36462593078613
205987.03981590270996
205058.58074760437012
204159.07953834533691
203286.46511268615723
202435.58527755737305
201600.40838432312012
200776.80252456665039
199964.04294586181641
199164.1882381439209
198379.95105361938477
197612.76256370544434
196862.14262199401855
196126.51937294006348
195404.55538940429688
194695.94461250305176
194001.16713905334473
193320.53939437866211
192653.41329193115234
191998.18472099304199
191352.92539978027344
190715.99969863891602
190086.27476119995117
189462.82144737243652
188844.21777534484863
188227.89314270019531
187610.10507011413574
186986.97386741638184
186355.54550170898438
185713.78792953491211
185059.58100128173828
184390.12631034851074
183703.01305770874023
182998.23945617675781
182279.0877799987793
181550.60121726989746
180816.5053596496582
180077.20065879821777
179330.11130905151367
178571.78546333312988
177800.08463859558105
177015.07290458679199
176218.62969779968262
175413.88639640808105
174605.05063056945801
173797.70680999755859
172998.64090156555176
172214.35983085632324
171448.56103515625
170700.42756080627441
169965.48077392578125
169238.78188705444336
168518.26345825195312
167806.04563331604004
167107.09385681152344
166426.62273979187012
165768.23356056213379
165133.64840316772461
164523.35446929931641
163937.00522041320801
163373.11312103271484
162828.74525260925293
162300.3697566986084
161785.81986427307129
161285.99111175537109
160804.89241027832031
160347.8984432220459
159919.78682899475098
159523.87762260437012
159162.26094818115234
158836.17697715759277
158545.91852951049805
158290.1765308380127
158065.48701095581055
907380.77958297729492
892797.36870956420898
885996.84300804138184
879845.70720672607422
874452.97297286987305
869744.74999809265137
865579.04889869689941
861718.69339561462402
857932.57477378845215
854090.22812080383301
850116.23480606079102
845959.508544921875
841627.5293083190918
837204.74522399902344
832759.87406539916992
828430.37075042724609
824378.96389007568359
820638.94062805175781
817172.81086921691895
813926.88333320617676
810878.25656890869141
807998.28183174133301
805246.7438793182373
802613.04492568969727
800051.53607940673828
797543.89523696899414
795102.94626426696777
792757.06851387023926
790568.57326889038086
788596.40072250366211
786861.96110916137695
785343.76117897033691
784016.1678524017334
782849.18572807312012
781795.55925750732422
780815.24341201782227
779888.30727577209473
778997.07731246948242
778099.34624671936035
777135.21961975097656
776059.87721633911133
774865.78959465026855
773563.8833122253418
772158.38654518127441
770641.45087242126465
769002.98410224914551
767251.88347816467285
765412.49655532836914
763495.0427131652832
761496.21959495544434
759416.80801391601562
757253.0561408996582
755006.48169708251953
752679.95636749267578
750277.42012786865234
747800.46760368347168
745252.0403003692627
742649.47961807250977
740027.56260299682617
737437.94605445861816
734922.0798225402832
732503.59356498718262
730187.60526275634766
727964.51272392272949
725820.48236846923828
723750.37175178527832
721758.43978118896484
719836.69855880737305
717955.52167892456055
716085.51410675048828
714220.4389476776123
712362.45341491699219
710508.81898307800293
708651.80988121032715
706791.27081108093262
704932.4184684753418
703074.47825241088867
701210.92444229125977
699327.46189880371094
697408.77501678466797
695444.73602294921875
693444.89107704162598
691433.77576065063477
689427.14235687255859
687421.80049896240234
685407.57973670959473
683384.45650482177734
681365.06916809082031
679363.98355293273926
677390.98925018310547
675453.92513847351074
673555.52697372436523
671691.12348365783691
669854.18419075012207
668044.159423828125
666273.12608528137207
664550.85225868225098
662871.38646697998047
661215.47379684448242
659561.16806411743164
657894.63776969909668
656217.91951560974121
654545.58077812194824
652890.7402286529541
651255.72118949890137
649635.39731597900391
648025.03345108032227
646425.52184104919434
644835.56931304931641
643243.74422836303711
641626.0280876159668
639958.37091636657715
638233.22664642333984
636461.68737411499023
634663.48724746704102
632855.35365295410156
631043.6624584197998
629218.78816032409668
627358.90084648132324
625442.24815559387207
623457.84230804443359
621405.34601211547852
619289.79687118530273
617118.56172752380371
614898.61911010742188
612634.07896041870117
610328.7073860168457
607991.30669021606445
605635.02917671203613
603274.30808639526367
600924.81667327880859
598603.46617889404297
596322.24778175354004
594082.3608570098877
591878.26333808898926
589706.56257438659668
587571.48513603210449
585482.9616527557373
583452.86897277832031
581491.37876319885254
579603.05589294433594
577786.76715278625488
576035.97123718261719
574333.98948097229004
572655.24482727050781
570979.83255195617676
569306.52555847167969
567646.87283325195312
566007.59171485900879
564380.46512222290039
562744.78201866149902
561078.75524520874023
559369.51856803894043
557617.16120147705078
555829.04094123840332
554013.14878082275391
552176.63778877258301
550325.67835807800293
548463.20705795288086
546585.69828987121582
544683.13741302490234
542746.70842742919922
540776.64376258850098
538780.6232967376709
536766.87057495117188
534739.39813232421875
532697.66808128356934
530637.57089042663574
528554.73855400085449
526450.89538764953613
524335.95677757263184
522222.64468383789062
520121.15155029296875
518038.46071815490723
515976.25296974182129
513930.00030899047852
511894.0538215637207
509868.51165199279785
507858.81552696228027
505871.13099670410156
503910.32600402832031
501979.65196228027344
500079.88269424438477
498210.62605094909668
496372.51392364501953
494564.70816612243652
492781.8812427520752
491016.8121280670166
489265.47321701049805
432654.26481246948242
431295.26030158996582
429929.13323783874512
428552.65190696716309
427162.60257720947266
425759.03015899658203
424346.94389343261719
422931.7897777557373
421513.29592514038086
420085.30579948425293
418641.41619300842285
417179.74748229980469
415703.49035453796387
414218.86645126342773
412731.43325233459473
411242.11054992675781
409745.6256275177002
408233.26447296142578
406698.22238349914551
405139.71875762939453
403563.46921730041504
401978.73369789123535
400394.43422317504883
398816.13521575927734
397244.59762001037598
395676.85096549987793
394110.03105163574219
392544.23282051086426
390981.11266136169434
389421.10262870788574
387864.28047752380371
386313.6405029296875
384775.64138793945312
383257.94660186767578
381768.50269508361816
380315.56383514404297
378904.82368087768555
377534.81735229492188
376196.15063667297363
374876.15556907653809
373565.05073547363281
372259.15919494628906
370960.45729446411133
369674.23801803588867
368406.40054512023926
367160.7260684967041
365936.68141746520996
364729.46112060546875
363532.38715553283691
362340.12395858764648
361150.76080703735352
359966.70319747924805
358794.54135894775391
357642.59393501281738
356515.70534515380859
355411.61043357849121
354322.40384292602539
353239.11765289306641
352154.34733390808105
351061.66835021972656
349955.25080871582031
348831.77713394165039
347692.1826114654541
346540.54869270324707
345380.83956527709961
344214.74134635925293
343042.40414428710938
341864.75674438476562
340684.8116397857666
339506.79598236083984
338334.27100372314453
337169.45210266113281
336013.38162422180176
334864.92049598693848
333719.0187873840332
332567.54670333862305
331403.54556846618652
330224.89482498168945
329033.24818420410156
327830.13197135925293
326615.29579544067383
325388.2210750579834
324149.20226860046387
322897.82919311523438
321631.30513572692871
320345.90029716491699
319040.0609016418457
317715.69839477539062
316376.7149715423584
315026.70220756530762
313667.41096496582031
312298.0185546875
310915.41654586791992
309516.57651901245117
308102.35769653320312
306679.51957511901855
305258.23005676269531
303846.48067665100098
302446.19513893127441
301054.34322166442871
299667.62478637695312
298286.23176193237305
296914.1385383605957
295556.88419151306152
294218.90623664855957
292901.76925849914551
291604.42452239990234
290325.31829071044922
289064.36451148986816
287822.46276473999023
286599.17108726501465
285391.5101261138916
284196.01323127746582
283012.24506378173828
281844.20363807678223
280698.47632026672363
279580.59741020202637
278492.66599082946777
277433.90307807922363
276403.32801628112793
275401.50245475769043
274429.27225303649902
273485.02551651000977
272563.7156867980957
271658.42852783203125
270762.59281158447266
269870.69001770019531
268977.72176933288574
268079.36117935180664
267173.35719108581543
266260.77502822875977
265345.22531509399414
264430.33212280273438
263516.963623046875
262601.8935718536377
261678.37067222595215
260737.99095344543457
259772.91681671142578
258777.4232063293457
257748.18222236633301
256683.9189338684082
255585.46565628051758
254456.32976341247559
253302.81467056274414
252132.4846248626709
250951.36575698852539
249761.7402286529541
248562.27315521240234
247350.37641525268555
246124.59152603149414
244884.94255065917969
243631.43743515014648
242363.01651763916016
241078.36425971984863
239777.84398078918457
238464.41955375671387
237142.40604972839355
235815.51649284362793
234486.18447685241699
233156.2019214630127
231827.51844596862793
230502.38372421264648
229183.13389015197754
227871.92496871948242
226570.38028335571289
225279.33659553527832
223999.20788383483887
222730.61623001098633
221474.64230346679688
220232.44220542907715
219004.84622955322266
217792.36978721618652
216595.64066505432129
215415.79134368896484
214254.53148651123047
213113.83734512329102
211995.49831199645996
210900.70084190368652
209829.83810234069824
208782.77662658691406
207759.46013832092285
206760.56142425537109
205787.79850196838379
204843.3291187286377
203928.37935447692871
203041.72417259216309
202179.23166275024414
201335.19891548156738
200504.85438346862793
199686.41452980041504
198881.33083534240723
198092.6385326385498
197322.6084156036377
196571.44095993041992
195837.62022590637207
195119.48177146911621
194416.4896183013916
193729.03107643127441
193057.18547058105469
192399.72811508178711
191754.29528617858887
191118.4907054901123
190490.94562339782715
189871.4990291595459
189260.28915214538574
188656.46661758422852
188057.30075836181641
187458.4868106842041
186855.46918487548828
186244.6948299407959
185623.6512451171875
184989.85412216186523
184340.26301002502441
183672.45114898681641
182986.65575981140137
182286.4966983795166
181577.19552040100098
180862.37277221679688
180141.96694183349609
179412.6296443939209
178670.17562675476074
177912.16863250732422
177138.93117713928223
176352.64132308959961
175555.96251678466797
174752.06379127502441
173945.90135765075684
173145.03388595581055
172358.20654296875
171591.6418514251709
170845.8536205291748
170115.88040161132812
169394.99929046630859
168679.20026397705078
167969.2297420501709
167269.43305015563965
166585.02063369750977
165920.00509262084961
165276.81768226623535
164656.95099639892578
164061.34604454040527
163489.81297874450684
162940.33428001403809
162409.49198722839355
161894.2496337890625
161394.01352310180664
160911.34687423706055
160450.69093132019043
160016.28254508972168
159610.95038986206055
159236.44487380981445
158894.45545387268066
158586.95565605163574
158315.23178291320801
158078.30965995788574
157872.08556365966797
924750.65373420715332
901677.70932388305664
890821.58339691162109
882149.63558197021484
874831.76813316345215
868601.35491180419922
863359.2059211730957
858850.12689781188965
854794.43628692626953