/*--------------------------------*- C++ -*----------------------------------*\
  =========                 |
  \\      /  F ield         | OpenFOAM: The Open Source CFD Toolbox
   \\    /   O peration     | Website:  https://openfoam.org
    \\  /    A nd           | Version:  12
     \\/     M anipulation  |
\*---------------------------------------------------------------------------*/
FoamFile
{
    format      ascii;
    class       volScalarField;
    location    "0.0065";
    object      rho;
}
// * * * * * * * * * * * * * * * * * * * * * * * * * * * * * * * * * * * * * //

dimensions      [1 -3 0 0 0 0 0];

internalField   nonuniform List<scalar> 
75962
(
1.1511200278275837139
1.1486468426051508196
1.1490951301681562313
1.1513942795267917418
1.1509332354271382126
1.1497246771742462013
1.1484862393826713589
1.1478602854665302946
1.1481025902855412912
1.1485953985665868782
1.148869031663982021
1.1490197670197870305
1.1495987581121798193
1.1506751239171375545
1.1513182451269170503
1.1506343340385385421
1.1491052462094379916
1.1478135420614044016
1.1474754986058506301
1.1479254373638596576
1.1484935051228344349
1.1486210473924312048
1.1483326933491908584
1.1481763949445575879
1.1483573912736662059
1.1484908435520246872
1.1485256317809162674
1.1487016143577859495
1.1488975624129513786
1.1488775744493935349
1.1486743505258958375
1.1483938383755327717
1.14802831387897597
1.1476934059436145752
1.1475902812440430534
1.1476479561043506639
1.1475557340355218017
1.1473670181743484964
1.1474726795390806089
1.1479350652413657929
1.1483007019282183148
1.1481772474685618679
1.1477489091866157622
1.1474862128233136449
1.1476516511038661328
1.148084247389649537
1.1484279158363830398
1.1485095929511501822
1.1484715813376469296
1.1484987721336183952
1.1485261998416438356
1.1484545530421099713
1.1483245832461008717
1.1482629770310850414
1.1482870146685979496
1.1483378913591506532
1.1482699025056604114
1.1478555394075262708
1.1470124579030696044
1.1459758170420719647
1.1451855255574783232
1.1449928845741004224
1.1454027847019525588
1.146079642651178121
1.1466262901345469771
1.1468866391496910229
1.1469765706279733131
1.1470420289507976541
1.1470863298986588852
1.1470077200910961945
1.1468013451635590272
1.1466535472060874756
1.1467637961185008777
1.1470940482450262543
1.1473182661214686995
1.1470776120236350071
1.1463160525684481517
1.1453399104352712801
1.1446040420681453664
1.1443839378022750974
1.1446862432473252635
1.1453237038379440182
1.1459873489522067747
1.1463559971897623324
1.1462833325600678691
1.1459216817178221604
1.1456072474305218911
1.1456100195208402948
1.1459122399057388719
1.1462730263262765895
1.1464506482896055228
1.146342565318056117
1.145959902096420624
1.1453479778576773906
1.1446030480306168542
1.1439069952455345192
1.1435071475046276746
1.1435254414472606488
1.1438798382146684318
1.1443444488240608337
1.1447257961703993789
1.14498397999961532
1.14519153471333901
1.1454245396598787821
1.1456899692016417891
1.1459180488366511597
1.1459918857172459727
1.145845701677744799
1.1455529846789507253
1.1453010838227493107
1.1452709648327277225
1.1454770052403455693
1.1457471300610295728
1.1459071908255056282
1.1459178115340316051
1.1458476393720424813
1.145774981743671761
1.145698328907676089
1.1455655744316213251
1.1453577127132452684
1.1451467890326187948
1.1450671185971976751
1.1452177161101184666
1.1455848318962711385
1.1460236456037595776
1.1463258170889778498
1.1463486347693951917
1.1461062456437141055
1.145726868604519888
1.1453410550773501786
1.1450048114418807099
1.1447144403021354275
1.1444900520608998207
1.144393300613075759
1.1445040741307417331
1.144844357963571424
1.1453554838515263015
1.1459149019184931007
1.1463835432205526921
1.1466567288261877433
1.1466719710328032722
1.1464223313974284402
1.1459509719068321498
1.1453626882108465246
1.1447982202606987734
1.1443786492869114646
1.1441716460650948051
1.1441721441644494561
1.1443182824761797267
1.144529777763614975
1.1447482566269715498
1.1449401802684240348
1.1450762949034722915
1.1451187737161487856
1.1450276285793847819
1.1447864311071034304
1.1444209616063527601
1.1440007066150881254
1.1436126820548140337
1.1433279991260860697
1.1431934416161009249
1.1432388661156918097
1.1434572774010511864
1.1438377561035975027
1.1443516253648311487
1.1449599140565209776
1.1456451107842231529
1.1464009211034520419
1.1472306123369362396
1.1481051976631515554
1.1489494340938553041
1.1496724024432964928
1.1502071993072495726
1.1505542787705069774
1.1507830209929645893
1.1509969164904492178
1.1512690058022712059
1.1516160069303973401
1.1519849219866948875
1.1522969449754940641
1.1525086886742617054
1.1526395645796054801
1.1527519602967550849
1.1529031552653734582
1.1531080364268035954
1.1533335016080898949
1.1535280041295215003
1.1536608923512425839
1.1540454840757661259
1.1538310324009182217
1.1536316205851890881
1.1534422999772906415
1.1532599186969700877
1.153094081359065326
1.1529649257109739757
1.1528898911562994734
1.1528774990213344065
1.1529182168847100787
1.1529885905857240047
1.1530685868443339981
1.1531523567074790648
1.153242393375354391
1.1533395947313005436
1.1534313593340324022
1.1534952404085154765
1.153515338081098518
1.1534938336680633508
1.1534529020832233748
1.1534244336460148794
1.1534298970961771591
1.1534700171728955453
1.1535293317786619038
1.1535904927596480896
1.1536454551603045893
1.1536929889858480447
1.1537306073631281578
1.1537459132298268916
1.1537171614813703791
1.1536270126874428321
1.1534838545970647061
1.1533262278764548903
1.1532058857043894218
1.1531606615830949369
1.1531929338626909498
1.1532694042229016951
1.1533421564184740404
1.1533754459177174567
1.1533614970512156006
1.1533214691433217869
1.1532924445444439066
1.1533043280592587543
1.1533614202598938547
1.1534456814892810605
1.1535268340019098066
1.1535735969700009473
1.1535650570834719009
1.1534959609580353046
1.1533813961907739554
1.1532503751272882297
1.1531294573939305792
1.1530369211886228875
1.1529802353534770454
1.1529537872504009854
1.1529476700447476301
1.1529586881434941148
1.1529970315680517778
1.1530827320494436705
1.1532324637253121846
1.1534429838775626109
1.1536826976805534262
1.1538983180049855459
1.1540340132251789562
1.1540534871315606402
1.1539528648902519503
1.1537579755324587349
1.1535090012151560934
1.1532431781149201644
1.1529857461035619703
1.1527500183559791225
1.1525434754448045105
1.1523739502225593956
1.15225000960703583
1.1521759054844185055
1.1521463884561786717
1.1521464909488270401
1.1521573180821249593
1.1521638997726413312
1.1521599871527714587
1.1521467739104531702
1.1521274216281269798
1.1521013253784584407
1.1520618985560182601
1.1520002928915789031
1.1519124206295694446
1.1518055036819219161
1.1516993398829764583
1.1516208012091539992
1.1515936047955046551
1.151627080341820264
1.1517104344782351788
1.1518145728459703303
1.1519017157427922093
1.151940229292804041
1.1519174266841041288
1.1518447563920548582
1.151753596195342233
1.151683864370665944
1.1516696935494179499
1.1517281876457368117
1.1518549003549523047
1.1520263887911801337
1.1522096194048738749
1.1523739643521260234
1.1525006703106823736
1.1525854451602846051
1.1526353877084505317
1.1526631145556855973
1.1526806463643330947
1.1526948485137136213
1.1527064072412878115
1.1527116220963726789
1.1527054325385204248
1.1526844732402818927
1.1526481425106440692
1.1525984136330222896
1.1525391894418717254
1.1524757706698918192
1.1524147172412144702
1.1523634132840134825
1.1523283984135428426
1.1523127672633541874
1.1523141686018001373
1.1523247862128629393
1.1523339786288946396
1.1523320962709260318
1.1523140363588690871
1.1522811716744463251
1.1522415855615830704
1.1522078336778434071
1.1521938611690363263
1.1522123390623286721
1.1522720041057648022
1.1523748254566601457
1.1525142047710206228
1.1526761084131742496
1.1528403806796596598
1.1529849149740543091
1.1530900359255136234
1.1531431225508215199
1.1531413857663868061
1.1530915018193979016
1.153007313969696801
1.1529068181970814067
1.1528080752139415743
1.1527257925801206451
1.1526694805703241453
1.1526418525620085731
1.1526394791829457365
1.1526541475223686106
1.1526751483133428344
1.152691284595393828
1.1526932758368295673
1.1526760402966809149
1.152638877564508002
1.1525861664505292481
1.1525261797499821714
1.1524693935796641586
1.1524244173217284004
1.1523948873184730601
1.1523782174778793852
1.1523662796445546252
1.1523488222553193161
1.1523170218316716173
1.1522660365493493373
1.1521956336798662157
1.1521088563127110938
1.1520096235164756227
1.1519005411964930996
1.1517829460564097399
1.1516583022214244014
1.1515304623108864046
1.1514064407914599286
1.1512954419915069071
1.1512067597303914379
1.1511469090214883071
1.1511173104349765595
1.1511140362341005794
1.1511290352065839393
1.1511508623597324075
1.1511666317157573936
1.1511651289442483836
1.1511386140303920822
1.1510837684223114152
1.1510023834396767572
1.1509017300364472458
1.1507932516649554966
1.150689781047420146
1.1506030013720909277
1.1505408778182903973
1.1505062227460984836
1.1504964423893726533
1.1505044138511377749
1.1505211356907494302
1.1505400111187698009
1.1505608741331443401
1.1505888222961957457
1.1506318475538104273
1.1506979747763710353
1.1507897580965438245
1.1509028139911550159
1.1510249895670647824
1.1511412600618033952
1.1512381986467132844
1.1513067732654289621
1.1513464511955504577
1.1513701832259370939
1.151397222343252924
1.1514461034375194082
1.1515300976783071629
1.1516518291109658634
1.1518021704312766396
1.1519619299927794653
1.1521097516796963145
1.152228507353918241
1.1523106744689861625
1.1523609883932288689
1.1523931447103954451
1.1524259678480532898
1.152477137394454898
1.1525573679046070552
1.1526688101839499545
1.1528059026736214854
1.1529542488701927105
1.1530961533608137248
1.1532156433383378147
1.1533023861820044242
1.1533522962693574243
1.153365673321104401
1.153345275089004307
1.153294854100096023
1.1532201300472626482
1.1531285793914454185
1.153028718356837512
1.1529292387045730894
1.1528377956544744176
1.152761333326635329
1.152706094794342162
1.1526771007311205075
1.1526760267572684349
1.1526993831319103379
1.1527405536516543982
1.1527927553178327624
1.152850937532412301
1.1529125731039380209
1.1529774811642250487
1.1530470327902864192
1.153122909739619395
1.1532061766287748927
1.1532973663011292231
1.153397149547506384
1.1535060530343059781
1.1536235074751028939
1.1470707854255917102
1.1480124220996452689
1.1499324947902525018
1.1531397327091876814
1.1520148544130932589
1.1481021467968319794
1.1462857827464432159
1.1468684425697812657
1.1478812869999113211
1.1483911045682946295
1.1486865563942223467
1.1490422296102282829
1.1498291587060263108
1.1510377595359242431
1.1516029146540023298
1.1506088595385757234
1.1487346022435378501
1.1475009614640083733
1.1474170628225384139
1.1478765693683425919
1.1482601050462444281
1.1484442415205593502
1.1484061638613505263
1.1483071985849553354
1.1483766318251873439
1.1485639412499022427
1.1487936432544194609
1.1490122409284413418
1.1490132247764239803
1.1487937757251205362
1.1486270274945942216
1.1485672854695645473
1.1483542087821174693
1.147967266138766318
1.1477274616406081265
1.1476795990164239125
1.1475365402946939852
1.1473432970783912221
1.1474754901254704542
1.1479770959286861309
1.1482926832805098183
1.1480648272140014932
1.1475431020923656522
1.1472735195517387297
1.1475079108539874007
1.1480047249522440378
1.1484157183520740109
1.1486212407886406961
1.1486684149677861555
1.1486105399247774628
1.1484208042499799429
1.1481375928181118962
1.1478893906205007713
1.1477846344908657628
1.1478509817919235747
1.1480228427445349215
1.1481151753783969127
1.1478352943144518594
1.1470793121599065501
1.1460768851442331151
1.1452865772637239594
1.1450552761354828579
1.1454157526416091084
1.1460961075132480858
1.1467172782834937905
1.1470622080699708345
1.1471973679068965257
1.1472923089895561422
1.1473540960314816406
1.1472635067312266788
1.1469999527472622969
1.1467718721381718883
1.1468053502626258666
1.1471041198024389818
1.1473649425140972635
1.1472359217129735054
1.1466157674555783608
1.1457492958580337561
1.1450501144655369501
1.144826493808615453
1.1451108346882901134
1.1456797916256771241
1.1462213417097733004
1.1464762748757777455
1.1463445126223541504
1.1459640601479923472
1.1456391128005181113
1.145605810256753232
1.1458691089652586204
1.1462214252325220176
1.1464188268204260623
1.1463369370158889016
1.1459702776410463088
1.1453668744511689148
1.1446503922948629839
1.1440229982313563362
1.1437041533737686283
1.1438057987973229146
1.1442392801615921538
1.1447593278847436604
1.1451496103526179748
1.1453515564752421163
1.1454554620679797683
1.1455951365962289135
1.1458237629875467345
1.1460642146642534556
1.1461535123402371017
1.145990622693960681
1.1456601566071844545
1.1453873378086196766
1.1454076959783836553
1.145706328157506837
1.146066009789641571
1.146265294497712306
1.1462454113709603654
1.1461246085140806006
1.1460368289241709139
1.1459981816885289607
1.145934669766181413
1.1457938414845345587
1.1456063379485561526
1.1454797907630471787
1.1455257660202888825
1.1457727468466774035
1.1461233242554167422
1.1463928036342214689
1.1464299909632522656
1.1462116237466291047
1.1458504444906993935
1.1454856566210136481
1.1451889766724407949
1.1449571349940641518
1.1447919548105447429
1.1447436091776226341
1.1448891901512177061
1.1452513703405637902
1.1457568829798037147
1.1462753505736440474
1.1466747226741718091
1.1468645662784482386
1.1468122955045076949
1.1465282379198435958
1.1460723360308060492
1.1455434973818552358
1.1450568337016207021
1.1447005166063353165
1.1445044654724441102
1.1444652080392734295
1.144545557820161541
1.1447180431320456151
1.1449548637540962748
1.1452106377797748316
1.1454058603424175367
1.145458829675343182
1.145309903180358635
1.1449557997835186907
1.1444730329033030447
1.1439755823019124303
1.1435787055709809579
1.14333217490109873
1.1432513863209481375
1.143319114575392037
1.1435387735555191391
1.1439277226220647687
1.1444793098344232529
1.1451519551123012786
1.1458883408380977631
1.1466534017465377371
1.1474384299481514837
1.1482334202813300195
1.148999466947713044
1.1496714785812378601
1.150194792840286695
1.1505560498384277412
1.1508070670977963434
1.1510265802040602345
1.1512890389763661414
1.1516262386958189268
1.1520119045936270119
1.1523805761572230022
1.1526723537145553422
1.152867417675927264
1.1529903647887183027
1.1530863916290243765
1.1531949939255963233
1.1533315692712735601
1.1534868447859163432
1.1536392530528265521
1.1537708862565618784
1.1540649172460477612
1.153858061069023222
1.1536628738528342808
1.1534781462656937823
1.1532947635644090756
1.1531103000537628045
1.1529391047780230828
1.1528100043681768216
1.1527527283541241232
1.1527803559697837876
1.1528747430252235251
1.1529991729570261416
1.1531190889474784989
1.1532172453295370662
1.15329354497545844
1.1533573913322325843
1.1534145525813315203
1.1534589070758618501
1.1534834341842148397
1.153491760558101209
1.1534968767350950447
1.1535141669096722339
1.1535478339489004806
1.1535848356392348624
1.1536065355444584668
1.1536059808476424315
1.1535933209058706339
1.1535860565210740436
1.1535926997042100783
1.1536026887193662205
1.1535887265524706891
1.1535232161615947
1.1534015872907357192
1.1532536728809130722
1.1531304833578568392
1.1530779162419273476
1.1531113468859564009
1.1532062960421674003
1.1533126227419794319
1.1533842978885409103
1.1534007372876149411
1.1533722023437160686
1.153327260430901946
1.1532939472388532565
1.1532878391469312263
1.1533075371688812361
1.1533379725473074107
1.1533612139382314332
1.1533634582126002233
1.1533397730733558895
1.1532935555823276008
1.1532336536639160585
1.1531722932273142934
1.1531193632929157555
1.1530795917572358444
1.1530537871220232216
1.1530425148769056776
1.1530516166264876965
1.1530946492124884983
1.1531880462121868458
1.1533404527569808273
1.1535416471490924639
1.1537590307738150308
1.1539460213446064429
1.1540584439920269499
1.1540704545811946158
1.1539819977021426034
1.1538140666867309214
1.1535966546829330426
1.1533571352786846642
1.1531153170351895465
1.152885387811355633
1.152680776912261118
1.1525156629128141539
1.1524016570500792422
1.1523413872725416507
1.15232444046521465
1.1523307295651672444
1.1523400702857815592
1.152340820091763085
1.152331775313286677
1.1523171648719008342
1.1522987139947975521
1.1522706947556198287
1.1522216663852149487
1.152142190909789532
1.1520334663548181808
1.1519116153699031635
1.1518052190450267513
1.151746166716927533
1.1517567089432463323
1.1518385173153140588
1.1519685622275726011
1.1521048333266830088
1.1522005144423903555
1.15222145541966281
1.1521593828811456106
1.1520356574327934585
1.1518935435804011913
1.1517833613245391788
1.1517460619323098836
1.1518005379574089986
1.1519388102289784825
1.1521307535731375449
1.1523365903478455241
1.1525210912462191537
1.1526645660609804445
1.1527657736418959189
1.1528367196437327991
1.1528927277461706868
1.1529444388682577038
1.15299359694110648
1.1530340653372364024
1.1530559699447187061
1.1530509542784792565
1.153015322318553304
1.1529508544220758992
1.1528633865058022234
1.1527607502313319543
1.1526517041255619489
1.152545584599985018
1.1524519852953059029
1.1523803110315113951
1.1523370960899947946
1.1523234944127640489
1.1523336065968567965
1.1523558066307100223
1.1523767966725069201
1.1523861719420505079
1.1523796966326114166
1.1523615661434372104
1.1523424114457350154
1.152336123379784194
1.1523559722107390435
1.1524111958683724843
1.1525037554213342084
1.1526269138443747675
1.1527661179010191272
1.152902367841665443
1.1530169501107849772
1.153094779304624895
1.1531276026442744964
1.1531153036718897464
1.1530643175851666982
1.1529863168418048591
1.1528954505919180029
1.1528067862471598204
1.1527340127458858277
1.1526875160215188654
1.1526715232431274938
1.1526832783476677058
1.1527138935068110825
1.1527497502154873121
1.1527765621595140733
1.1527827560192016598
1.1527622999292368444
1.1527159553349533017
1.1526506974803087946
1.1525774026663222482
1.1525077264312890701
1.1524510566049701588
1.1524113429647073747
1.1523861909885606547
1.1523686039225491395
1.1523496161359296774
1.1523215831758542027
1.1522798701976457725
1.152223500297516523
1.1521536706606732015
1.1520720487629301232
1.1519800827254293996
1.1518790488174985853
1.1517704854412551541
1.1516577737930748793
1.151546843830526079
1.1514455177886873116
1.1513615036395707936
1.1512997934006081735
1.1512611511776973394
1.1512419890483767126
1.1512360556577134751
1.1512350536920996635
1.1512293865547351679
1.1512098003821582548
1.151169144048679982
1.1511036380636949783
1.1510139606633316145
1.1509057498846992917
1.1507895266320904426
1.1506779286851074318
1.1505827643991184406
1.1505122477158893357
1.1504702985733017417
1.1504557106913131381
1.1504624289310141361
1.1504820623293878779
1.1505079902913393219
1.150538232901040514
1.150575196283124102
1.1506244355407220237
1.1506909775198939094
1.1507759246595201663
1.150873451821378568
1.1509729582571119888
1.1510637870181184006
1.1511359596810157857
1.151186473122669307
1.1512205310580003736
1.1512487566719156185
1.1512857459626879564
1.1513466911670502402
1.1514392343482091619
1.1515600405550312502
1.1516969253701425657
1.1518323895784463584
1.1519487060688200497
1.1520341589623008804
1.1520868315574395169
1.1521160437485542527
1.1521397133271868984
1.1521777971015612074
1.1522471378600089853
1.1523557293711912397
1.1525003684278192218
1.1526686326380917169
1.1528455874554885963
1.1530129233890409335
1.1531540078361162127
1.153257070375431903
1.1533175270008317881
1.1533374817388502009
1.1533230353999956996
1.1532800626554395862
1.1532131043202316079
1.1531277516882227907
1.1530315247053763983
1.1529337649846009839
1.1528439762945059677
1.1527702559010357675
1.1527186264189095422
1.1526928708106285448
1.152694703020478828
1.1527220778212561303
1.1527689092636599355
1.1528271614905853948
1.1528895011213062816
1.1529520434064441936
1.1530153741826452141
1.1530834733184154306
1.153161255966344001
1.1532524735695610651
1.153358508046490094
1.1534783043959173643
1.1536091300930788606
1.1537473603197323513
1.1484652781479018913
1.1487192990791648128
1.1481200148616874657
1.1488489058746620408
1.1497051006159006992
1.1486416443782299091
1.1474866998331345602
1.1479681197763813572
1.1487000049319648909
1.1487492530540264202
1.148715712010279999
1.1490935937487254392
1.1498497165775167783
1.1508559057462219855
1.1512664197498747587
1.1502470637219133209
1.1485209748247489081
1.1475833340100425328
1.1477812704731802373
1.1482158001919642309
1.1483939608070312666
1.1485579624549895339
1.148672441398807198
1.1486335881088554078
1.148620305259085983
1.1487765486334930998
1.1490622809904524892
1.1492909434360794041
1.1492137994824593861
1.1489407056452527467
1.1488507632891886701
1.1488721121162717154
1.1485729556224086867
1.1479830579400001067
1.1476348606368704797
1.1476257962394285084
1.1476184135450233637
1.1474933395764832511
1.1475353019546370437
1.1478543541373840142
1.1480812023110558151
1.1478849317105233041
1.1474242075931548879
1.1471746378415785816
1.1473820291451630737
1.1478823694398965216
1.1483740206221544344
1.1486742278848556253
1.1486835134137018954
1.1483903104829458197
1.1479128012604542519
1.147461256830039078
1.1472303960806116141
1.1472619943929340813
1.1474794617728225621
1.1477649792965374242
1.1479359164064613097
1.1477723654458742431
1.1471524146990554893
1.1462600358581467308
1.1454915631456821234
1.1451864490051260059
1.1454724093035990595
1.1461888844163969914
1.1469377004428324973
1.1473711933137402674
1.1474417100119860269
1.1473433043497549555
1.1472430607286783211
1.147127970731796287
1.1469714259615488849
1.1468587348839089923
1.1469401965905845486
1.1472053532659769459
1.1474520534453216403
1.1473967569838914304
1.1469292431376951757
1.1462218564944399724
1.1456126303469451599
1.1453862225188651269
1.1455775146321620639
1.1460059604992534066
1.1463859558949645034
1.1464962451417681777
1.1462797584834543141
1.1458700839850799458
1.1455296854450307542
1.1454688914743256234
1.1456990267716371523
1.1460626157456699215
1.1463163329118826184
1.146299554107148122
1.1459633242717646162
1.1454046763910397111
1.1447888148053568802
1.1443283572265110504
1.1441655582286767157
1.1443704244986370178
1.1448264849202736126
1.1453107833371236612
1.1456274792206215807
1.1457334533760252793
1.1457480076479908959
1.1458177425892612789
1.1459964498608212757
1.1461924540571901687
1.1462523820928702811
1.1460892680459724424
1.1457978887292661341
1.1455987864352445982
1.1456944187327202656
1.1460280330524876824
1.1463700413964121871
1.1465069339941733606
1.1464186877440900592
1.1462677754553620701
1.1461976912853943933
1.1462245692612458292
1.1462610175608167751
1.1462314110680138501
1.1461260375762356567
1.1460044469880676932
1.1459634437966239595
1.1460631426802263544
1.1462720089192046657
1.1464554395339916493
1.1464719745013345342
1.1462685561697005809
1.1459246824708873014
1.1455726057261244044
1.1452990439849253246
1.1451252915085532447
1.1450461663786331012
1.1450892011113773528
1.1452992156562280535
1.1456825494125510989
1.1461593719938121261
1.1466139205458121264
1.1469327226411871745
1.1470382524318671891
1.1469174989504351547
1.146597132925411211
1.1461574553239677332
1.1456876083233071828
1.1452761974007628076
1.144972253223922154
1.1447864763660147158
1.1447200300449025256
1.144780571885645637
1.1449715222282708105
1.1452635399205155498
1.1455684355572388622
1.1457730283796918602
1.1457671757603340446
1.145507238355096824
1.1450460071045975852
1.1445101846856806649
1.1440421078761204843
1.1437380294193140173
1.1436108176575072726
1.1436185811666528256
1.1437139790882615564
1.1439152515527104548
1.1442758003487445428
1.1448191673051562045
1.1455054647464055773
1.1462568982363694481
1.1470121582763332935
1.147751833693321899
1.1484854560073114449
1.1492046913567468547
1.1498718849672535658
1.1504385070467595398
1.1508732626490236761
1.1511806927490562114
1.1514075378261694471
1.1516185441765816044
1.1518667054378866066
1.1521726405852736885
1.1525151593002616046
1.1528386672971517868
1.1530822950191079723
1.1532198094285572854
1.1532697018861823857
1.1532876225691588434
1.1533399543053510783
1.1534617555443735792
1.153640973379395307
1.1538329775556186441
1.1538636427634070269
1.1537117448179097234
1.1535567650674867224
1.153385413803511339
1.1531912517998239576
1.1529819274838977172
1.1527864906655034272
1.1526486805833211502
1.1526062689442242437
1.1526674616546426222
1.1528064984107533331
1.1529764644369595583
1.1531316650336289609
1.1532459435828057437
1.1533198585844484096
1.1533691793466309683
1.1534104890434333512
1.1534512434303167971
1.1534909227141807442
1.1535302544657861645
1.153572201948462661
1.1536148366657137387
1.15364814628098733
1.153656690150241193
1.1536290972088492079
1.1535696261195034218
1.15350016839559677
1.1534488760334677959
1.1534308266181432234
1.1534364730245547648
1.1534372609913738916
1.1534019888817421684
1.1533186603628899913
1.153206414567246707
1.153106941286214937
1.1530629426715635066
1.1530963249477861332
1.1531943170244123298
1.1533158061230435187
1.1534135528908853185
1.1534566888384343297
1.1534382179431930115
1.1533711998244193797
1.1532821063809473028
1.1531994921400285925
1.1531427869484309756
1.1531180532601859046
1.1531208681297580032
1.1531419486283902565
1.1531713649449377712
1.1531992540971125472
1.153217611271288634
1.1532217491942993171
1.1532114778904956065
1.1531905165373670386
1.1531652512691001888
1.1531465113484706819
1.1531498211440687207
1.1531915542392199292
1.1532829921100233861
1.1534234589915401958
1.1535959219365889972
1.153769119061903492
1.1539067922298029689
1.1539797161131530867
1.1539748959083213631
1.1538968698245106737
1.1537616925203149076
1.1535881301817205724
1.1533914892571199839
1.1531836706498741485
1.1529776839352350315
1.1527909255605852668
1.1526427901589273439
1.1525471258322377288
1.1525050039067257224
1.1525028190384949411
1.1525180835592616635
1.1525303524404892919
1.1525302437525910548
1.1525195938070698087
1.152503668584427432
1.1524828041679164858
1.1524491192677246421
1.152390614138927516
1.1523007041421624574
1.1521865836927123183
1.1520709260682884256
1.1519862037533838972
1.1519628666453232135
1.1520164956872946949
1.1521387718688858026
1.1522963496461400279
1.1524397450219718841
1.1525204003372326866
1.1525088901284532561
1.152406344483772882
1.152244435369430775
1.1520744992010629737
1.1519503359653797681
1.1519113929931039664
1.1519713416780112958
1.1521157526465259924
1.1523090773248929608
1.1525093948932574328
1.1526842976471332047
1.1528198591328806533
1.1529204989727388497
1.1530019660949160087
1.1530809659481515705
1.1531653712632157216
1.153250876159180871
1.1533241929482986876
1.1533695514335784438
1.1533748852597112133
1.1533349754101660523
1.1532523598529398345
1.1531355960052289689
1.1529966319578588418
1.152848495285847763
1.1527043248799280217
1.1525774565157074214
1.152479889655160239
1.152420596594663893
1.1524021314913723835
1.1524182660718562676
1.1524548415374400445
1.1524940661293592292
1.1525206569895212194
1.1525273430766567184
1.1525172959016574126
1.1525025093627641048
1.1524989645802576899
1.1525207965938175647
1.1525756962814650564
1.1526624322553484792
1.1527708948630424057
1.1528848281026715661
1.152987222737271944
1.1530646859247142277
1.1531101498234996861
1.153122728254226681
1.153105505153760868
1.1530637132076799745
1.153003590055753369
1.1529321886549053211
1.1528586125757727121
1.1527937367218030751
1.1527480034016373001
1.1527289868764121206
1.152737903682790721
1.1527682128580969412
1.1528067634028207333
1.1528379706070805977
1.1528478549210192661
1.1528282687437638732
1.1527792278452531072
1.1527076798650675027
1.152624775969123716
1.1525420543323225964
1.1524686523705696128
1.1524096964086256722
1.1523653804164575298
1.1523323327931993543
1.1523052832836322423
1.1522793398387107811
1.1522504425354211932
1.1522158288202100085
1.1521738984665896854
1.1521236123320612865
1.1520635944398009975
1.1519928682264670705
1.1519117305282777775
1.1518226820324368731
1.151730232635124862
1.1516407439687372793
1.1515601288099310828
1.151492367696388408
1.1514387614679562066
1.1513979099808782092
1.1513661832275372543
1.1513391915646820074
1.1513107694753097476
1.151273571639233495
1.1512204595979391719
1.1511469582054878469
1.151052017654121018
1.1509392431639926535
1.1508175866480552241
1.1506997434214241149
1.1505981644633702654
1.1505221895572599333
1.1504759061714946444
1.1504582907903364575
1.1504642572289522917
1.1504861985903189758
1.1505176591245780404
1.1505548315287168482
1.1505983115665934235
1.1506512731700866414
1.1507160113482401975
1.1507909936742564128
1.1508705943374515357
1.1509475842775267473
1.1510135870654736312
1.1510653831215478249
1.1511045933228223337
1.1511377587554372237
1.1511758770085964709
1.1512300694751795849
1.1513069608616812722
1.1514058644028390965
1.151518765170436831
1.1516318631344255596
1.1517305379156401735
1.1518027650583093635
1.1518446515284752607
1.1518622254185655329
1.1518701762212546491
1.1518883373042794194
1.1519354148773974789
1.1520234367165407274
1.1521556764008593632
1.1523267704748010321
1.1525210880250855716
1.1527161573216258006
1.152894698221629044
1.1530432870372773202
1.1531546268571242209
1.1532264915360728175
1.1532605539642630799
1.1532620002706863716
1.1532378014893405194
1.1531935649808857658
1.153132897367811438
1.1530596150450338477
1.1529802347326392198
1.1529041077297252915
1.1528406134970408115
1.1527970351287246675
1.1527777587692280559
1.152783707500327548
1.1528125032438756303
1.1528588580364813598
1.1529155542193776363
1.1529757288976740792
1.1530353738642939998
1.153095147985707003
1.1531603871516524773
1.1532387169625861745
1.1533362921271017587
1.1534551828205419355
1.1535929850459949453
1.1537438266727526592
1.1538994961155146779
1.1540515378432540938
1.1490895296794543246
1.1474717281032797978
1.1482960165742723824
1.1497564702649811785
1.1511094121402234425
1.1508489493588558439
1.1492942609397107656
1.1487721585628201115