/*--------------------------------*- C++ -*----------------------------------*\
  =========                 |
  \\      /  F ield         | OpenFOAM: The Open Source CFD Toolbox
   \\    /   O peration     | Website:  https://openfoam.org
    \\  /    A nd           | Version:  12
     \\/     M anipulation  |
\*---------------------------------------------------------------------------*/
FoamFile
{
    format      ascii;
    class       volScalarField;
    location    "0.0065";
    object      T;
}
// * * * * * * * * * * * * * * * * * * * * * * * * * * * * * * * * * * * * * //

dimensions      [0 0 0 1 0 0 0];

internalField   nonuniform List<scalar> 
75962
(
300.38898916617080204
300.16082363060195348
299.89418631016980044
299.80034433355035617
299.67041014459789494
299.74553328434512878
299.91128251455461395
300.03299446549124241
300.0846015259086812
300.06282577132770939
299.98383114141756778
299.87862530277726592
299.82076358734627775
299.86181523077772226
299.94398899378120404
299.96414691168916988
299.92573005557312626
299.90420079806887088
299.96287023808753247
300.07828461067180115
300.16807017613137987
300.17489770316865361
300.13381144665765987
300.14480644371900553
300.23481169263442325
300.31243308356124544
300.30508837245156428
300.21707855923568786
300.08387632497607456
299.96432225897075341
299.92507914919207224
299.98640239485104075
300.10781743415213896
300.24263032156181907
300.36259916519554736
300.43451782463068866
300.42697977469515536
300.37240800304425647
300.35544071752394757
300.42418389314576643
300.54927495417899763
300.67231549135033219
300.76643781363316066
300.8266365704152463
300.84339066996454903
300.79871823035261968
300.69393499915156553
300.57472471694291016
300.51676990334954098
300.56721422952540479
300.69989329652139531
300.84927430510208524
300.95898120423754563
301.00684205221432421
300.99981917360759098
300.9720826105535707
300.96121474905788773
300.98095847865283758
301.02621497177193532
301.08917651926327608
301.16223548209717364
301.23044894409497374
301.26568452441341606
301.23878437709811351
301.14700771217326292
301.03138048936631321
300.95747857684574456
300.9677160263356086
301.05059118585046463
301.14915918041521081
301.20480208196403282
301.19757717702907485
301.14966526620503373
301.10025463581308713
301.07856541252590432
301.09546505450919085
301.14826833000921624
301.22067293788319375
301.28366323514967462
301.30174126681419011
301.25847383733594143
301.17392548953245068
301.09055258391231291
301.04386033158453984
301.04453937608775504
301.07876272263422379
301.11681495740140235
301.12810514823576113
301.09322201528681262
301.01912434926003925
300.94176504027569763
300.90579230280934553
300.93304976820076035
301.00544064500985542
301.08035815007741576
301.12160897269802717
301.12296014425214707
301.0989637425217893
301.06918383168181208
301.04559961306654259
301.03256635493198701
301.03088247333761274
301.03732396419474071
301.04502251739199892
301.04732291705010994
301.04126702072318267
301.02687453090271674
301.00961477442405112
301.00281766536403438
301.02254346643741201
301.07675493859835569
301.15349212269148893
301.2241543671322006
301.26693575486439158
301.28145630565330748
301.28239921236189502
301.28374348303640318
301.28491848639635009
301.27276948392500344
301.23329849591328866
301.16373574129841018
301.07578648954171285
300.98915965925766614
300.92291445096867619
300.88854227570976718
300.88923495399029662
300.92539231036340652
300.99897449371025004
301.10839342916335681
301.24073324000829643
301.37046327827283676
301.46808856652239683
301.51408866212779003
301.50293093194119365
301.44094389034989945
301.33853512450718881
301.20862150742948415
301.06770484089707907
300.93662908490034624
300.83854665613370116
300.79130744898225203
300.80226560960119286
300.86516939255915304
300.96370099197389436
301.07538562957523709
301.17497051162064281
301.23995779014319396
301.25505362271240983
301.21637273267384671
301.13363568206784748
301.02898907902743986
300.93013611770413718
300.86129031866892092
300.8368369980623811
300.85948857202214413
300.9228444852817006
301.01511457967171737
301.12229975799340309
301.22930004332414455
301.32034646868845584
301.38129056475816014
301.40257740045223045
301.37769610883668747
301.3063065682823094
301.19150109025150641
301.03904897545953645
300.85918478519090513
300.66401698573815793
300.46628805493071468
300.27432094689845599
300.09023594054070827
299.91304926609734594
299.74255137377627989
299.58344654566809595
299.445036358470702
299.33746478179460837
299.26521012100010921
299.22523327163639806
299.20656790382400914
299.19592233023246308
299.18483621356210733
299.17286365219604249
299.16533189562295547
299.16779963665817377
299.1815411803802931
299.20245574414428802
299.22392130348362116
299.24101059852966955
299.35095480496329401
299.33471739358742525
299.32181458294377308
299.31164902778971282
299.30368811166601972
299.29859379842099543
299.29803923674546695
299.3033625207221462
299.3149942570831854
299.33153135963448221
299.35019236170035128
299.36864891680335177
299.3861774826995088
299.40304531665253762
299.41945379345997935
299.43424982384118493
299.44525628269775552
299.4509597956874245
299.45170690206748532
299.44991628549053075
299.4490217622951036
299.45135232249037927
299.45703401239512687
299.46446085054884634
299.47180212986722836
299.47820524285998545
299.48356538863151854
299.48769453022725884
299.48940830282685965
299.48654452119137659
299.47734952413435394
299.4626887046439947
299.44653858945520142
299.4342527061374426
299.42975306594672702
299.43329030500257204
299.44140598763169692
299.44910504519742744
299.4526435632792527
299.4511969469132282
299.44699018484107
299.44394647834241141
299.4452418499797659
299.4513348332844771
299.46028147858811508
299.46881507825884228
299.47356159224682415
299.47228746432330126
299.46449170815515117
299.451876317513495
299.43762399273310848
299.42461809347463486
299.41479086615453298
299.40887262674203839
299.4061737846331539
299.4055614541720729
299.40666045351719049
299.41056653644852759
299.41944859512068433
299.43512170895456848
299.45728024306748694
299.48259762493637481
299.50543357459889648
299.51987472976315985
299.52208245409497067
299.51165246918748153
299.49131103574580948
299.46528570046569939
299.43747915892708988
299.41052356707899662
299.38580162829327946
299.3640975601615537
299.34625081576052708
299.33318189114527286
299.32534662443180196
299.32218211941199115
299.32208915105229607
299.32306645797490319
299.32355287464446292
299.32292736720484072
299.32136331343770053
299.31923264344277413
299.31648267477987702
299.31239620942375268
299.30599896871319743
299.29681610315088847
299.2855750754786186
299.27434568274850335
299.26596019452057362
299.26292921766003019
299.26625460906359422
299.27482345919440831
299.28559946535494873
299.29463045311791802
299.2986039662470148
299.29619162013187861
299.28859572624577368
299.27911205995394539
299.27193597242109036
299.27065609588362349
299.27706757679914062
299.29069018935945223
299.30903090174405179
299.32857465639887096
299.34605441731031306
299.35945714623960612
299.36830592545919671
299.37333914627555487
299.37589363089466588
299.37726087883072523
299.37820959453017622
299.37887704716541748
299.37895147422949549
299.37797429270710836
299.37564072059518594
299.37189607614340048
299.36691383666482125
299.3610435032515511
299.35477822104775214
299.34876239243300233
299.34375288331136744
299.34043272199232888
299.33912161295762644
299.33954922125616349
299.34085311753011638
299.34187255424819796
299.34157520266506936
299.33944362733711841
299.33568081288905205
299.33121461048403944
299.32743658281168564
299.32584725383952673
299.32776304705447501
299.33404183890587547
299.34481606562547995
299.35932751256581241
299.37607556590938884
299.39296444478782178
299.4077332476812785
299.41839247857410555
299.42367777594319023
299.42332377686597056
299.41803130457026327
299.4092338154813433
299.39879141337416968
299.38857893542910915
299.38013517285781973
299.37446129995606725
299.37183662700971354
299.37187752349956327
299.37368883951177168
299.37611079831935967
299.37794014321559644
299.37818953439960978
299.3763310424749875
299.37231298782029398
299.36663068481146865
299.36019302048009649
299.35413541595931974
299.34938516993162239
299.34632839950887728
299.34468758314204706
299.34359814396134425
299.34196705124827531
299.3388469260875695
299.33370310008325532
299.32647967578066073
299.31746173763843899
299.30702764896068402
299.29543797401879601
299.2828499464949914
299.26946579391540126
299.25576450979281162
299.24256259457780516
299.23088347525714426
299.22171583414240104
299.2157075333756211
299.21293315112558275
299.21289344949519773
299.21467653026473954
299.21705128102013305
299.21867784975319182
299.21842746234085553
299.21554912063629672
299.20974196811903312
299.2012105464692695
299.19069919502732091
299.17936618146518413
299.16851041238913922
299.15931971610785922
299.15262021492696931
299.14872780639979055
299.14741451730992594
299.14799076293360258
299.14956892032108726
299.15149435281080059
299.15375771638412061
299.1568698738585681
299.16161822294958483
299.16878331762069365
299.17857643538712864
299.19049992180839581
299.20326482445273086
299.21530324829961955
299.22523592788576252
299.23215799026854711
299.23606043917521902
299.23835305437910392
299.24109101130028421
299.24622560718427167
299.25513620636041878
299.26806521704384068
299.28400388917845021
299.30088163438688298
299.3164096584319509
299.32877300069282001
299.33719857135497477
299.34222713509984715
299.34535607180299621
299.34862133054730293
299.35392665613136387
299.36241958319675405
299.37431338712502793
299.38898742753798388
299.40487301830103206
299.42004787311299197
299.43277643601004456
299.44192875358345418
299.44705660053762131
299.44820325284132423
299.44569693805402721
299.43998859384265643
299.43174418184094066
299.4218101982867779
299.41112692211612512
299.40063267038419781
299.3911340963864518
299.38334218385239183
299.37787715162124869
299.37522101634607452
299.37550354164261535
299.37831766216652341
299.38293556283076668
299.38862130372120873
299.39483077331226468
299.40130146625733687
299.40803261936906665
299.41518878075254406
299.42296736022842651
299.4314988634691872
299.44086192699535331
299.45115671098193388
299.46245676614836384
299.474718759548864
299.99716585996162621
300.05968751276304829
299.97338147537845998
299.99713986497010865
299.79400699951099796
299.56153186298234914
299.64870725369962656
299.89927100634741919
300.03864912001898801
300.02069401424040507
299.94702576484354495
299.87598349554770039
299.85986632935504304
299.9309590922383677
300.00949027859684293
299.99154646871835439
299.90814064453053334
299.88603625445796297
299.96743422555204006
300.07953065622194799
300.14129493714642649
300.14004749511690306
300.10952796242332852
300.11702469885472055
300.19945229462183534
300.30093856001388986
300.33711337207535053
300.2686818620375675
300.11551887183742338
299.96466198157401095
299.91803030712321743
299.99847497564843479
300.13974172526707207
300.27544066850117588
300.38361074745682799
300.44005223994173548
300.41642211034974252
300.34769344734422702
300.32193997220036863
300.39000619718854068
300.51415247630308158
300.63821050830216564
300.73720162784195509
300.80824195939015908
300.83721736459443719
300.7979268276400262
300.69582219961722558
300.58620109565629264
300.53676797178775359
300.58077677726220145
300.69514153946488477
300.82728199624170884
300.92705101333780249
300.96680856115591496
300.95315455166115726
300.92223469220283505
300.91368601626317059
300.94088057179993712
300.99942878683043546
301.07937621784913063
301.17053804289344043
301.25217713921421137
301.29447793239160092
301.27198784536295761
301.18342992699251681
301.06611017637771965
300.98563859767449458
300.99262526797139117
301.07961857331491728
301.18763907342503217
301.25174072477318532
301.2465414210409449
301.18969329095341436
301.12216308864202574
301.0799208123710855
301.08451032961414739
301.13883481166425327
301.22399994086595143
301.3015270046328169
301.32953440937467349
301.28674311533598029
301.18874236948005318
301.08389723570553542
301.02307012256892449
301.0277487910895502
301.08249231927658229
301.14781451446941674
301.179164503473487
301.14968603961114013
301.06563945421203243
300.9668923032567136
300.90605057144210832
300.91398084714148808
300.9784883665624875
301.05842434736177893
301.11345431797519723
301.12798114026350049
301.11254138099394595
301.08762052154946787
301.06753662199758992
301.05846280524332315
301.0607285925374299
301.07086531378570271
301.08350548646876632
301.09210974588910403
301.09053153124557412
301.07501989976981349
301.05086724391850339
301.03613096394678905
301.05213344927625485
301.11102307179544368
301.19448589857825027
301.26648235095279915
301.29981466828644443
301.29428861825948616
301.27384278680995067
301.26250177617407644
301.26439088969840441
301.26501959631673344
301.24639893209712227
301.19966256717435726
301.13065149123872288
301.05620054765762461
300.99522397380923167
300.96044309245479553
300.95551583148579766
300.97985638440826506
301.03296964728201601
301.11468187265404595
301.21793119734417132
301.32546731069396628
301.4146124760627572
301.46809938278556729
301.47867926166856023
301.44726976588282241
301.37694974479194343
301.27199034482134721
301.14357368164138506
301.01237551585626306
300.90489070141705952
300.84488333479174571
300.84371303280761367
300.89807681436684561
300.99171049753277885
301.10035589048789006
301.19649262124829647
301.25483766302733102
301.26109186945188867
301.21418552710451877
301.12908075962189969
301.03062012489402832
300.94472533274193893
300.88977379670069467
300.87485887507000371
300.89986088983874879
300.95916922171795704
301.04628672402941447
301.15246652481641831
301.26632391679549983
301.36997694970369821
301.44506019964364896
301.47501466332664677
301.45210096696979463
301.37725977165030145
301.25570800120885906
301.09451517787221064
300.90271620767737204
300.6930133757917929
300.4799844297244249
300.27565994059250443
300.08588308870884021
299.91064155024668025
299.74834071032768179
299.59946199684122803
299.46937979353162973
299.36459441307391671
299.28979357186472043
299.24435344937597847
299.22132595638362318
299.21004205223238159
299.20125052260152643
299.19091425067114187
299.18056834519717313
299.17452057447655989
299.17668161194836784
299.18822828934975178
299.2072664561738975
299.23002884026993797
299.25268842070539677
299.3446451969502391
299.32781823745534666
299.31418453482467612
299.30357100139843851
299.29486650525382174
299.28754343437287844
299.28271110115997544
299.28291226229777067
299.29074382515779007
299.30708848316697868
299.32963031172346291
299.35421101839716584
299.37701986505987861
299.39617663058953667
299.41170311636125234
299.42469673018973708
299.43592492927342619
299.44491631256369146
299.45108287282357651
299.45492178869164945
299.45788212290307229
299.46164709380150271
299.46672165922808517
299.47179164172541732
299.47494517347007559
299.47549253796654511
299.47453998993080404
299.47397199828520797
299.47474559349024048
299.47582954262458088
299.4744285834858033
299.46767625693451009
299.45506625126228073
299.43966410733230532
299.42676090583148607
299.42116117025597077
299.42452559892149111
299.43435614804485567
299.44543477558050881
299.45293046746940036
299.45465784737922377
299.45168147375721901
299.44702189809260062
299.44366158268189793
299.44325264960622235
299.44561277504004693
299.44906809528163194
299.45162438679415118
299.45175319256532021
299.44892296798622056
299.44355177948716573
299.43667306564839237
299.42967265785773634
299.42365291510236602
299.41912815672480974
299.41616579095989437
299.41480121820484328
299.41564234360794217
299.4201258187704866
299.42999684242374769
299.44617427739444793
299.46756209701345597
299.49067190599083688
299.5105356843557729
299.52246789514941838
299.52376162110550695
299.51446370410093323
299.49684367663087414
299.47409293214019499
299.44908950441708839
299.42388033056511176
299.39990740813937009
299.37854075596794701
299.36125109492354568
299.3492599591668295
299.34284945315044979
299.34092528881222961
299.34137261504764638
299.34207725344032269
299.34184387684825879
299.34059015158970851
299.33880825951854376
299.33671388730618901
299.33371111863482383
299.32857300324741345
299.32026857722388513
299.30889032976705266
299.29611159935467413
299.28492502670724207
299.27867566142532496
299.27969530675051146
299.28815737616105253
299.3016529141771116
299.31579444296676229
299.32570369454737147
299.32783801885722141
299.32136283980980807
299.30853303693402268
299.29387858135038414
299.28265091897083039
299.27910838915096292
299.28519098398379583
299.30001805694030281
299.32038944468320096
299.34210314611578951
299.36145187498647147
299.37637535679760958
299.38676184483000497
299.39389746682650184
299.39941849996461087
299.40446950807921667
299.40926490793532366
299.4131969828573574
299.41526797138203619
299.41463201103391611
299.4109144174678363
299.40428954566289121
299.39533618138790416
299.38483344917807472
299.3736642818242899
299.36278839284557307
299.35321066520015165
299.34592312319131224
299.34160547994719082
299.3403513839872403
299.34150075283963588
299.34379880264833673
299.34584380713681639
299.3465774458441615
299.3456209227213094
299.34349047000324617
299.34135758733185639
299.34069598510211563
299.3428683695952941
299.34878098873929275
299.35856216169537447
299.37144601367043606
299.38587978589964678
299.39988265163037795
299.41153873663876084
299.41932484752317123
299.42242433366948262
299.42085906750202184
299.41531721606605743
299.40702362687761706
299.39746786264765888
299.3882397900387673
299.38078206048294305
299.37618097927651206
299.37485996594847393
299.37648761023376665
299.38007278088480234
299.38412547623249793
299.38710285041418047
299.3877770969953076
299.38553783404876185
299.3805125079093159
299.37349072628285285
299.3656669954868903
299.35830253284933633
299.35239415852930733
299.34833950736896213
299.34585178381507831
299.34415899318474885
299.34229321312443517
299.33943798315470985
299.33510370454655458
299.32918907290411425
299.32181359152400546
299.31313926922575774
299.30330970945715308
299.29246798424571807
299.28080821610961948
299.26874091985371251
299.25695352098915691
299.2463179044896151
299.23766041349529132
299.2314790528780577
299.22779302334936347
299.22615059268554205
299.22583033824412269
299.22592467900926749
299.22542445664106481
299.22338487230047122
299.21909581681762802
299.21219538307281027
299.20276776592896795
299.19139428761445743
299.17915448364965414
299.16734623413742611
299.15719261373322979
299.149561654128604
299.1448906722890797
299.14309210057177779
299.14356973227080516
299.14547369679365829
299.14812691853757087
299.15132300338211735
299.15529699686732101
299.16060320045471599
299.16773277593591729
299.1767684189099441
299.18707573121588439
299.19753244721465535
299.20702328489500132
299.21451136089217471
299.21969526475515977
299.2231448725797236
299.2259972318616974
299.22980645938122279
299.23618175825129128
299.24591928084646497
299.25864488248771522
299.27304325816766095
299.28723494924508941
299.29932813484077769
299.30808578932845876
299.31333323891908549
299.31609952276141939
299.318332728123778
299.32219238331987299
299.32949086502941327
299.34107667185082846
299.356590035988404
299.37467337230060593
299.39369138126369307
299.41164633816634932
299.42672378449265125
299.43763916319704776
299.44389078342362609
299.44571360326074227
299.44379004464792615
299.43879832769766836
299.43128657496987444
299.42191235979782959
299.41152181098902929
299.40112926868420118
299.39174042843188772
299.38418833408195496
299.37906997383032603
299.37673722139101073
299.37732320729230651
299.38057109460783067
299.38580517040890072
299.39215548575828052
299.39883719429968778
299.40544217821479833
299.4120482613723766
299.41909433017235642
299.42712175850471112
299.43654477481032927
299.44752512003060474
299.45997580127902893
299.47362527650750508
299.48811323308319743
300.25249368391973803
300.16068951658013475
299.77728912879723566
299.51922160339819357
299.50463030091293604
299.57903713557203673
299.76406698261007477
300.03068721043206324
300.15050975358246887
300.07684673456412838
299.95546390188957275
299.88186808865589228
299.87052992319695477
299.9330719216251282
300.00361681090237198
299.98619396987345453
299.91879583475798654
299.92224803516882048
300.01429829290066209
300.09145116899537697
300.10101067790515117
300.0886226161230752
300.09238085070666102
300.13713713467143407
300.23422279835358495
300.34019068345946835
300.38111395841309559
300.31309873479733596
300.15445454198891184
300.00196082712892576
299.96748069185980512
300.06192854018189564
300.20142219194661948
300.32142771894575617
300.41695278885578091
300.46646365625542785
300.43972846813352362
300.36169285849558719
300.31666867272406307
300.3638567693932373
300.48274342672459625
300.61662727413715857
300.72789431017446304
300.80389237139337411
300.82849750974446579
300.78484242253574621
300.68815710473688796
300.59350659037500009
300.55602025183236492
300.59792795205356697
300.70131745087752506
300.82148964217014964
300.91132022431628457
300.94107971122963363
300.91760187087464828
300.88289561148866369
300.88185532835689173
300.93140323449921425
301.01568046971954118
301.11154195738339467
301.19931237557318582
301.26008243099431638
301.28004851067873915
301.25203537743720972
301.17787664928016511
301.08375141590374824
301.0220826218587149
301.03959574867559468
301.13486572760757554
301.24936199776379908
301.31268391475572344
301.29094015817923946
301.20586887239539919
301.11083306392083614
301.061254355785195
301.08480255496431255
301.17325214200479877
301.28744443020929111
301.37333400079114654
301.38731917923377068
301.316429619390874
301.19169092380229813
301.07245789297650163
301.01457284104498058
301.03711584431295023
301.11319695158692866
301.19022636699344275
301.21872942541421025
301.17649708051777679
301.08168655183038709
300.97952404115454783
300.92095652348916701
300.93029711412634697
300.99585570949608382
301.07666188050779965
301.13319072855654213
301.14603802005899524
301.12784181366555458
301.10115528630376502
301.08402996261207818
301.0823233312373759
301.09290542201290464
301.10993469321579141
301.12599652132968231
301.13447825573530281
301.13010553707204053
301.113000329230033
301.0912678418711721
301.08313515813557615
301.10687675098057525
301.1687518621649815
301.24521519828624605
301.30052526115667888
301.31164355970452107
301.28603212928879884
301.2544387685396714
301.24202897218805219
301.25194803790196829
301.26745004401999495
301.26800767160642636
301.24114981226495047
301.1883038689273917
301.12412038083783727
301.06783988727187307
301.03388807606495448
301.02554315558649023
301.03996870421991616
301.07451386436247276
301.13045040996564694
301.20680732299382498
301.29399635011685632
301.37559559053732983
301.43483802782168368
301.46186445158747347
301.4528942235311888
301.40656981520305635
301.32249683860584355
301.2090424090958436
301.08535877644197853
300.97750653781525898
300.91095130738170838
300.89907947584100611
300.94148593929855906
301.0224659690346698
301.11778413880693961
301.19965311626992843
301.24455720680884951
301.24116889904303207
301.19358196844791564
301.11861045124970815
301.03868857311289275
300.9732656333169416
300.93578535018281173
300.93086219073677512
300.95783632510915595
301.01407057793920785
301.09573266501973876
301.19615496355646656
301.30350255136931992
301.39979399363272705
301.46556584990753436
301.48550911436899469
301.45592087585487207
301.3811144970618443
301.26624254288651628
301.11364820800406505
300.92548057923750093
300.7089612995644643
300.4779190567314231
300.24959776232395825
300.03773093888241874
299.84960173388282101
299.68700152799164016
299.54898319175543975
299.43442387726321385
299.34376726082007281
299.27786157068027251
299.23609392098876469
299.21526835287278345
299.20921174803157783
299.20967364546277167
299.20910315800017543
299.20434119909111814
299.19713901682354162
299.19290758199315405
299.19769531540697471
299.21372373491482222
299.23790298939138665
299.26370296257590553
299.32659529917356167
299.31781337506856744
299.310822514584288
299.30395426503719136
299.29616040513718644
299.28779466037553902
299.28140127087118572
299.28105282979606727
299.29022861136138545
299.309377480914236
299.33548674057931294
299.36345187711424387
299.38842555541589263
299.40771645271712487
299.42151631087767782
299.43165092077265399
299.44003336494682799
299.44760373716422919
299.45443313068346924
299.46068989503248758
299.46675049014817205
299.47246417802512042
299.47684398697344932
299.47835474860028171
299.47590246083274224
299.47002520768489831
299.46308048577833461
299.45804335751404324
299.45649026789209302
299.45740195133220141
299.4577686429065011
299.45430479134188317
299.44573025196325489
299.43402485754296549
299.42355082650283293
299.41881352729325272
299.42217186963057429
299.43234807668966369
299.44505781227525176
299.45533477480705642
299.45991460840309628
299.45805857930537286
299.45116573294382079
299.44206193537252148
299.43376797782428866
299.42828290013494552
299.42612968515629746
299.4266995107603293
299.42890147637046994
299.43165215252827238
299.43396461844707801
299.43511137912247477
299.4347405645814888
299.432954376288194
299.43021538577278307
299.4272198272044534
299.42510050674570721
299.42546402450977894
299.43000560344853511
299.43989657266530457
299.45504147023922314
299.47358717232702929
299.49215320451656908
299.50684154367917245
299.5145469058808203
299.51393959539501566
299.50558445413690833
299.49127320883332004
299.47305753779545512
299.4525676691413878
299.43101178779431848
299.40967410541776417
299.39029469568146169
299.37484817499489509
299.36476161673732577
299.3601463952657582
299.35958727263192714
299.36075158840588983
299.36154044931498674
299.36103319424137226
299.35949286451483431
299.35752764389019376
299.35519394880503796
299.35165081853932634
299.34560125022198918
299.33630911118075346
299.32449012396648413
299.3124968090696143
299.30371611429950462
299.30132160412267694
299.30692729774256122
299.31964903806954226
299.33599789746716624
299.35082360630332232
299.35910189253752378
299.35782177928979308
299.34715529201230311
299.33043687716224213
299.31301849653453928
299.30047721954434792
299.29686905974631372
299.3035495650628377
299.31894437883823912
299.33929449505160392
299.36020721917162746
299.37831929052634905
299.39222665398443723
299.40245213040060435
299.41069621817359803
299.41874263933186739
299.42743219795409004
299.43631412442368855
299.443989030133082
299.44879391537307356
299.44944978452116402
299.44539088561845119
299.43686101542840561
299.42473494921580368
299.41025154592796298
299.39477729725052768
299.37970308857154578
299.36644488464560254
299.35627114277758665
299.35011379937418496
299.34821228908270996
299.34987782072300888
299.35360256992089489
299.35752817110318347
299.36009491197705756
299.36060679405966312
299.35946209709391042
299.35795452939800043
299.35775196158698463
299.36028957460371203
299.36629894727360579
299.3755711085948974
299.38698762410820109
299.39882103213864184
299.40930409814302493
299.4170731657445117
299.42143761921130363
299.42235519911713482
299.42018791288069224
299.4155104979328712
299.40899916003883163
299.40141322362626397
299.39372260530433323
299.38707411296053351
299.38255165928842416
299.38091901661186967
299.38225342380275151
299.38580466599097463
299.39013337457544139
299.39356522866523846
299.39462426670530704
299.39247975451115735
299.3871881841999425
299.37954418757152553
299.37077156573695902
299.36210947314287978
299.35451164827293269
299.34848085395026374
299.34398494545666836
299.340618862811084
299.33780082158131108
299.33501731898599019
299.33186505510622055
299.32808084878996624
299.32351798725812841
299.3180752888471261
299.31160217610994323
299.30399027776417142
299.29528123108366344
299.28576735344756798
299.27596626404294966
299.26659041796767724
299.25828785518854147
299.25146962599893641
299.24623286317222437
299.24237255839375393
299.23944354516424937
299.23693403343787622
299.23417037471176627
299.2303797712916662
299.22482653136967201
299.21706161780844013
299.2069952657480485
299.19501802396928269
299.18207630580025125
299.16950803752615684
299.15862921026109689
299.15043294621136738
299.14536541616007526
299.14333317782626409
299.14380949352675998
299.14599751416216122
299.14921703433014954
299.15306503280447714
299.15760411339766733
299.16317114869559646
299.17001055977488022
299.17796022101549624
299.18642449717054888
299.19463281841399294
299.20168766298928631
299.20722895004138309
299.21140765073397461
299.21489901073965711
299.21885714216693941
299.22446546478687424
299.23243555236342672
299.24270612489954146
299.25443798818713503
299.26617279296254992
299.27635983982395373
299.28372221190159053
299.28785074191085869
299.2894010964402014
299.2899593039248316
299.29166216299898906
299.29652745736757424
299.30585551413423673
299.32000068889436761
299.33837368726563
299.35927639944583234
299.38027570338635996
299.39948613396057908
299.41543702938162141
299.42731384074926382
299.43485206716565017
299.43822455576713537
299.43800767841258903
299.43498870124545874
299.42982367620663808
299.42296371466989058
299.4148760319444591
299.40629328293573508
299.39822090936684162
299.39163886438564077
299.38728119551262807
299.38556365579262319
299.3865356812407299
299.38990525417784738
299.39508158286798789
299.40128263759265792
299.40777308155685432
299.41412607106178712
299.42041739018708313
299.4272230321384427
299.43536816864235561
299.44551859010732642
299.45791170505509626
299.47231441885793402
299.48811956302284898
299.50449460057399165
299.52053533604998847
300.35208085812581658
299.98516929763007965
299.77208149347285371
299.61931553166328968
299.66228684508644164
299.80833295364499236
299.94116301178888762
300.10454678717547949
300.19450562995888276