#                 v                   n
  5.23598775598e-10       74598455027.1
  6.96909970321e-10       20677114602.3
  9.04778684234e-10       29060753607.1
  1.15034650999e-09       43537613022.1
  1.43675504024e-09       69247257989.4
  1.76714586764e-09        116177703683
  2.14466058485e-09        204126860384
  2.57244078451e-09        372996658434
  3.05362805929e-09        704254723249
  3.59136400183e-09   1.36565160588e+12
  4.18879020479e-09   2.70370043516e+12
  4.84904826082e-09   5.43184796744e+12
  5.57527976257e-09   1.10028363939e+13
   6.3706263027e-09   2.23139004321e+13
  7.23822947387e-09   4.49552543665e+13
  8.18123086872e-09   8.91658411173e+13
  9.20277207992e-09   1.72507502588e+14
  1.03059947001e-08   3.21915007296e+14
  1.14940403219e-08   5.72196970938e+14
  1.27700505381e-08   9.55023065934e+14
  1.41371669412e-08   1.47279483324e+15
  1.55985311238e-08      2.06198215e+15
  1.71572846788e-08   2.57520724387e+15
  1.88165691987e-08   2.82985541319e+15
  2.05795262761e-08   2.72520231037e+15
  2.24492975038e-08   2.30868093899e+15
  2.44290244743e-08   1.67793404879e+15
  2.65218487804e-08   9.21504918308e+14
  2.87309120146e-08   2.83520454972e+14
  3.10593557697e-08   1.10373842342e-63
  3.35103216383e-08   6.29520380416e-87
