/*--------------------------------*- C++ -*----------------------------------*\
  =========                 |
  \\      /  F ield         | OpenFOAM: The Open Source CFD Toolbox
   \\    /   O peration     | Website:  https://openfoam.org
    \\  /    A nd           | Version:  12
     \\/     M anipulation  |
\*---------------------------------------------------------------------------*/
FoamFile
{
    format      ascii;
    class       volScalarField;
    location    "0.016";
    object      alphat;
}
// * * * * * * * * * * * * * * * * * * * * * * * * * * * * * * * * * * * * * //

dimensions      [1 -1 -1 0 0 0 0];

internalField   nonuniform List<scalar> 
106891
(
1.1783588377518324671e-05
1.1724836124255400046e-05
1.1658950919813924161e-05
1.1587436148569709761e-05
1.1512036695004310423e-05
1.143617371491270259e-05
1.1360146096737111163e-05
1.1293746891519062554e-05
1.1229718218223228805e-05
1.1185700169268728387e-05
1.1149850782551167877e-05
1.2070308881013978375e-05
1.2118552059883626627e-05
1.2147710457570655302e-05
1.2159523812325642437e-05
1.2158051952521106411e-05
1.2150318466193039886e-05
1.2135363620710078365e-05
1.2098643117240849695e-05
1.2013915686224466923e-05
1.1929178128877012332e-05
1.1865692301191502799e-05
1.1823421967775483139e-05
1.1800295167430094805e-05
1.1789466396498477218e-05
1.1783876777583286252e-05
1.1783595797011726358e-05
1.180284373380808386e-05
1.1884622914332408343e-05
1.2020545472936555999e-05
1.2144500385056002811e-05
1.2252920640234542943e-05
1.234599948115255165e-05
1.2423136184044623049e-05
1.2483407375839454496e-05
1.2526511417291541606e-05
1.2551674444488344646e-05
1.2562066363426306208e-05
1.2560497536469062088e-05
1.2553289324163388813e-05
1.2542590084745602462e-05
1.2519957472003124155e-05
1.2464433446533647727e-05
1.2399412376955089182e-05
1.2348366403802937686e-05
1.2311154260881384856e-05
1.2287569858513529422e-05
1.2273438277546295516e-05
1.2264825966555159198e-05
1.2468889022026600591e-05
1.2469154288735213764e-05
1.2466007070316553339e-05
1.2460636283464628253e-05
1.2454116034045185229e-05
1.2446940625175045798e-05
1.2439277600583744312e-05
1.2430840952643765326e-05
1.2420273582626859015e-05
1.2404042175156081436e-05
1.237106466512557185e-05
1.2298582541360166413e-05
1.2210835165626790429e-05
1.2121407551998039092e-05
1.2033641660381588556e-05
1.1948757916381354637e-05
1.1875085353374935474e-05
1.1807930203964525347e-05
1.176058442350838455e-05
1.1724740108926515094e-05
1.2745325843387315568e-05
1.2755743445837165495e-05
1.2756421761113180557e-05
1.2751126333630770509e-05
1.2741238223061684682e-05
1.2720213251426581557e-05
1.2667517379407814063e-05
1.2582190907200569509e-05
1.2510579381835033641e-05
1.245807513381107523e-05
1.2425681143190648681e-05
1.2409095465108516227e-05
1.2401578908885466348e-05
1.2398128945963933026e-05
1.2409256896507854965e-05
1.2471243550915507014e-05
1.2626126696888619275e-05
1.2770500876933156887e-05
1.2888303074219957357e-05
1.2980970517660036433e-05
1.3053442477157558359e-05
1.3109093828054417251e-05
1.3150339477680901898e-05
1.3178269196365495733e-05
1.3193050368978797714e-05
1.3197506929231096314e-05
1.3193917571482435559e-05
1.3186643428234465149e-05
1.3176454795269058738e-05
1.315681475281176939e-05
1.3110802570958435262e-05
1.3051572821335181195e-05
1.3001454740532894354e-05
1.296321505734922207e-05
1.2937121003785853705e-05
1.2921028074931304702e-05
1.3092633516393760887e-05
1.3100650014555557829e-05
1.3103715810867016116e-05
1.310282411820638865e-05
1.3098636746823042788e-05
1.3092155462906165372e-05
1.3084545222325689011e-05
1.3076261659440926812e-05
1.3067502584962478336e-05
1.3057116333363134623e-05
1.304166805373691533e-05
1.3010676400050166107e-05
1.2934182580449135507e-05
1.28258619925387863e-05
1.2720674886547783601e-05
1.2619158763905692354e-05
1.2530801286367712415e-05
1.245071840005110987e-05
1.2392073130250381299e-05
1.2349701869052279301e-05
1.3426359645766272529e-05
1.3439447588155933538e-05
1.3439073549162660267e-05
1.3432082914756233733e-05
1.3416026283420728581e-05
1.3372365488290553718e-05
1.3282711570073675925e-05
1.3203934502251301884e-05
1.3147309946927039203e-05
1.3113347125974054048e-05
1.3097346857415943135e-05
1.3090176014139829117e-05
1.3093546070619420496e-05
1.3133057459148817379e-05
1.325170438310013541e-05
1.3374054480179479966e-05
1.3476729762524778666e-05
1.3562160678608393502e-05
1.363435070332376973e-05
1.3696082316841970921e-05
1.3751226912976651805e-05
1.3800352338261109495e-05
1.384207026696174273e-05
1.3874154724053859179e-05
1.3893584016672562678e-05
1.3901392047216860824e-05
1.3899156507302135529e-05
1.3891898569356556114e-05
1.3879867657855769002e-05
1.3852095834976550038e-05
1.3784452675527735695e-05
1.3708873068021100729e-05
1.3646897137525495681e-05
1.3599122391430426958e-05
1.3564947589150279814e-05
1.3542392458498965607e-05
1.3781765191856486217e-05
1.3783622958398262295e-05
1.378138892724375581e-05
1.3775802964087194893e-05
1.3767985911291434782e-05
1.3759166891397787616e-05
1.3749841308286813373e-05
1.3740252104928122248e-05
1.3729334984034985691e-05
1.3714037410490322256e-05
1.3685307383402323144e-05
1.3615093965893830156e-05
1.3503727660911964747e-05
1.3393667750305426835e-05
1.328836613328021584e-05
1.3195750469056088554e-05
1.3114820303966844752e-05
1.3053773032588960503e-05
1.3012803936370266093e-05
1.4224410762326252099e-05
1.4248012804743015678e-05
1.4248824575470952597e-05
1.4239146431042820208e-05
1.4217127458527621989e-05
1.4158551866892928522e-05
1.4041535930955863811e-05
1.3940873700862663778e-05
1.3868479241666702861e-05
1.3823453577788627833e-05
1.380022287751943057e-05
1.3789937448628702786e-05
1.3784555719227219243e-05
1.3790583005598421807e-05
1.3830719677149943999e-05
1.3922233154190810338e-05
1.401731878689381605e-05
1.4113798603256664949e-05
1.4212827600964041084e-05
1.4312876026862131169e-05
1.4411147689139824449e-05
1.4502692645767155594e-05
1.4581230304952400527e-05
1.464197671786126891e-05
1.4680462314397708834e-05
1.4698712456241742202e-05
1.4699790144323154176e-05
1.4691757499691293e-05
1.4677493197031944437e-05
1.4645986129624828271e-05
1.4566304352634097647e-05
1.44630999292068875e-05
1.4378194380228462768e-05
1.431497199427489184e-05
1.4462957975116835462e-05
1.44708201419481904e-05
1.4471917197897139927e-05
1.4467774729505165278e-05
1.4460024711307853281e-05
1.4450471176406162055e-05
1.4440215655623642378e-05
1.4429726240090675292e-05
1.4418867688112278264e-05
1.4406871636268542581e-05
1.439174439375317258e-05
1.4367557032065030398e-05
1.431493009433560213e-05
1.4204987865917378899e-05
1.4086079849809797138e-05
1.3971423441887269112e-05
1.3867910209026706848e-05
1.3778884757864703737e-05
1.3708199530546419351e-05
1.3663413462840966751e-05
1.4958452378516443461e-05
1.4980967475205743538e-05
1.4983535417370562334e-05
1.4974523807802026713e-05
1.4957229436658969792e-05
1.4917941624619747898e-05
1.4822431651382841417e-05
1.4715382739593493039e-05
1.4636336165258626005e-05
1.4585430274833273385e-05
1.4557946723625761858e-05
1.4545446628216322741e-05
1.453835408876618186e-05
1.4540982808535790361e-05
1.4576857156940585354e-05
1.4697474610991941127e-05
1.4837650644635178514e-05
1.4955771289564757901e-05
1.5053047309213014496e-05
1.5132612527582195376e-05
1.5198973636668131282e-05
1.5256286481972465322e-05
1.5305261349911222058e-05
1.5345005759917539832e-05
1.5372450342082569046e-05
1.5385916064701700916e-05
1.5386785133024056551e-05
1.5378647991553888973e-05
1.536602465604589013e-05
1.5345009235812875686e-05
1.5299662668333997715e-05
1.5210894129669699516e-05
1.5131317841249355594e-05
1.5235374731139204559e-05
1.5227361118042942752e-05
1.5216873326680864525e-05
1.5205629808827471856e-05
1.5193075861689909033e-05
1.5179506985025548554e-05
1.5166536855702574804e-05
1.5153423772154685039e-05
1.5138778752946344819e-05
1.5119975209198746369e-05
1.5088886835266372658e-05
1.5019429811032103788e-05
1.4908205340402356045e-05
1.4794352382017057155e-05
1.4683925533179151182e-05
1.458429892739982103e-05
1.4498644189411484027e-05
1.4431871300840733055e-05
1.4388679917967095502e-05
1.5681208077901298396e-05
1.5676608106064578152e-05
1.5664501753421964303e-05
1.5638900542028248496e-05
1.5573067523996625801e-05
1.5474909716296970539e-05
1.5398654472520537816e-05
1.5348272542850205721e-05
1.5320356707486013602e-05
1.5307158162791285704e-05
1.5299808970508562567e-05
1.5304698606738448833e-05
1.535224635734290993e-05
1.5488363522436766862e-05
1.5627322487534433122e-05
1.5745079330089500479e-05
1.5841579028246617692e-05
1.5917037868044065158e-05
1.5974336355725820359e-05
1.6016768500676121378e-05
1.6047281190661257688e-05
1.6068381276655856362e-05
1.6080684631119786433e-05
1.608488936189127495e-05
1.6081668657883257825e-05
1.6072684932013600226e-05
1.6060223528088181843e-05
1.6040353807769512092e-05
1.5998959678030563595e-05
1.5927688558253496828e-05
1.5866537150700021826e-05
1.5822495759022689568e-05
1.5994215925244691052e-05
1.5989339140750722393e-05
1.5982615863293211179e-05
1.5974273351089400189e-05
1.5964753298222331552e-05
1.5953993863047359652e-05
1.5942531742895111794e-05
1.5930637932993182076e-05
1.5918371783385313332e-05
1.5904121070881698934e-05
1.5882336778645926752e-05
1.5835867390440672224e-05
1.5726297172724973812e-05
1.5597305043567384511e-05
1.5477539712573943275e-05
1.5373092976697843518e-05
1.5285403400574680365e-05
1.5218600367884005541e-05
1.5177735131853810089e-05
1.6450750372165685653e-05
1.6434396616189566128e-05
1.6395281980650724409e-05
1.6303905168899049226e-05
1.6214483586255869067e-05
1.6151547924675346206e-05
1.6114281867112372051e-05
1.6096604597896303816e-05
1.6087499282520286033e-05
1.6086041925029621755e-05
1.6112426929350410598e-05
1.6207479971329556505e-05
1.6320207377386133533e-05
1.6423514203686339285e-05
1.6518869167689217156e-05
1.6607926435105885174e-05
1.6692066952012553241e-05
1.6771980916573759273e-05
1.6845859250273518084e-05
1.690918775301548352e-05
1.6956786767458384554e-05
1.6984880439584853893e-05
1.6994998765384785455e-05
1.6991023887299487529e-05
1.6979274162151088953e-05
1.6962733403328412004e-05
1.6931730757024381529e-05
1.6859702139319768433e-05
1.6772567257087681736e-05
1.670667939366607681e-05
1.6725142190396606357e-05
1.6730398462799672449e-05
1.6732399871123777076e-05
1.6730897752252919461e-05
1.6725818515001403058e-05
1.6717025990216204139e-05
1.6705035261919865973e-05
1.6692120796544810188e-05
1.6677161621400775099e-05
1.6655758029839302876e-05
1.6613789336012372964e-05
1.6512614869678064836e-05
1.6380273047596843829e-05
1.6258656786810799015e-05
1.6154001474174896097e-05
1.6070130830450677343e-05
1.6008451219911074877e-05
1.5971765610252384153e-05
1.7324999985353527394e-05
1.730078750689839005e-05
1.7232936488615161077e-05
1.7134936808758902295e-05
1.7064036221280990909e-05
1.7020022195993283174e-05
1.6997085882869612832e-05
1.6985811536608256465e-05
1.6979587967994216039e-05
1.6988735954916702522e-05
1.7046277136964472186e-05
1.7145650693671381801e-05
1.7235119011589073286e-05
1.7313534704044921563e-05
1.7382171665004176101e-05
1.7443319688694501564e-05
1.7502573571347602722e-05
1.7567221890402271741e-05
1.7640839703966746939e-05
1.7720796524779849164e-05
1.7797034515559897224e-05
1.7857719901487094995e-05
1.7893641294974595428e-05
1.7905495475908849118e-05
1.789938494536631974e-05
1.7885502476825825984e-05
1.786434044917567705e-05
1.7815812181893927861e-05
1.7394864980703934898e-05
1.7374675506718229457e-05
1.7359124648688202411e-05
1.7346293490422773776e-05
1.7338630502262069666e-05
1.7347599716100119257e-05
1.736283418577003155e-05
1.7367530793402952577e-05
1.736207470224710841e-05
1.7350210173195069015e-05
1.7333394332513543489e-05
1.7296290329107277426e-05
1.7199328878900982756e-05
1.7076622810956470935e-05
1.6974840148349128383e-05
1.6896740834079448349e-05
1.6840703914182013806e-05
1.6808227866130633164e-05
1.8060784905799484465e-05
1.8046078641849633999e-05
1.8006685220348215317e-05
1.7942108780515365977e-05
1.7898388970227677408e-05
1.787509725671042725e-05
1.786418624593097388e-05
1.7863040739747572204e-05
1.7897533761123677107e-05
1.8020903227595520563e-05
1.8147332038979547278e-05
1.8229512033957281529e-05
1.8272489408458804372e-05
1.8286895981708213479e-05
1.82843219540207212e-05
1.8275061086393048094e-05
1.8265406193019434727e-05
1.8259675627415869942e-05
1.8270842405094987152e-05
1.8337218201925502731e-05
1.8438297169744915854e-05
1.8521705863043207824e-05
1.8581587627901820106e-05
1.8613865211281901778e-05
1.8621958468331462918e-05
1.8613717259989042476e-05
1.8599198148101580641e-05
1.7852329149500144068e-05
1.7830233777767422019e-05
1.7815356973775153116e-05
1.7804494122313850292e-05
1.7805918215490844331e-05
1.7844977859021668453e-05
1.7899819983404407711e-05
1.7935952274534556751e-05
1.7953439456625128e-05
1.7955533774994639646e-05
1.7946431642427117248e-05
1.7931599322398093896e-05
1.7900719190612142168e-05
1.7825761313143755282e-05
1.7749094686976449016e-05
1.7694875987902072313e-05
1.7663931557586796896e-05
1.8529074010929046627e-05
1.8646939010601551771e-05
1.8719411087815509729e-05
1.876539221727814696e-05
1.8801523354669319628e-05
1.8840981677473684573e-05
1.8887929771746756667e-05
1.8939611990608962882e-05
1.8987810708441242341e-05
1.9024525675518894703e-05
1.904402688318658729e-05
1.9044585566489400497e-05
1.9030928417506027053e-05
1.9008457018250766573e-05
1.8953981555848366421e-05
1.8814026944725571072e-05
1.866845768728115268e-05
1.8568159101242643732e-05
1.8509510685487684398e-05
1.8481061367395002919e-05
1.8465999040459314424e-05
1.8471907162348745967e-05
1.85598302297947668e-05
1.8803419134833986514e-05
1.9025293816569739132e-05
1.9193445101571543878e-05
1.93113968910611898e-05
1.7562488676017483597e-05
1.7545077840642239048e-05
1.7535210497430545696e-05
1.7543323808009910489e-05
1.7614399096707011172e-05
1.7832642518703916166e-05
1.8065148087988466802e-05
1.8249567628275482678e-05
1.8384166216827491417e-05
1.8472747454956648066e-05
1.8523458232063732322e-05
1.8546629619015315619e-05
1.8552109406362490536e-05
1.8548406361462219777e-05
1.8539241291864706562e-05
1.8534805139829016647e-05
1.4662332630697132033e-05
1.4923955901947221465e-05
1.5129995942137398782e-05
1.5281754116544917421e-05
1.5384399808975325168e-05
1.544532357052502057e-05
1.5473973087691038158e-05
1.5480657556190925093e-05
1.5475033897815367994e-05
1.5464102600671753029e-05
1.5439243274740886572e-05
1.5368431093197651037e-05
1.5196399714516046686e-05
1.5010719614162662002e-05
1.4846806050400123558e-05
1.4709859009392310336e-05
1.4604948119770185336e-05
1.4531904008730293888e-05
1.4486318809884999134e-05
1.4460341576197787599e-05
1.4444044709157514652e-05
1.4432960900872722363e-05
1.4438768996817459973e-05
1.4498526371018282595e-05
1.4705284836142891171e-05
1.4991749310277621305e-05
1.5253387528608884562e-05
1.5480341093711280382e-05
1.4002671894458392738e-05
1.3992177164509463436e-05
1.3984611659618584724e-05
1.398676800378011707e-05
1.402172501379143618e-05
1.415293768468739811e-05
1.4344837888817421178e-05
1.4519105725402629435e-05
1.4673268814702209299e-05
1.480274350241912482e-05
1.4908698472064751058e-05
1.4982191423039438924e-05
1.5041811375333149066e-05
1.5062072078850423517e-05
1.5085158082841380051e-05
1.3915318316223121547e-05
1.4033277563945886768e-05
1.4129581641166640178e-05
1.4202707765019284916e-05
1.4253305693003055015e-05
1.428370046527496598e-05
1.4297680099855535722e-05
1.430025871046872479e-05
1.4295467503493157122e-05
1.4287284124391940775e-05
1.4276565582902686093e-05
1.4260634936207422261e-05
1.4234067327656783813e-05
1.4179666588078079794e-05
1.4110467996953419644e-05
1.4049425450994079879e-05
1.4000825499024691984e-05
1.3966118714521286005e-05
1.3942782531398754305e-05
1.3926517751170504453e-05
1.3913593443825697147e-05
1.3907419913398084049e-05
1.3923820453359211393e-05
1.4005694999306800175e-05
1.4154532113290523498e-05
1.430042657108599698e-05
1.443385651381386409e-05
1.3508438138469263222e-05
1.3501583404411020173e-05
1.3506198433202631557e-05
1.3549550577421216372e-05
1.3664934133958665395e-05
1.3777868173466504561e-05
1.3874559564813775434e-05
1.3954936826478345308e-05
1.4017656790546458877e-05
1.4065780324806889789e-05
1.409644768413475533e-05
1.4121322461898538333e-05
1.4125936722088380844e-05
1.4135638110876381994e-05
1.3290758844295374021e-05
1.3377726518203230836e-05
1.3459913909466404326e-05
1.3536159515420397579e-05
1.3604691999428959338e-05
1.3662961352709749953e-05
1.3708091610546646206e-05
1.3737947728574245694e-05
1.3752811778548110799e-05
1.3753966149386638216e-05
1.3746331572502534237e-05
1.3734186296769363404e-05
1.3711122605204151509e-05
1.3654598979605281586e-05
1.3574199338237286455e-05
1.3511873346604792376e-05
1.3470065216602824062e-05
1.3444948500930978971e-05
1.3429819792790219431e-05
1.3418893196195606015e-05
1.3417413049517010984e-05
1.3447519885109488776e-05
1.3533838388193334255e-05
1.3623707363142947214e-05
1.3711476042604927266e-05
1.3794517080895569563e-05
1.2974007113949689602e-05
1.2977994158650552081e-05
1.3021167013834205939e-05
1.3123105083656836457e-05
1.3215348404130361078e-05
1.329107171316401934e-05
1.3350678702742055877e-05
1.3394558706920161079e-05
1.3427503934855811445e-05
1.3446222882874098086e-05
1.3462991349883135565e-05
1.346578806629171011e-05
1.3472988041296279986e-05
1.2904651265480738645e-05
1.2973381207323422877e-05
1.3034741380716658989e-05
1.3085669895016377047e-05
1.3123802216690691016e-05
1.3147867752027571616e-05
1.3159294846195987002e-05
1.316007220131089991e-05
1.3154287756209978244e-05
1.314444501214598031e-05
1.3124964275454989484e-05
1.3077434883263777863e-05
1.3010230740403525316e-05
1.2957477958746465478e-05
1.2921638636700110054e-05
1.2901387628898921615e-05
1.2890131872989708068e-05
1.2883346041464753006e-05
1.2892909504444875687e-05
1.2952361851380026907e-05
1.3040413721359455181e-05
1.3118174147268547939e-05
1.318901546816912458e-05
1.3255475931454627583e-05
1.3317508778963352856e-05
1.2508834901563213238e-05
1.2520411792281760442e-05
1.257970905668976079e-05
1.2655336041484179665e-05
1.2717404216416718649e-05
1.2767589001155523477e-05
1.2805459466157990037e-05
1.2836428337745103777e-05
1.2855079194778464444e-05
1.2873685237057227879e-05
1.287955372925944754e-05
1.2889363826222900597e-05
1.2520441787770244835e-05
1.2562449569454333989e-05
1.2591745520573227035e-05
1.2609423750242822215e-05
1.2617261876183259468e-05
1.2617825249495304347e-05
1.2613848980515902833e-05
1.2607453153693219168e-05
1.259761649886456718e-05
1.2579245063367501629e-05
1.2539959693014643939e-05
1.2491880849341594918e-05
1.2452635667009745855e-05
1.2424703129201040351e-05
1.2408128701052387798e-05
1.2398528657638858554e-05
1.2392055726864328538e-05
1.23961444462852327e-05
1.2435780473831474868e-05
1.2523109300357607005e-05
1.2607230761558206001e-05
1.2686654433081451745e-05
1.2760827375948343763e-05
1.2827202795267480997e-05
1.2105609516507427774e-05
1.2142034035559908122e-05
1.216976661298545205e-05
1.2189445416684123233e-05
1.2200631066359067807e-05
1.2204074430907706304e-05
1.220059310971895819e-05
1.2192847285602860315e-05
1.2179779264107065814e-05
1.2154615948028912089e-05
1.2104232529082895544e-05
1.2054843746823389137e-05
1.2020005192760264051e-05
1.1998967559099258255e-05
1.1988337064701124577e-05
1.1981685838641945591e-05
1.1982133162328421601e-05
1.2008238244427654119e-05
1.2077376742109380219e-05
1.2142712138063442343e-05
1.2199899969858474737e-05
1.2252789583647114363e-05
1.2301751971802800094e-05
1.1736163274646189516e-05
1.1751659626531491516e-05
1.1758491098557736311e-05
1.1758120814782226915e-05
1.1752728654446818467e-05
1.1743562555388310719e-05
1.1727465507066182364e-05
1.1695038677853662097e-05
1.1637551082838359728e-05
1.1586879637667844514e-05
1.1550402114464372502e-05
1.1527866811423133806e-05
1.1516718270766724682e-05
1.1510242335591524903e-05
1.1509883374482979615e-05
1.1531771056493059891e-05
1.1603860600030226576e-05
1.1680381055545605687e-05
1.1747334290400465146e-05
1.1807914799675800217e-05
1.1862796487282027048e-05
1.1249405069890727876e-05
1.123410156461535493e-05
1.1203616731185981752e-05
1.1165323530810946035e-05
1.1130602644873609935e-05
1.1103383155962307625e-05
1.1084270400832807135e-05
1.1073439264339990406e-05
1.1066522115351455692e-05
1.1064710712101007007e-05
1.1079750332908683421e-05
1.1143065462588564607e-05
1.1229797239489965654e-05
1.1307084065627926516e-05
1.1377715496782875941e-05
1.1442868481060426982e-05
1.150102678871178281e-05
1.0787714608460969426e-05
1.0760434459336555929e-05
1.0739671097759981186e-05
1.0725390569063579811e-05
1.0716867100229481897e-05
1.0710639998527539775e-05
1.0710270409888502296e-05
1.0728219621173021691e-05
1.078836200344195663e-05
1.0859546865814721206e-05
1.0929286066612538413e-05
1.0996680144867048407e-05
1.1059079986152391131e-05
1.0459634952473524804e-05
1.0410976021798501435e-05
1.0363920095754811961e-05
1.0329377108492967369e-05
1.0307032353136613391e-05
1.0294169791523228186e-05
1.0287476013788990323e-05
1.0283333206249827964e-05
1.0286262483625945968e-05
1.0312155716540504435e-05
1.0387143436724236522e-05
1.0465458905167583254e-05
6.0925088257982411413e-06
6.0346936195487035429e-06
6.0131984685034207247e-06
6.0077491807547768547e-06
6.009831094996178476e-06
6.0140180171333585237e-06
6.0114342674012459167e-06
6.0035871299732677519e-06
5.9812784201822102146e-06
5.9650448240910878376e-06
5.9597492128949039543e-06
5.9621801923360726014e-06
5.9936978456496213451e-06
6.1264619660553256642e-06
6.4360502157446025458e-06
6.6774944010618718758e-06
6.8126197824209200826e-06
6.8630923060363608232e-06
6.8662265174597109918e-06
6.852689739465101338e-06
9.3446701561040861896e-06
9.2509293569093593195e-06
9.2086098084228577149e-06
9.1961624594478123633e-06
9.1931200105351330469e-06
9.1989128448797781115e-06
9.1964921103865929593e-06
9.1871330800493356732e-06
9.1531485389088834768e-06
9.09290681902142069e-06
9.0622781534691252661e-06
9.0537088880782746076e-06
9.0592632761676523885e-06
9.1124319852738174544e-06
9.3218239830911997376e-06
9.6906751914525533222e-06
9.9522230155033395159e-06
1.0090063420082650129e-05
1.0133563246328657816e-05
1.0128312992551334368e-05
1.01014998640274677e-05
1.0000523870196375894e-05
1.6536113511151198289e-05
1.6456949217267975027e-05
1.6420926106332692755e-05
1.640616766217398517e-05
1.6403757021844003343e-05
1.6437581607023964099e-05
1.6507755661820467177e-05
1.6559380843452235418e-05
1.659157250689211765e-05
1.6611951155919831507e-05
1.6629936079381024136e-05
1.6661286728740168909e-05
1.6734106434270877589e-05
1.6927696299083192996e-05
1.7295215307607439263e-05
1.7666383343715603283e-05
1.7975299127855131839e-05
1.8180691864434492727e-05
1.8279919626715709734e-05
1.8303297120257804097e-05
1.8287962799721740165e-05
1.82410711196383669e-05
1.8123399927693825267e-05
1.8032931630162696746e-05
1.8000481093366161109e-05
1.7992706389868057048e-05
3.6287033365837240227e-05
3.6304641861264778046e-05
3.6405450710739747716e-05
3.6689119828801822871e-05
3.7028412350585756683e-05
3.733617034812415945e-05
3.7567834582610920807e-05
3.7707154873614763481e-05
3.7778453621223147718e-05
3.7839330544609920705e-05
3.7973405389233504592e-05
3.8224263412804567732e-05
3.8607751404835283129e-05
3.9085714608438500129e-05
3.9603475700459512729e-05
4.0078624725021095437e-05
4.0445198300533684603e-05
4.0674137712948992343e-05
4.0772344721093625101e-05
4.0781362040844340317e-05
4.0749426518109485486e-05
4.0680620285382543353e-05
4.0620677334984501184e-05
4.0587160763305909366e-05
4.0583414090983949217e-05
4.065730042445407931e-05
4.0921466895395639939e-05
4.1248010467084815533e-05
7.3762206951906135813e-05
7.3823686750871137527e-05
7.3932023832179457972e-05
7.4079787474539955747e-05
7.4251245741929427732e-05
7.4424061534827341065e-05
7.45840852212703375e-05
7.4727015277402123665e-05
7.4863274555007219705e-05
7.5015011875565810432e-05
7.5198437422206699209e-05
7.5421708713136200006e-05
7.566720396785410062e-05
7.5906598397764541396e-05
7.6103283619473189301e-05
7.6228429392767100203e-05
7.6275305693697606903e-05
7.6263144650171111661e-05
7.6213194748026038519e-05
7.6154855237456025685e-05
7.6071423657958213188e-05
7.6005540687964928963e-05
7.5954450074595849639e-05
7.5921184054775916832e-05
7.5957722602866883997e-05
7.6062662237400433473e-05
7.6161433435986800218e-05
7.6243395607671440341e-05
7.6304055425221832543e-05
7.6344198923504973499e-05
0.00010722344286598174744
0.00010707255201009336395
0.00010690142488657041072
0.00010670757894478354565
0.00010650150674498713385
0.00010629683869120292621
0.000106101487733745826
0.00010591533420678344137
0.00010573593811610689462
0.00010556465181660596028
0.0001054049034586871308
0.00010525834793917932723
0.00010511612034663283405
0.00010495869674299129835
0.00010476793983817761448
0.00010453845095471330352
0.00010428234707107756826
0.00010402211306933052454
0.00010377837019821475623
0.00010356225565159098384
0.00010337408636834096278
0.00010320425587874655952
0.00010303821767072507084
0.00010286528926460288338
0.00010268242206709831614
0.00010249567296678227621
0.00010231309592573375414
0.00010213737084514930883
0.00010196276685854450375
0.00010178163233672760991
0.00010158923434583550828
0.00010138719433843463734
0.00012399645544932378673
0.0001236282200132291008
0.00012324064019707736337
0.00012283769587786169827
0.00012243489342018322604
0.00012204595002644088556
0.00012167280307798354502
0.00012130641785621831591
0.00012093665452894583568
0.00012056399857413825844
0.00012020034677383974024
0.00011985856792226520849
0.00011953969238511072057
0.00011922705948027835727
0.0001188998014384952135
0.00011854851202203539736
0.00011817969296031526332
0.00011780999387482651007
0.00011745484547780020174
0.00011712192544630126276
0.00011681177251108598757
0.0001165170852539390903
0.00011622612448778524155
0.00011592936176299160032
0.00011562468162670817742
0.00011531852143071166068
0.000115017648659124298
0.00011472064169438008624
0.00011441720693602556525
0.00011409753508376871813
0.00011375980805789321444
0.00011341184121239255211
0.00011306491198934163036
0.0001647439551010952631
0.00016386097409974118315
0.00016297547179839651102
0.00016207784083222494579
0.00016117204797958751476
0.00016028295055571102862
0.00013096202385253077416
0.00013053753657352881409
0.00013008817639220896368
0.00012962018231559891985
0.0001291525773920444947
0.00012870178001966276556
0.00012827072858801453581
0.00012784892232705087471
0.00012742445492136458135
0.00012699776778336203833
0.0001265833530848945647
0.00012619543615513531738
0.00012583525511035130473
0.0001254838711690564536
0.00012511727179599697901
0.0001247242711212521245
0.00012431272924609719564
0.00012390066239260282086
0.00012350452852432117993
0.0001231321941957372356
0.00012278356673638346963
0.00012245044039561111399
0.00012212025711554055853
0.00012178184187294840708
0.00012143302993104497533
0.00012108145871944699123
0.00012073541034701846511
0.00012039441040321617149
0.00012004860320098583717
0.00011968870965289426568
0.00011931384043983694735
0.00011893179405664616407
0.00011855460789530393602
0.00011819199100075791634
0.00016001342271095044521
0.00015914779905893918681
0.00015826082710931378434
0.00015735400298403883607
0.00015641903964137620839
0.00015547280502616045699
0.0001545494171926970286
0.0001268042069483172891
0.00012638203215047043412
0.00012593448980745085546
0.00012548057927305709155
0.00012504517171020983223
0.00012464119621321664215
0.00012426296963945942034
0.00012389393131499414611
0.00012352227578800613469
0.00012315112533333192951
0.00012279404107085506751
0.00012245720447105886905
0.00012212981423046157382
0.00012178711095554855962
0.0001214097014558086833
0.00012100085788582768428
0.00012058153317958901073
0.00012017590407464973199
0.00011979809914351915317
0.00011944745623615133972
0.00011911436469619179608
0.00011878330087750535557
0.00011843937368837124436
0.00011807349530041303515
0.0001176890478329601584
0.00011729712941041707335
0.00011690516781591186221
0.00011650924816342666265
0.00011609916892232616042
0.00011567063763860323613
0.00011523187014723614745
0.00011479894693362428055
0.00011438655381096983336
0.00011400257498296180697
0.00011364761929990135057
9.7811070800557653634e-07
9.8426310241341542369e-07
9.8788553705653081734e-07
9.8942618641672127908e-07
9.8951236563462723377e-07
9.8883543052162041004e-07
9.8767261546852861075e-07
9.84544762649593395e-07
9.7742690898216831086e-07
9.7224582175528262497e-07
9.6890020883054445897e-07
1.0115366026856608616e-06
1.0279224656023325442e-06
1.0682617513545314209e-06
1.0941279322275862453e-06
1.1036447247567863894e-06
1.1038163266353156398e-06
1.098960553273086105e-06
1.0754571517846714285e-06
1.0153412936074772233e-06
9.6437030139698399273e-07
9.3252676981546104367e-07
9.1759616833745780091e-07
9.1379414979402657283e-07
9.1444611467335325992e-07
9.2276770253180436752e-07
9.4498757689504541015e-07
9.59639520628177092e-07
9.6483710648788799961e-07
9.6453374326310849136e-07
9.6120380608809507272e-07
9.4672903400659621379e-07
9.1156900799954324156e-07
8.8312847699794523209e-07
8.6618571365993820806e-07
8.5884242429694443109e-07
8.572246876319137938e-07
8.5759532353272943877e-07
8.6121432060681426548e-07
8.6452985523829972612e-07
8.6490182040218215566e-07
8.6376709766940163069e-07
8.5860574498323362516e-07
8.396662102505123403e-07
8.0980009671023880985e-07
7.871671885596696521e-07
7.7297823443714595172e-07
1.0690286873099410413e-06
1.0427241026960977771e-06
1.0220417018566786291e-06
1.0071633509012124596e-06
9.9771523551467404321e-07
9.9268600106226388604e-07
9.9057796040556443581e-07
9.8984592601975511568e-07
9.9029632234796713584e-07
9.9532907971094286404e-07
1.0080443084234837859e-06
1.0187948513582114514e-06
1.0265192561534688282e-06
1.0314349474685009283e-06
1.0339000268098461381e-06
1.0344754946270998324e-06
1.0339360056847831704e-06
1.0328122622181445425e-06
1.0295104954857000286e-06
1.0227802265664298079e-06
1.0180619177322141018e-06
1.0398133407128918177e-06
1.0590466239033360504e-06
1.1072882425350284535e-06