/*--------------------------------*- C++ -*----------------------------------*\
  =========                 |
  \\      /  F ield         | OpenFOAM: The Open Source CFD Toolbox
   \\    /   O peration     | Website:  https://openfoam.org
    \\  /    A nd           | Version:  12
     \\/     M anipulation  |
\*---------------------------------------------------------------------------*/
FoamFile
{
    format      ascii;
    class       volScalarField;
    location    "0.016";
    object      k;
}
// * * * * * * * * * * * * * * * * * * * * * * * * * * * * * * * * * * * * * //

dimensions      [0 2 -2 0 0 0 0];

internalField   nonuniform List<scalar> 
106891
(
0.031792037631812396226
0.031517998320329386475
0.031207728141948068434
0.030869652566168533092
0.030513133578891474262
0.030156391198795255704
0.029800763649452527426
0.029497522073269742682
0.02920809731930911271
0.029024196676555157753
0.028883849139437228759
0.020682458677654495804
0.020866675120501745194
0.020986099829702436342
0.021046910620152382843
0.021063994173975583019
0.021062766644952893302
0.021040380613425380824
0.020945812754441409803
0.020686578622719730552
0.020426383130811704564
0.020237142020787142471
0.020117675528266883156
0.020061312262573079146
0.020045981204892964617
0.02004918137568495809
0.020072466391936678171
0.020165146255336253989
0.020475363803752776037
0.020980625359403964197
0.021451020621336198968
0.021869341506379001705
0.022232132671156160098
0.022534908170493365281
0.022774569527880705877
0.022951888313113715662
0.023065980259148310266
0.023129076479731315585
0.023150749709717914626
0.02315303565763615623
0.023143507372854664472
0.023091982334693603174
0.022922680235821064898
0.022722134145270290323
0.022576611226206518696
0.022483554372480452077
0.022439791666389301977
0.022428034932432068527
0.022432576168030304159
0.033449552334622753569
0.033492693571744405756
0.033516228497028809075
0.033527172989095334332
0.033531888156586156513
0.033533470635106935043
0.033533118139238128619
0.033529477399614690536
0.033515277025477741013
0.033471555704269843889
0.03333899043195650419
0.032995391720363191623
0.03257119435495550025
0.032141060742842009201
0.031722812943926176343
0.031322546955757556153
0.030983744825662545841
0.030680870668591510991
0.03048299877592567167
0.030345899050127984192
0.021925901786216280692
0.021979331836813675166
0.022000411081011455455
0.022003947710837325896
0.02199646024914380868
0.021955758461004705462
0.021810080951808787086
0.021553481567976963407
0.021343282811177546887
0.021195768625193425055
0.021113378358571601584
0.021081874655173943323
0.02107969961163226949
0.021091244557722783198
0.021153510089445944076
0.021391480932399894316
0.021956107584509498842
0.022495000837065758093
0.022946804793552065538
0.0233117486548186717
0.02360376970511022382
0.023833082447249808594
0.024008691602822464228
0.024135710214886585412
0.02421556709101351304
0.024258712821568349793
0.024273171112365762164
0.024274729420916754674
0.02426705730217141449
0.02422752296702993316
0.024095085716760021588
0.023917785131116427177
0.023777084469250420184
0.023681176255953933357
0.023628963877299326291
0.023611049564567578724
0.03502916864984866735
0.035117105343603023659
0.035177832738119509115
0.03521707287333544073
0.035238706237697599299
0.035248254530821920838
0.035252025059297462106
0.035252432755823605304
0.035250469974441506205
0.035240009039919480138
0.035202733798619559313
0.035082820494554141366
0.03472028885761855449
0.03418860420665285893
0.033678046997320486289
0.033191189408470572753
0.032777354835518947296
0.03240962134618276258
0.032155879223627115149
0.03198793096502334371
0.023110752443476795248
0.023174071602741992681
0.02319232245057585573
0.023191730897096217434
0.023165657990335812577
0.023050524392231548643
0.02278109101012972329
0.022550404101077326652
0.022394236830047476589
0.022312094117233789714
0.022287349424423803096
0.022289641316167570217
0.0223260630616668454
0.022485263387212621466
0.022918924566755389388
0.023372941466460763621
0.023764047564940712215
0.024098644045572232414
0.02438913796625009206
0.024643916309327999065
0.024875689171175194986
0.025086066996325134121
0.025269553324008580536
0.025417710288607987812
0.025518818008992489449
0.025576349884810656993
0.025596188189466503871
0.025598058414825566181
0.025584820805485648104
0.025517672627926785145
0.025308397851262803141
0.025073155316833482809
0.024889962964000065387
0.024758916136294210897
0.024676386411211871652
0.024634341120847960682
0.036913086603778552663
0.036971447674052845822
0.037008319521013827158
0.037027746957841965736
0.037035578055877024783
0.037038106668980774749
0.037037643817021029258
0.037035162495689881446
0.037024868493827536864
0.036990462011008036491
0.036883981045880705196
0.036556179069298234963
0.036009075291680771314
0.035473556876629668
0.034968239865892862539
0.034534265177745854247
0.034164915005625365318
0.033901956781638868665
0.033744767818160874284
0.024660542852994134233
0.024762912610430464627
0.024790907680830736454
0.024789047018955828044
0.024751070559192910742
0.0245906824712938607
0.024228722240569884605
0.023922015847684333784
0.023709422940874812918
0.023586956114624781089
0.023536197787515329011
0.023528422560453392254
0.023537142953457792366
0.02358462035181391539
0.023748485155229148713
0.02409105487801128237
0.024449584374226802225
0.024817142798795582131
0.025198994380098801993
0.025590468856677137111
0.025980903604879507229
0.026350470569227513185
0.026673529183689235339
0.02693017983972590193
0.027102761790600359004
0.027199271240593951571
0.027233197566490844471
0.027236781464995786506
0.027222074710288580307
0.027148084058402709162
0.026898819048431082956
0.026562991690048380622
0.0262943082035454051
0.026104088843725486296
0.038572758010459277933
0.038666724757573642246
0.03872454499083308882
0.038754690697635464647
0.038766135244092246592
0.038768519363474550354
0.038767484441322608291
0.038765096065361749622
0.038760170773479346584
0.038748380359031227294
0.038718908240101483631
0.03864041912677197016
0.038410086836805967803
0.037874370276763422161
0.037293879936674413644
0.036741310902689561235
0.03625214172533656326
0.035842707993529177024
0.03553150343367345726
0.035356180095130460006
0.025906746249709674407
0.026007953773991551727
0.026044596119769797965
0.026047676616156315715
0.026028507360432578954
0.025937054796644761628
0.02565106280614454573
0.025322204296358508113
0.025086354406045931198
0.024943655618347233133
0.024879053352784633035
0.024865169278441193179
0.024869838659055818614
0.024906892864464479087
0.025056032765450923783
0.0254972257361542054
0.026013061551071921251
0.026459090507765559847
0.026839752816548156922
0.027165120525820707353
0.027448522941946135179
0.027700798087945326803
0.027920560101509235562
0.028102517903957562051
0.028235527485563315098
0.028315695234885487896
0.0283512616948842118
0.028357851082892151368
0.028352746950946982468
0.02832037362885163681
0.028199731485782825874
0.027918047286983323912
0.027668154625917325273
0.040722899065513525063
0.04073634387342851132
0.040736782883280892031
0.040733798417952112036
0.040724458020633250155
0.040710114204010293404
0.040699173118679078665
0.040687319145835246226
0.040666834003327011204
0.040623345661854590172
0.04051361339939339723
0.040198773683512621646
0.039660584547447606807
0.039110886467962582835
0.038582734116651459799
0.038114356152834247271
0.037721903570329458344
0.037429512622320235127
0.037261261587116303873
0.027071843074928100131
0.027086755814635137679
0.02708110131120007591
0.027034337028469253295
0.026852166927069633096
0.026557775670106871513
0.026335908818538467796
0.026198746676972490405
0.026135403695991252238
0.026121405831303193268
0.026127598708665628058
0.026175332510314008871
0.026367336138589478334
0.026864222036246551001
0.027375280323245532871
0.027816804534438636237
0.028190502850174690291
0.028498360134146472067
0.028749328687645143293
0.028951503724436222775
0.029110574666574212666
0.029231628537397167517
0.029315644036951350043
0.029366533325025541423
0.029389829734713063952
0.029394374217417890138
0.029389965953799845194
0.029361938906994542592
0.029257281937522822829
0.029042662250557578496
0.028862965283371750519
0.028743255700705572231
0.042641760682709736741
0.042677067259478597416
0.042703146137619725498
0.042721190178640705559
0.042733357720279301073
0.04273905282767487962
0.04274083175366278492
0.042739819687591315556
0.042736068552716811875
0.042720709414752755517
0.042664154932442431567
0.042474840694024858234
0.041948192622114501005
0.041317780165872869391
0.040739401602804106717
0.040244275255600529817
0.039839414837100746436
0.039545218888605189467
0.039388517487523859451
0.028344225795815431584
0.02832585121635268835
0.028232153202322769064
0.027960213659170337491
0.027693829767835222155
0.02751591430334783539
0.027422671035003055168
0.027394284918389938399
0.027394892920607007841
0.027421967786433583403
0.027543946638865352688
0.027901239098256258586
0.028322097186996519902
0.028712258908037434357
0.029078320136250036809
0.029428661089040696747
0.029769758075425388488
0.030103347033246907749
0.030419729976220156314
0.030698352479536457349
0.030917553803142514696
0.031062803898124640573
0.031141279540990003671
0.031169280028774996871
0.031171131761299288726
0.031157691582826271132
0.031092520996654170878
0.030876898521288720367
0.030604365798694355139
0.030407972988582682855
0.044375523328390627242
0.044470411021346127611
0.044548516116087018279
0.044608207793475386505
0.044648761116096447044
0.044669019839473585176
0.044671239055181499733
0.044667395486544934913
0.044651300676509214638
0.044599559588854441328
0.044436936671595560211
0.043958445003189502986
0.043312980550324751972
0.042726575492905566334
0.042231455959721893312
0.041846925709375273894
0.041579633647552988185
0.041444693101196881935
0.029908079239193776505
0.029863028271779841483
0.029667907787846076878
0.029368675493022657758
0.029162271195774816523
0.029046988197343703159
0.029002591424065558151
0.028997411534311890585
0.02900932929657841497
0.029073838671149862534
0.029304561447592539225
0.029682669931234615529
0.03003009741955559031
0.030342565111095145397
0.03062482726593020177
0.03088483354751563395
0.031141751575529397211
0.031420421944513290957
0.031732436222905689716
0.0320686435620000862
0.032393236061301643181
0.032664250992121973693
0.032847180886672135147
0.032942643117826242438
0.032971067729880329522
0.032969048717129259551
0.032938595365356197753
0.032806885083458664498
0.045629207867182067226
0.045592822384666088775
0.045580335689243682562
0.04558158906790808762
0.045609090414121818136
0.045723188484023645495
0.045870928678020277125
0.045962694895693975705
0.045999880028819675748
0.0460020668327866325
0.045976949508971569347
0.04584390801286335887
0.045393962293290249232
0.044806105092413846258
0.044328930506738702111
0.043975999547992937477
0.043738323871915917029
0.043624497395031811009
0.030910114245501111446
0.030893570271068579447
0.030794430375827887281
0.03061088805569974966
0.030499704592205779952
0.030457633696815721025
0.030455957976751157901
0.030485768308137602134
0.030636926506195046038
0.031096665217052212038
0.031576960822573829635
0.031910116308853875289
0.032109093011185654842
0.032207458220690557416
0.032244274797811153799
0.03225590241930897939
0.032266033354185597037
0.032291794885269314852
0.032380199829363923159
0.032668036119419763263
0.033085523180066821192
0.033442948939131668384
0.033714820934651973383
0.033883277913169050632
0.033959960624167929988
0.033974909215754009462
0.033966998257967166708
0.045758601132963497293
0.045713862000215592374
0.04570511658945282385
0.045715836563860558217
0.045788230567670888671
0.046053363362413328452
0.046403015962196467181
0.046657010051221109448
0.046814622881403505916
0.046891656643071322197
0.046909522498823366665
0.046896026732851536778
0.046797706226253045492
0.046467557901152277411
0.046125067373723328823
0.045898186086583123156
0.045792422827046402878
0.030853619473593999617
0.031280375320329387168
0.031557278225563520357
0.031749164634088548886
0.031912254901122760753
0.032089593852672147756
0.032292460571974802852
0.032509319926376047116
0.032712019966744894373
0.032875524491663830895
0.032983382549814241336
0.033031601125537039809
0.033035578956539843332
0.033010979610700444398
0.03287370745100379188
0.03243708085024158555
0.031978437243310758875
0.031676968508754482778
0.031522606725954215035
0.03147752790289275876
0.031483186636207451115
0.031561447830210587195
0.031917013991666479122
0.032810978122492055753
0.033637073474361706138
0.034276888284536413676
0.034741150500669865098
0.042153005621810034353
0.04213004664989376119
0.042142759794813348939
0.042240692674465542267
0.042640465058445022051
0.043761422019549786611
0.044975221628023170917
0.045965107432866726678
0.046713491648688855451
0.047232897378070348715
0.047559743401860192502
0.047744426274253362608
0.047835876405251907817
0.047877493579472664431
0.047888286428529311389
0.047922125805287534017
0.025483417687059636142
0.026430677386115129096
0.027196830198251992911
0.027779340426119947943
0.028191167146523043313
0.028454050462841211366
0.028598316263126741243
0.02865913946613667454
0.02867186689927744489
0.028664154449404011249
0.02860723331850189427
0.02838538130233481116
0.027796698557743398234
0.027163802530892431492
0.026613784979650570439
0.026161456360463849341
0.025823440377474173035
0.025600056573952950645
0.025477826817168917894
0.025429959238122978177
0.025420781648152250554
0.025431020925035793118
0.025497692396395908038
0.025749204189394490905
0.026522230506067809991
0.027598667743606763308
0.028603603004242229846
0.029497503902527571346
0.035422220245826044338
0.035417248955881587558
0.035427702653775774988
0.035487987207398444256
0.03571511964127244837
0.036436107862027299065
0.037486994419981274629
0.038461716754907386562
0.039342454535585782982
0.040099418728010628732
0.040734340531850161959
0.041193449869339482383
0.041575981391671221199
0.041738689887660121447
0.04191494649803433753
0.02387945545035663128
0.024316257935503685778
0.024682827283544064162
0.02497225727848560034
0.025184715276556003671
0.02532613937523986794
0.025407983298904465719
0.025447334529277960274
0.025459279726190144066
0.02545989773044111254
0.025454118736573029536
0.02543299251542674444
0.025376308859104308724
0.025221435894365644426
0.025013197700313277022
0.02483367723957697476
0.024699093092545518213
0.024616107483735806538
0.024576993759770252024
0.024565915095696107956
0.024567297759560884768
0.024589813373284783588
0.024686694009878173278
0.025010237847002871753
0.025574510016578243937
0.026133855295992516193
0.026655623855608025219
0.03431258623791968998
0.034326949169210835278
0.03440054786358487382
0.034671916587282913813
0.035317699315324260767
0.035960051402859516401
0.036523148587773959783
0.037003991447070297416
0.037392635931994239185
0.037703323021831811057
0.03791874667084505629
0.038101014435193467089
0.038171342135005385809
0.038267538031017372946
0.022671822601458269802
0.022999597597069834642
0.023313541296796982949
0.023609213969645406056
0.023879415174648404435
0.024113886275570591694
0.024301258659796216854
0.024433855641160920347
0.024513706752088994939
0.024546836806095231193
0.024552030741712419643
0.024544872895047812472
0.024501905016971702728
0.024341435580366822117
0.024095768397628669621
0.023914322161233330516
0.02380591973293630717
0.023757736784838182076
0.02374655742733675079
0.023750972215286620531
0.023787145941202743338
0.023931501977086398758
0.024273321254486786291
0.024627379635816182279
0.024974847338287357867
0.025308875190439426156
0.032943099273349256417
0.033014971306282524244
0.033286359573222276675
0.033863653932236004174
0.034396963928177787251
0.034847331630374074607
0.035214559037689947829
0.035498499195788055238
0.035723444190676953425
0.035870745614729665496
0.036005970615523269496
0.036064539901154629709
0.036145588948387007144
0.02224763577491085248
0.022513630190303741269
0.022755329996984315771
0.022961272388915838355
0.023122078881787650612
0.023232225329221364157
0.023296719745880489771
0.023323576867948291741
0.023329011356685882411
0.023323967727041677866
0.02328994871388866475
0.023161431733230510716
0.022965687027405354281
0.022821348709711392067
0.022734986950578541659
0.022701315103822738289
0.022698339242097728685
0.02271162807377890766
0.022783315348970458597
0.023031929354657920683
0.023383890415707250798
0.023698460511423723868
0.023986532589294624895
0.024258359382946168004
0.024516047435810893462
0.031882963630182468984
0.031994969230641927271
0.032351115479988902524
0.032795228296299432091
0.033170341235774981892
0.03348352002960690299
0.033731115588239671266
0.033941275739626727836
0.03408479224019707321
0.034226996365118673993
0.034300116815713939389
0.034393885638497476154
0.021800724713090906259
0.021973456704008905577
0.022101353755124574646
0.022187384770584683835
0.022237389490508581436
0.022260493311610320133
0.022267550451146755908
0.022268185759664833878
0.022261295113967776577
0.02223041888326031737
0.022131511102031587584
0.022004488383368662335
0.021908373893439858637
0.021848995931245635688
0.021825712960660458017
0.021824705782140005339
0.02183472796045332967
0.021883519728596066006
0.022059217051999827075
0.022406826595606686714
0.022744141609263985454
0.023064261806718014403
0.023365340007074852924
0.023639719135423689633
0.021210247692109312351
0.021360859806934771876
0.021479822928747917959
0.02156924571124219786
0.021627855444770274079
0.021659754769230231408
0.021670046121852141324
0.02167052130491127146
0.021658924616226610943
0.021610380819496323446
0.021475083020745491108
0.021341762498539518927
0.021255825136033017209
0.02121396427923409253
0.021205890000571946813
0.021211662011778931181
0.021244376525661724797
0.021370058179480799082
0.021651669370779034335
0.021921248546343818225
0.022160980186497255401
0.022384655045547426772
0.022594852240639812235
0.020760851310171243161
0.020833237157490233638
0.020874735101239483975
0.0208922816127066098
0.020895964253539889982
0.020892222060682880819
0.020870676774674190579
0.020796455205802331923
0.020634875664779193938
0.020495449538098436254
0.020401901509559582093
0.020352758034132702181
0.020340755603123764766
0.020344716369083647861
0.020371572805508674636
0.02047871481704165858
0.020766853058442995283
0.02107400762290351573
0.02134789431825504652
0.021599739189258594652
0.021832274809946542599
0.01989894060991409877
0.019873959894443151558
0.019801072666612309914
0.019704074182966463402
0.01962036279926064955
0.019560978334098391013
0.019526463567122648302
0.019517407786468366632
0.019519816853773696436
0.019539464710827857824
0.019618956791842633025
0.019871187657603331389
0.020211334771056365528
0.020521013615449976847
0.02080925237867771796
0.021079915401669365588
0.021327233810943767994
0.019154302698227949203
0.019090516623471758678
0.019047530405774511231
0.019025509737455970766
0.019022491815286202144
0.019026970449912482958
0.019051757655540367542
0.019141467213396941294
0.019382878657109137155
0.019667714716232444216
0.01995118294194259817
0.020230189197357181796
0.020494387086855310465
0.018748409764777696634
0.018605170021909124556
0.018466686920090683716
0.018372027724155214068
0.018319443549462292864
0.018298801856528719434
0.018298398687587279221
0.018306345886379710858
0.01834027892135125723
0.018458291896990212944
0.018756542909816455861
0.019072743565386150733
0.011849629499117208045
0.011642805400561166695
0.01157737586225116716
0.011574066061687112925
0.011598789394738398192
0.011629990414869974952
0.011632874785830964182
0.011614410186923138785
0.011540540001376943871
0.011491057429420248326
0.011484627283281378246
0.011507472517800921424
0.011641118811533233621
0.012171476834518798332
0.013444680433762266208
0.014490667530743133948
0.015105264366011237134
0.015355344804879000192
0.015395707921218108535
0.015360036735673487929
0.028920365682253135892
0.02838839762815957915
0.028171214690775353562
0.028136761467175860213
0.028159725902122491326
0.028235135750594456128
0.028256482530265258218
0.028231291303380562363
0.028054567557530045441
0.02771879367601185265
0.027567566971653651581
0.027552229548943381332
0.027620207703680930283
0.027973260969820504945
0.029293474421709930766
0.031685043971414438013
0.03345335474066651188
0.034430229916636460874
0.034780279720956347456
0.034801524162029445764
0.034675137163092624448
0.03403980626131876408
0.093702765366070694952
0.0930149100975044274
0.092792819436095713703
0.092788054659352803277
0.092906872331139783716
0.0934290743958253872
0.094368181237710901943
0.095092831144334186155
0.095582197072683935946
0.095923844917388520481
0.096236496950317856891
0.096715828193448233341
0.097694419967117446246
0.10010210586625808982
0.10463201564427607182
0.10929538951615692943
0.11325798850964270692
0.11595997623798579013
0.11733580540346322252
0.11776671996766789607
0.11773030817406368587
0.11731291433742496721
0.11599280102566371375
0.11500809937165459851
0.11475095847338477595
0.11480492931730984507
0.46826025024928941143
0.46974512639741222708
0.47334236215417474503
0.48163710010813104434
0.49139940666000986313
0.50038094267075816646
0.50740114749524567461
0.51197364792954003221
0.51466741974732788112
0.51696663763914030287
0.52116190089507286043
0.52855887033859172419
0.53977563801251360331
0.55391420425335480271
0.56948438144279367457
0.58405592070667766702
0.59556422579231138581
0.60301716243777958582
0.6065678528758998711
0.60747497714961307125
0.60724464857692694864
0.60602996315244983538
0.60515379597727037009
0.60506997813766905114
0.60580509802950799347
0.60878897676852850029
0.61750804777360657205
0.62832721862607276986
2.0109763307002102017
2.0176262979736976355
2.0271440737472468108
2.0388844275342079548
2.0517765517375057271
2.064566632576885219
2.0766222385005330686
2.0878041186286679931
2.0985721247098139131
2.1098789786293639104
2.1223753221751224807
2.1366385869253279317
2.152179482269310995
2.1679721639921099019
2.1822265423272679818
2.1930995338904355485
2.1997065706993237377
2.2026796415055192035
2.2029590003843391166
2.2022314853548938807
2.1997260383073378165
2.1982372141308186286
2.1978606657651731382
2.1988054168838937485
2.2038931283773930403
2.2128933549335081388
2.2214432889972113294
2.2291100585026795144
2.2358464861297600024
2.2417374922620250111
4.4081979467579444076
4.4012872663718454191
4.3939782566847567224
4.3857464663676912764
4.3766071447302099529
4.3670073228005694688
4.3575531948827181949
4.3487335682435253048
4.3407821830520090245
4.333612438166526637
4.3268217417913286127
4.319822623379073967
4.3119118325300922479
4.3024341467454529919
4.2910502971975068576
4.2779137394060393618
4.2637253001268726749
4.2494764231830215451
4.2360731968237717027
4.224020331478814505
4.2133473303308379698
4.2036632062065999449
4.1944082603538381804
4.1851457294269946985
4.1756517931965415613
4.166021043509400279
4.1564747808293587283
4.1472572063978692114
4.1383544336223483384
4.1296398244056984339
4.1208392082422884428
4.1117349056055942924
6.1189470869960391752
6.0899252375298233986
6.0609858423304823205
6.0321020094107087317
6.0035354849651998421
5.975552529515332445
5.9481784583706893699
5.9211937653142712179
5.8942997034449486904
5.8673793274993153446
5.8406288777162727044
5.8143690497701348008
5.7887247385454632109
5.7634265328143543528
5.738057498897790154
5.7124460299052195467
5.6867247004954579737
5.6612824991232200134
5.6364872596490087631
5.6125180148831859128
5.5893906193429865326
5.5669275768072177257
5.5448520620583101604
5.5229285611807661382
5.5010573985266812969
5.4793566199352561341
5.4579389862733460603
5.4367540754946706016
5.4155017321342260317
5.393901643420429437
5.3718424966477451576
5.3495101985693311875
5.327187517161528163
10.445448105994344701
10.344107284429885141
10.244070423502137146
10.144995431191137669
10.047037141370847024
9.9512251397803197506
7.0957757263653471469
7.0587534550059203298
7.0215242955383319057
6.9841546265633356327
6.9470899124252429857
6.9107670793804079068
6.8753179323425754887
6.8404963791020554353
6.8059817052589455244
6.7717206252582640147
6.7380403085565330201
6.7053064116281175799
6.6736083077862806689
6.6424946612464834672
6.6113495419908803186
6.5798203029047019896
6.5481257843870546154
6.5167315834345567183
6.4860581948425579668
6.4563111326155153691
6.4274609439491987573
6.3992746658137251714
6.3714295611173357159
6.3436242678834613429
6.3157701248480089262
6.2880490596220539601
6.2606781543649221433
6.2336734371124142839
6.2068024653453299777
6.1798269870898634437
6.1526964629581257782
6.1255609107345732056
6.0987382493452999555
6.0724612575419634197
10.245757281620033297
10.144234985106294289
10.042055028803366312
9.9388775971238594309
9.8346339928064256952
9.7309688352115575327
9.6300856482118533108
6.936088917780725005
6.8987517501969310985
6.8610665957504188839
6.8245213798388135729
6.7902257115544406574
6.7582611685444025085
6.7278236721846882418
6.6980113922146360395
6.6684776195111137298
6.6395031486923050679
6.6113285771434586735
6.5834652879102062428
6.5547074287019455596
6.5239208341164349747
6.4909755658219703278
6.4570216250315972673
6.4236803658226895308
6.392136877552198726
6.3626046887689602372
6.334419658466874381
6.306541836910763088
6.2779410822419405847
6.2479888469681545971
6.2166259050275787246
6.1843555068617677151
6.1517239931529577035
6.1188896276032354038
6.0855192662062682629
6.0513254227921784434
6.0165573154346558837
5.982082162234117817
5.9488980231518970854
5.9176427573397782922
5.8883948819148068665
5.8607549984422862011
0.00021925137750185765971
0.00022236350687348461672
0.00022435446416003938385
0.00022540707670553385708
0.00022579569659798894303
0.00022583065948041219895
0.00022563982387082065842
0.00022455464062985633811
0.00022164876827104743658
0.00021961678406235687552
0.00021841955576716248571
0.0001453805256151495431
0.00015028642889654031693
0.00016254870538721265987
0.00017081638035618452206
0.00017409169174724731699
0.00017440533298190914377
0.00017311491075622551872
0.00016604238605427237862
0.00014820826871433625182
0.00013384157917438192407
0.00012527098593346133585
0.00012140361434776381251
0.00012051228128010765925
0.00012080483171103968383
0.00012313910004102288456
0.00012930658829956009339
0.00013356171276032502209
0.00013524243411510201052
0.00013539121778471274087
0.00013469286591835549663
0.00013090505351192970431
0.00012156070862564584151
0.00011424193021693541407
0.00011002931489319238585
0.00010828631612988175268
0.00010798337379385655732
0.00010817103277331908419
0.00010917193429459754112
0.00011010936280262306666
0.00011030899745134066796
0.0001101451475273365079
0.00010898961804381783437
0.00010442402966181209788
9.7300161442299450132e-05
9.2101361950610601383e-05
8.8964271518739468955e-05
0.00024554813235332415651
0.00023389343241277406305
0.00022497602384515363026
0.00021873992731504923238
0.00021492426945773272871
0.0002130397763696967664
0.00021242374371453960104
0.0002124098850903652488
0.00021290736670509833412
0.00021537577708558429293
0.00022124190806184406625
0.00022634545355787683224
0.00023015587845936762048
0.00023273154476419137646
0.0002342072477499826139
0.00023482156144260138788
0.00023491995605252205342
0.00023474671066439395557
0.00023358965496838652231
0.00023087415040714100514
0.00022906823039994304403
0.00014595004402344013647
0.00015154627800276210259
0.00016589335831450053964
0.00017635042296577303268
0.00018111901475936965531
0.00018207478083432916639
0.00018146722656928309931
0.00017730604877069075964
0.00016284898070538731123
0.00014709728407016778393
0.00013718074916323845492
0.00013223337108159028005
0.00013065346810651440432
0.00013063700480923855457
0.0001316417384649785883
0.00013521599158646622888
0.00013798457083520810794
0.00013879662233164604562
0.00013865385606273228705
0.00013709203353216088857
0.00013058962904535927844
0.0001217410819624221318
0.00011620089844556510234
0.0001136179425036934243
0.0001130055659031481332
0.00011316435075358134731
0.00011448485302814499765
0.00011736077866951631827
0.00011889236230532098423
0.00011924776304675495061
0.00011907385725416456273
0.0001177155263051279043
0.00011257691552363971574
0.0001063237623148859714
0.00010239569044280335164
0.0001005809540885734888
0.00024590105487120613283
0.00023691073411648532745
0.0002296984997793388402
0.00022474567445390216877
0.00022178324610053464579
0.00022039331269953845198
0.00022003446763588354945
0.00022010732074270424529
0.00022074578339542150554
0.00022319994092548755128
0.00022811453269630242485
0.00023230428341386213909
0.00023545169236116464937
0.00023751201703370097298
0.00023859340422298274732
0.00023893286616095911392
0.00023891141412196530668
0.00023847392512947886123
0.00023641345225871828318
0.00023279085689093654242
0.00023048853403363628854
0.00015253852943740160274
0.00016206759212736637711
0.00016956549486755868156
0.00017298724569283330894
0.00017366363182510127891
0.00017315966641458723722
0.00016974833307025868532
0.00015758706564946806062
0.00014359322605679916696
0.00013453155745741211683
0.00012983301363867755089
0.00012819417697642780185
0.00012809470206334285587
0.00012876465204047631572
0.00013173554255015669577
0.00013479776203785591654
0.00013598131498582878606
0.00013603140986106227058
0.00013529637374515868253
0.0001314892211763216026
0.00012479553078604041895
0.00012079023359258120524
0.00011933333440102528004
0.00011927827883236657102
0.00012018279782375043316
0.00012446573262469656741
0.00013008606562749395943
0.00013299934769683122485
0.00013386253751199444096
0.00013379993761898544761
0.00013263954064385755191
0.00012740731577429910567
0.00011863461049283499866
0.00011243755397908110837
0.00023511099534533213304
0.00022951755021051437511
0.00022630558351532310585
0.00022501979386578129395
0.00022486494223487388526
0.00022540058886958357857
0.00022858387235143211519
0.00023925719589566388354
0.00025109734339757902024
0.000259269105446714959