/*--------------------------------*- C++ -*----------------------------------*\
  =========                 |
  \\      /  F ield         | OpenFOAM: The Open Source CFD Toolbox
   \\    /   O peration     | Website:  https://openfoam.org
    \\  /    A nd           | Version:  12
     \\/     M anipulation  |
\*---------------------------------------------------------------------------*/
FoamFile
{
    format      ascii;
    class       volScalarField;
    location    "0.016";
    object      k_0;
}
// * * * * * * * * * * * * * * * * * * * * * * * * * * * * * * * * * * * * * //

dimensions      [0 2 -2 0 0 0 0];

internalField   nonuniform List<scalar> 
106891
(
0.031790464222099031055
0.031515995988423459173
0.031205489574407281606
0.030867241719077554568
0.030510644945747039669
0.030153894507166958266
0.029798436925784071994
0.029495412604717451827
0.02920638187914213757
0.029022977748325892722
0.028883010095688155944
0.020682963102519977272
0.020866915650394984166
0.020986067792626628137
0.021046641696690768925
0.021063569852333451082
0.021062270561222416754
0.021039694422972238241
0.020944599089208117831
0.020684844852032046453
0.020424997962921236094
0.020236109152950623041
0.020116967880085854375
0.020060849017024328517
0.0200456361947601025
0.020048871222545772836
0.020072274002984800967
0.020165423345167663577
0.020476947171047584634
0.020982269539907508898
0.021452488722893587464
0.021870623605231821751
0.022233227763530882121
0.022535788200415008548
0.022775197181468701674
0.022952229461662865262
0.023066036387206893116
0.023128891623707851372
0.023150407178683954368
0.02315263838676914071
0.023143019942023466962
0.023091155379661269798
0.022921281965114562867
0.022720921042282748309
0.022575634466280507934
0.02248282314587294467
0.022439282279018601257
0.022427677770364772003
0.022432342665004840337
0.033449862883782932599
0.033492869762681155843
0.033516315356302082973
0.033527211054595891515
0.033531905933975758582
0.03353348083110034572
0.033533123445740602164
0.033529443414925766409
0.033515122390059264024
0.033471067593012340802
0.033337488746141320795
0.032992524123686389759
0.032568269212164976945
0.032138134717163618914
0.031719969749853332841
0.031319956929644995891
0.030981474794243433341
0.030679069415230676016
0.030481752656985307282
0.030345044163673073195
0.021925812532273880606
0.021979080794958336803
0.022000030234182038624
0.022003486522339903153
0.021995889074736815066
0.021954907241003941698
0.021808537272300105442
0.02155196394484280159
0.021342049778007337463
0.021194866814013627043
0.021112772083770166287
0.021081466008899412551
0.021079360250950359562
0.021090993615778482612
0.021153625865191913458
0.021392888752231699334
0.021958273444603555735
0.022496702409900707492
0.022948132203098707549
0.023312761497566961144
0.023604533235622591342
0.023833628036167158609
0.02400902671977288988
0.024135826765690357454
0.024215480680289027532
0.024258464563905467876
0.02427281952775454596
0.024274337723955537877
0.02426658179142931332
0.024226777946960487142
0.024093823604178467995
0.023916606355230157765
0.023776086766311321785
0.023680395234415667349
0.023628395001984856677
0.02361064579627560403
0.035029779042711921277
0.03511752969128505153
0.035178104856764584596
0.035217224886445172571
0.035238771624245018854
0.035248275389428235238
0.035252032378065539797
0.03525244468260785996
0.035250469062054833047
0.035239915795917828301
0.035202335774778492627
0.035081475512847119791
0.03471688113333555592
0.034185079966874205859
0.033674641011041644978
0.033188081738227868944
0.032774631616147784086
0.032407427440607587676
0.032154354118694154774
0.031986866813327866077
0.023110741476801900662
0.023173831687539767077
0.023191918355751395958
0.023191237742101317859
0.023164902064835679596
0.023049073132564247557
0.022779361478275906433
0.022549032638522738259
0.022393238668209202585
0.022311439741769186623
0.022286920672313477454
0.022289310594264675341
0.022326018168225637839
0.022486125128955133934
0.022920711643564743026
0.023374356501637709449
0.023765179409973087588
0.024099551252055768924
0.024389882314664164398
0.024644551401566391902
0.024876246901255963384
0.025086533384468534535
0.025269894287615547041
0.025417877610773995795
0.025518792956112139325
0.025576150008107610689
0.025595860948298118642
0.02559767138596913405
0.025584287844097424597
0.025516688873316251823
0.025306773878114526694
0.025071750628475168027
0.024888797931247323009
0.024757996469052481747
0.024675695095093704706
0.024633838054971976539
0.036913476849905285659
0.036971680829207799468
0.037008428179057549501
0.037027770464552141327
0.037035564126848212474
0.037038091915199994331
0.037037643340122494706
0.03703516607803060412
0.037024803568775438434
0.036990139732414391294
0.036882854950684801354
0.03655292440607500748
0.036005474704880281733
0.035470056375167299811
0.034965043630898431926
0.034531499935293197279
0.034162709122315115806
0.033900458197279166594
0.033743687056540926095
0.024660780847398307974
0.024762746386757746031
0.024790464231534001943
0.024788463979842034063
0.024750142987222580743
0.024588848708512238417
0.024226623399165266026
0.023920385436011736002
0.02370825236418910506
0.023586183164610165924
0.023535699625366567761
0.023528040232007368243
0.023536842878871450102
0.023584598392214817936
0.023749288359615074173
0.024092189342362440446
0.024450747382782484635
0.024818356219089579562
0.025200249554541316599
0.02559172819883678146
0.025982109992373412372
0.026351543511216133503
0.026674385889184703408
0.026930741640525397707
0.027102991500017905441
0.027199189849199483654
0.02723288029714865735
0.027236347541392223748
0.027221463297456591907
0.027146990603312479151
0.026896795712414215546
0.026561181304442932349
0.026292859135062685016
0.026103004536137813796
0.038573428859202868457
0.038667121406232823899
0.038724725936204698606
0.038754719106495034986
0.038766080260015330083
0.038768445301489262711
0.038767418357951395624
0.038765055470437383145
0.038760142932178158481
0.038748310900701347925
0.038718672938192762178
0.038639659703158413251
0.038407617611342745323
0.037870473163688203599
0.03729012724899526815
0.036737822404716069524
0.036249099627070312246
0.035840241533545293129
0.035529811424603353898
0.035354926779714933305
0.025906916502066470315
0.026007796364359219571
0.026044171117001902599
0.026047104691371041757
0.026027713021565843793
0.025935711310149885123
0.025648916563775096822
0.025320454974550998112
0.025085071531070680939
0.024942788859498219584
0.024878488816099376263
0.024864749668818804385
0.024869489003106884373
0.024906812380756319231
0.025056821748258503724
0.025499289557677683182
0.026014810265807764011
0.026460500557866292737
0.026840836767794279405
0.027165938327977944
0.027449163243202713558
0.027701325685447905633
0.02792098819699320722
0.028102809175020147109
0.02823562141803556344
0.028315563980413644557
0.02835092615530691515
0.028357383729487276036
0.028352176525290494896
0.02831956860232856879
0.02819827542033391532
0.027916296177984405158
0.027666765275139264951
0.040722963205524702335
0.040736268974585224112
0.040736659968808534849
0.040733641325421565682
0.040724270593093657433
0.040709961743046134408
0.040699065754616063628
0.040687220246018819536
0.040666677253738042763
0.04062298294187065284
0.040512544067963791872
0.040195733338510113153
0.039657064004252486067
0.039107369990141041538
0.038579455111014952784
0.038111498698580423272
0.03771960944398070753
0.037427951359313364754
0.037260108006956130233
0.02707151546149639057
0.027086250751129616055
0.027080469655894820469
0.027033340900003796636
0.026850328902147359983
0.026556085211901555437
0.026334622522207775525
0.026197862146033479291
0.026134818923359320192
0.026120965377903093696
0.026127238241575888311
0.02617530989938331859
0.026368421535599737698
0.026866314151844712665
0.027377016211323688261
0.027818212683022400938
0.02819155715068960566
0.02849906881325051447
0.028749750579759796726
0.028951719120286295572
0.029110654822613886428
0.029231605530843637192
0.02931551204959336257
0.029366278729600944764
0.029389448259655927276
0.029393897417168756564
0.029389396251863660059
0.029361155198293919372
0.029255917926957055591
0.02904125431770181523
0.028861830397361842859
0.028742431415468536887
0.042641951400198239985
0.042677171645176190107
0.042703191815009623744
0.04272119849770992378
0.042733342109834690503
0.042739025667770810801
0.042740820666966918007
0.042739824094681515276
0.042736077898610010106
0.042720614149398594694
0.042663616008280988434
0.042472826133584003216
0.041944003449805415673
0.04131389201713678988
0.040735940627299106753
0.040241368870199398233
0.039837154471208779949
0.039543765104645023367
0.039387431843817800881
0.028343667540762750023
0.028325114533784737092
0.028230836071071963023
0.027958299247104360236
0.027692339967067575168
0.027514851607953246665
0.02742197565898966613
0.027393811321286171828
0.02739448346517391053
0.027421774265302793078
0.027544465478761132049
0.027902768028448144549
0.028323459941852112409
0.028713494291438632772
0.029079435514253730577
0.029429666087543233238
0.029770672317850199046
0.030104183451502473934
0.030420465816776359053
0.030698920557352120386
0.030917870626018657126
0.031062826450881382556
0.031141027462594523395
0.031168820245614958786
0.031170574921759376663
0.031156989971553153418
0.031091420389608881436
0.030875064551093393816
0.030602805468619018875
0.030406797116214401983
0.044376087936562405578
0.044470894700592199233
0.044548909602446638833
0.044608511135978176632
0.044648969844212453573
0.044669122684063367057
0.044671306295835613853
0.044667446039755753784
0.044651250844906023585
0.044599141356998557584
0.044435296877031744966
0.043954395908442696339
0.04330907024134032085
0.042723153455452266003
0.042228693368478488479
0.041844907603823436326
0.041578432006751042671
0.041443875161354962189
0.02990747578478318916
0.029862097303688703298
0.029666079007031161824
0.029367071858360731251
0.029161094181817802384
0.029046190644935271363
0.029002049001601654804
0.028996964750909209885
0.02900898575551339939
0.029073888560561814837
0.029305641037258127468
0.029683765283859103734
0.030031023817715940538
0.030343314706306523387
0.030625429403623026514
0.030885366773549097208
0.031142337224221796482
0.031421159749768091951
0.03173333092319511467
0.032069579684377104434
0.032394013197051402253
0.032664678482034768814
0.032847187024883310602
0.032942291538801508899
0.032970508955893762515
0.03296842582310578057
0.032937752060023625655
0.032805282063825109973
0.045628866329066257446
0.045592698037320744664
0.045580376047370828319
0.045581736441201912979
0.045609621424170805615
0.045724459595739952444
0.045871948018417721404
0.045963335837284166607
0.046000208793671282237
0.046002263524972698827
0.045976801507268794111
0.045842506159919207964
0.04539012855575295935
0.044802783659743057598
0.044326393699557105343
0.043974262518434614755
0.043737383022769839303
0.043623960546472689837
0.030909565709933570221
0.030892865422846985113
0.030793119096575536503
0.030609702286391097387
0.030498845502019270026
0.030457040962322365352
0.030455478301673229169
0.030485557488038841911
0.03063762745120377981
0.031098525142029074392
0.031578132055084515151
0.031910616203907830879
0.032109056889888319686
0.032207080556188601161
0.03224374427271364113
0.032255354791032482542
0.032265524203165432682
0.032291389566634721986
0.032380247666563076459
0.032669188622416751866
0.033086553792183448497
0.033443657310856168829
0.033715136092175912452
0.033883192635376126189
0.033959556792893266786
0.033974341283484262022
0.0339663234907033873
0.045758284957975417506
0.045713906954806295124
0.045705367499701061995
0.045716308679565144379
0.045789473743751134271
0.046056141842563763644
0.046405351692545997178
0.046658684014373341675
0.046815678242779296125
0.046892218842542084112
0.046909790499881268144
0.046896039539928574547
0.046796694105161421029
0.046465125085138288263
0.046123437447380281895
0.045897363304188892874
0.04579199360081206982
0.030855235733722587849
0.031281255567466137446
0.031557652658081976338
0.031749275319743218426
0.031912321420215022938
0.032089757239994035065
0.032292746912817346661
0.032509651783649042012
0.03271225542436759226
0.032875523561137064144
0.03298304894648246971
0.033030947365807097893
0.033034764541370859048
0.033009947710405260213
0.032871851830297421637
0.032434073425839635152
0.031976126563326129348
0.031675324165057062997
0.031521483114447058915
0.031476678685193951179
0.031482429792453303641
0.03156129430630782301
0.031919042670877667556
0.032814474596266310358
0.033639677450191737829
0.034278727865463917701
0.034742283074989346869
0.042153037303223561683
0.042130465506349273896
0.042143451274781466853
0.042242423509172628837
0.042645593137687232144
0.043770614020729833871
0.044982921407118278689
0.045971213320634807253
0.046717983340805686876
0.047235952757206774166
0.047561670113294179929
0.047745577343960933503
0.047836585080639253131
0.047877977039397487391
0.047888748045981768819
0.047922574742333884368
0.025487200470992572854
0.026433672881673895422
0.027198997240222622107
0.027780696782777929837
0.028191789741738512709
0.028454069919062508626
0.028597898128340074747
0.02865844898453228512
0.028671053687312354763
0.028663236904169261954
0.028605888388404481643
0.028382766067932371779
0.027792777222831004796
0.027160330442224329961
0.02661080051832934168
0.026159043630455004054
0.025821613199110041159
0.025598737842755542315
0.025476882159550798962
0.025429223632354926166
0.02542011532999686324
0.025430456090337994618
0.025497601304032054687
0.025750528448342597382
0.026526343274135586597
0.027602679640654926435
0.02860716508399774316
0.029500477663909355219
0.035422380802418156065
0.035417542428984961911
0.035428144145728694692
0.035488991712812605062
0.03571795175870787209
0.03644300554212549087
0.037493877430035696396
0.038468067897977194225
0.039348114525871641378
0.040104296570609883343
0.040738270984649438411
0.04119658309705882121
0.041578185156575395154
0.041740257860373837506
0.041916018959395846821
0.023880901584121767833
0.024317386246167468217
0.024683605904438236933
0.024972673374556029341
0.025184794010916999873
0.025325938784275376509
0.025407581145131179906
0.025446801985880691116
0.025458669220731599409
0.025459251317906252121
0.025453407016654810285
0.025432175579181946767
0.025375271928984147879
0.025219950462039748135
0.025011787700581551708
0.02483245484918687046
0.024698088437739743745
0.024615295087439540561
0.024576308711714591609
0.024565289116365199296
0.024566705137606691112
0.02458943181398902042
0.024686930883507537254
0.025012027938622293649
0.025576552404396563772
0.02613578306348491101
0.026657304415905271749
0.034312850341513878583
0.034327381771365093888
0.03440162910243967781
0.034675172544476634551
0.035322391949466798444
0.035964154492940790531
0.036526730641948286504
0.037007012350215744145
0.037395115222447851411
0.037705258652415807319
0.037920292533512069133
0.038102121325663665385
0.038172202306116988224
0.038268202638690823614
0.022672708875366938408
0.023000411125261053386
0.023314278541586522936
0.023609851470068873858
0.023879923172690071392
0.024114228297259020922
0.02430139565168551799
0.024433767455814225239
0.02451339783702772071
0.024546348447758013778
0.024551451073923338114
0.02454420618165297982
0.024500955659169206674
0.02433978914418792952
0.024094265854454233189
0.023913148007318162092
0.023805052753067278831
0.023757077742179593532
0.023745984790355910421
0.023750449331018611693
0.023786894602155446432
0.023932109523268130236
0.02427450583116295621
0.02462848553157430051
0.024975903958872301691
0.025309847207639825373
0.032943474140637155068
0.033015988204138917161
0.033289587698321146392
0.033867502539343778689
0.034400299308202805793
0.034850126833246258817
0.035216817669873216878
0.035500306359350891627
0.035724824661388071556
0.035871858206425265292
0.036006823511268104543
0.036065245389012484667
0.036146129047671782253
0.022248296193046031288
0.022514196996045746091
0.022755760920342728987
0.022961524519290038571
0.023122127563273357775
0.023232074437264552819
0.023296396725935388655
0.02332312567172624071
0.023328487509881364742
0.023323360605824291353
0.023289075299950202924
0.023159969616494194972
0.022964334094174223416
0.0228202769925499524
0.022734208530307997709
0.022700759595651810036
0.022697865884188640068
0.022711257986749913002
0.022783373976020780682
0.023032966320372119662
0.023384850111247718063
0.023699308016586796699
0.023987314406268250844
0.024259082418977426926
0.024516687663917111073
0.031883400978001769088
0.031996367956031182556
0.032354237590648073086
0.032797981266893080909
0.033172673590017520695
0.033485448128192374373
0.033732723771167101579
0.03394256463070619706
0.034085880807015411786
0.034227876338584241334
0.0343008613935193718
0.03439441274575968932
0.021801056887297547149
0.021973593361049193612
0.022101304090794235413
0.022187174448810017408
0.02223705573273847616
0.022260079107465094439
0.022267089574084887593
0.022267690034984011921
0.022260697003206434547
0.022229591490719582958
0.022130317001725654386
0.022003395065780074341
0.021907484051113007562
0.021848338845373915101
0.021825242609248850928
0.021824303573759463309
0.021834392778062230306
0.021883442691625763082
0.022060055630114813047
0.022407840609043834512
0.022745108605640169952
0.023065170419727200335
0.023366156322973539311
0.023640396000240027768
0.021210488350201023994
0.021360973314400753809
0.021479814756444181451
0.021569118285044146244
0.021627607841193059734
0.021659389969655728353
0.021669576127114568292
0.021669973870267290883
0.021658216437497143647
0.021609370759747087432
0.021473799671352673119
0.021340746456902509598
0.021255102476181848836
0.021213483584209581745
0.0212055276642471556
0.021211348933956514218
0.021244230617494645058
0.021370576716047542942
0.021652476527123196148
0.021921893709157588143
0.022161532524374083497
0.022385146573691235006
0.02259529543163573892
0.020760806525232603642
0.020833051374971846975
0.020874421231957179801
0.020891859520098442216
0.020895458487118125784
0.020891615614211413166
0.020869879675231878258
0.020795260507667206323
0.020633599999210432141
0.020494439090056357916
0.020401182354700064803
0.020352284822276058007
0.020340416647709472914
0.020344427214504409024
0.020371430918318965408
0.020479146702970404265
0.020767907470035353035
0.021074849998414534741
0.021348606395912041872
0.021600354820409381484
0.021832809354294595294
0.019898360063476755455
0.019873197122113096108
0.019800044549214832618
0.019703085501772733129
0.019619515380810803595
0.019560321030682600862
0.019525994400613203711
0.019517068860108795214
0.019519541620917839342
0.019539325284475016209
0.019619251469910187896
0.019872361971818370413
0.020212396962062440658
0.020521931362361783141
0.020810059114659294754
0.021080610734016184266
0.021327798823596089139
0.019153507073716050796
0.019089860976213308269
0.019047024844255796422
0.019025130678211311236
0.01902218236626499262
0.01902671282231101213
0.019051657928106396911
0.019141844636793352297
0.019383853893362952558
0.019668606571167829983
0.019952016923562489875
0.020230938875672298954
0.02049501757762371007
0.01874760510762330315
0.018604092112863273439
0.018465825523637405953
0.018371373940184374668
0.018318971327870692267
0.018298460755214920881
0.018298107271286431774
0.018306109765580759474
0.01834020040476387961
0.018458806139840442523
0.018757620900686968607
0.019073643238651159099
0.011848145027192695175
0.011642029574206949269
0.011577019481576807103
0.011573848802358141161
0.011598745127629518648
0.011629852171253972359
0.01163267303073609038
0.011614048893451710265
0.011540000678360688713
0.011490735904779168439
0.011484417351289745793
0.011507476760690618992
0.011641952884808924595
0.01217515897190656407
0.013449732803145677401
0.014493869157903262884
0.015106768609565555603
0.015355659079336796483
0.015395566150175746256
0.015359620675292813899
0.028917437377924206515
0.028386934464507313641
0.02817077671743916864
0.028136774722278257849
0.028160010129280356461
0.028235499336082652
0.028256641803726317147
0.028231207736017074894
0.028053373372879216591
0.027717917634317801312
0.027567375507270099055
0.027552375054024167561
0.027620952887364748352
0.027976080443299584932
0.029302654179738762963
0.03169386420192877446
0.03345916969622131365
0.034433038051629914766
0.034781130288135272965
0.034801814978218700847
0.034674591282041894447
0.034035894466294798477
0.093700075282652714459
0.093013926871454197243
0.092793273092997494156
0.092788902976753892538
0.092908659446750765931
0.093433483019717170071
0.094372511065209080394
0.095096311591722895717
0.095584930348344240847
0.09592620830011609756
0.096239068368174224277
0.096719612237256183396
0.097701238711920587732
0.1001181699894590077
0.10465203607114809126
0.10931438752454410157
0.1132728512063409243
0.11596921129448872767
0.11734008954292544924
0.1177681250944053043
0.11773087998629221118
0.11731115380734340181
0.11598936218500532913
0.11500874145880299326
0.1147543292462295389
0.11480944950927611525
0.46825285358367907396
0.46974551142800069492
0.47335691196114210166
0.48166738101768880043
0.49142909392778943989
0.50040556184263296213
0.50741740146023006641
0.51198140863621466323
0.51467051108273909055
0.51697250776818248763
0.52117801467241153812
0.52858933776880967503
0.53982003500731978729
0.55396771251477106013
0.56953906415966382148
0.58410235544452504541
0.59559581902598013325
0.60303164010107868087
0.60656793925289143043
0.60746747161715797247
0.60723437626158294211
0.60601831769203851064
0.60514982103986636464
0.60507216329219515316
0.60581731679549633007
0.60881914044170470923
0.61756382122442377014
0.62837744374706239192
2.0109677630521325398
2.0176340661970253443
2.0271653254158321644
2.0389149549899712177
2.0518103972794978773
2.0646000352073827777
2.0766542396192204656
2.0878354136704420085
2.0986052106253518801
2.1099173361368910307
2.1224218109078982764
2.1366932234334496954
2.1522381042194766998
2.1680272632070014538
2.1822701685365570867
2.1931271551583511048
2.1997187735261793939
2.2026805856706586084
2.2029550906313586367
2.2022226178599830781
2.1997142835861143162
2.1982337185577289773
2.1978645115023129897
2.1988237894937716632
2.2039457511679052537
2.2129567594807628694
2.2215105959389420676
2.2291737640194972947
2.2359005213290386038
2.2417799363460853002
4.4082167482559189153
4.4013061658782275387
4.3939904478846143476
4.3857509760613266891
4.376608614660498553
4.3670111431594307305
4.3575620628987223881
4.3487461560146742912
4.3407969230810472538
4.3336295108646458729
4.326843681261045127
4.3198509635831934261
4.3119418701064819999
4.3024565724300822822
4.2910569249526062663
4.2779040252887909901
4.2637067947668612078
4.2494592023123098912
4.23606483362954922
4.2240233825236472853
4.2133605101929259007
4.2036820005550374901
4.1944282703625903608
4.1851649618620374582
4.1756716327257858978
4.1660455660945618916
4.1565060815182350851
4.1472918866568937446
4.1383848065426374063
4.1296589263260417013
4.120845638169148728
4.1117321400845856516
6.1189605536786979556
6.0899305859202579327
6.0609739936808351146
6.0320781678094448353
6.0035110863128595682
5.9755359767234139667
5.9481692156679502048
5.9211847012623435305
5.8942851248939156505
5.8673624302493303517
5.8406195377637102339
5.8143750194711678603
5.7887419580601502389
5.7634407207296600717
5.7380553867778596455
5.7124250118957737854
5.6866929629592863904
5.6612521919280220928
5.6364669986569122528
5.6125110030098355196
5.5893955702880981917
5.5669382916181531229
5.5448619840122743696
5.5229332874907264284
5.501058177062223109
5.4793590186844820522
5.4579457923686653942
5.4367603164405231553
5.4154978339053414516
5.3938816142455525693
5.3718083302750008201
5.3494695667749061485
5.3271500595599610151
10.445475139961283517
10.344112369511840654
10.244049742610776832
10.144945262787871343
10.046974926892499269
9.9511827405148185477
7.0957843053761253671
7.0587413660033888618
7.0214858216365865218
6.9840998597971664097
6.9470357404325397965
6.9107248008144521734
6.8752857458989495854
6.8404636006692882688
6.805940973405271599
6.7716776713010959909
6.7380089841905439485
6.7052958460834926058
6.6736125053475578994
6.6424941094086387139
6.6113275568517186898
6.5797745398697413677
6.548067264211123728
6.5166761026733110995
6.486016269403368284
6.4562866478746769872
6.4274513856915254095
6.3992716569766292523
6.3714234309252839594
6.3436081887728468232
6.3157459235210051673
6.2880243876300525585
6.2606572631193442291
6.2336514300448762071
6.2067698478883750468
6.1797789982616437854
6.1526366876051250543
6.1254993083857129932
6.0986858799439289669
6.0724255945315483984
10.245634532332550393
10.14399607239967338
10.041735949449416054
9.9384930245403833027
9.8342136746787183199
9.7305638929569973072
9.6297185737505763825
6.9358359533070705893
6.8984437227651040914
6.8607480909838542971
6.8242420423648235683
6.7900107264579681043
6.7581023776991147045
6.7276953619860648814
6.6978960875843105427
6.6683810554327269671
6.6394408057532849909
6.6113015488425572741
6.5834447422124995342
6.5546491178047014969
6.5237959047925464517
6.4907979751567443927
6.4568373791534172668
6.4235374513244538619
6.3920587316756005691
6.3625833766895869559
6.334427855457552603
6.3065455433380801509
6.2779130148522357402
6.2479180499169801877
6.2165201757319357156
6.1842336536049709039
6.1515967966513738219
6.118749661488146252
6.0853517099066856133
6.0511277860242440596
6.0163490771342784669
5.9818952849753177503
5.9487591249851092812
5.9175609793745564957
5.8883601019745235305
5.8607429976268727856
0.00021927516946075521938
0.00022237952954782950251
0.00022436348725836496973
0.00022541074191591249296
0.00022579600038464346635
0.00022582964583936528656
0.00022563612129710306441
0.00022454014903140230575
0.00022162866785835799895
0.00021960499193263144499
0.00021841483947752170333
0.00014538711042796733015
0.00015032460681357491246
0.0001625951829549144266
0.00017083710488865577574
0.00017409497094849645297
0.00017440207076897695673
0.00017310090746379831186
0.00016598535569550479244
0.00014813079226207084144
0.00013379252373974843829
0.00012524495664096373343
0.00012139442307133581442
0.00012051159244605774636
0.0001208085143903181002
0.00012315871190768325118
0.0001293318735677502539
0.00013357280437211957198
0.00013524376078377395674
0.00013538873074300894852
0.00013468433447106714857
0.00013087305222745482898
0.00012151941172181817828
0.00011421628962055998906
0.00011001631129306189613
0.0001082820765372534004
0.00010798286237710849579
0.00010817252285953875344
0.00010917697957994126434
0.00011011079345406745149
0.00011030806271634253761
0.00011014221949439109076
0.00010897865301199934529
0.00010439169760311067781
9.7271894953232247282e-05
9.2082536805986167552e-05
8.8954435881431171101e-05
0.00024546289688193704713
0.00023382282362651647428
0.0002249237686287374003
0.00021870506217962763134
0.00021490424741614250637
0.000213030591330928815
0.00021242088112684545296
0.00021240914527329785911
0.00021291333376756977464
0.0002154046966089881443
0.00022128046036897462689
0.00022637430310657415317
0.00023017639290701897236
0.00023274435200065229251
0.00023421356841107652332
0.00023482336827649049151
0.00023491971656500236715
0.00023474383955097408204
0.00023357485453603989427
0.00023085762851755031754
0.00022905936801540508667
0.00014595823269898810398
0.00015158985898714214631
0.00016595077221564962845
0.00017637873466139255001
0.00018112586116730508036
0.00018207159114378882554
0.00018145783813293219194
0.00017726999728977197736
0.00016276923072376390579
0.00014704155255835721426
0.00013714902158685088893
0.00013222011925099734649
0.00013065107366736395007
0.00013063775839040908276
0.00013165053908432332525
0.00013523197442041133662
0.00013798989517242323086
0.00013879529498461365541
0.00013864963893484228341
0.00013707662211155861149
0.00013054702889381177705
0.00012170881266137971238
0.00011618293240394344916
0.00011361110252017753511
0.0001130044309355658004
0.00011316569539861006549
0.00011449535617022350311
0.00011736994291642718273
0.00011889514890414199302
0.00011924709006754649816
0.00011907093551035074174
0.00011770285690653393593
0.00011254484531186938277
0.00010630021850489678869
0.00010238268214500444663
0.00010057652107497240318
0.00024584680612101968535
0.00023685379639200917351
0.00022965630191976922647
0.00022471773134323077734
0.00022176717799016537809
0.00022038599957345148764
0.00022003188177801923488
0.00022010673570508837243
0.0002207515020819146329
0.0002232257792533688277
0.0002281423951269026312
0.00023232641253919490091
0.0002354669701211411191
0.0002375206646777955398
0.00023859651674379260284
0.00023893252662879980856
0.00023890981704959325118
0.00023846731964282064055
0.00023639016437478402571
0.00023277105896796364791
0.00023047774877909442881
0.00015256370990006606859
0.00016210892894771633055
0.00016958522955229471765
0.00017299115826443448724
0.00017365986918546597755
0.00017315078620968395217
0.00016971766268514065041
0.00015751704695716970957
0.00014354251167477958856
0.00013450166493848128894
0.0001298196479888794714
0.00012819091498293992346
0.00012809460953404865199
0.00012876970747538387264
0.00013175027352034832887
0.00013480409272286170228
0.00013598078802862657421
0.00013602865947635246649
0.00013528774689665679413
0.00013145963792514803875
0.00012477139182721748369
0.0001207781865936950592
0.00011933029545031948067
0.00011927834440382082965
0.00012019050936875583279
0.00012449212936940410538
0.00013010333054438587329
0.00013300584770199250901
0.00013386272641961535095
0.00013379786724493816894
0.00013262792626691621151
0.00012736780605592670584
0.0001185996295543234884
0.00011241475096363997145
0.00023506454300450756699
0.00022948704777710974938
0.00022628981929664538004
0.00022501461852625243031
0.00022486442370626201861
0.00022540789915436978052
0.00022862256427538880563
0.00023934451904424321818
0.00025116046518619441607