/*--------------------------------*- C++ -*----------------------------------*\
  =========                 |
  \\      /  F ield         | OpenFOAM: The Open Source CFD Toolbox
   \\    /   O peration     | Website:  https://openfoam.org
    \\  /    A nd           | Version:  12
     \\/     M anipulation  |
\*---------------------------------------------------------------------------*/
FoamFile
{
    format      ascii;
    class       volScalarField;
    location    "0.016";
    object      p_0;
}
// * * * * * * * * * * * * * * * * * * * * * * * * * * * * * * * * * * * * * //

dimensions      [1 -1 -2 0 0 0 0];

internalField   nonuniform List<scalar> 
106891
(
99470.146503093405045
99475.714601503990707
99478.995755834679585
99480.250996223825496
99479.873194245883496
99478.325955823092954
99476.056783732710755
99473.462204996991204
99470.768093087055604
99468.078155476949178
99465.225627534178784
98999.532581882449449
99015.053633432413335
99031.523786160789314
99047.865295045892708
99061.140916374759399
99067.657629158929922
99065.921666718932102
99057.752204173346399
99048.661984684717027
99044.968734873225912
99050.895633606574847
99067.018292243927135
99090.430929377442226
99116.487890432588756
99139.773145484010456
99155.223722224924131
99159.566512526624138
99152.645391137659317
99137.485527996803285
99121.356597496705945
99113.020741845859447
99119.238888523250353
99141.383163033999153
99173.61310610617511
99206.552831877823337
99232.079361561089172
99247.587070476758527
99255.569094317048439
99260.434902163950028
99264.350275258620968
99265.521947528832243
99260.196456919322372
99245.744683395605534
99223.314524527930189
99197.528602296064491
99174.669704716216074
99160.396796658707899
99158.204833790208795
99392.787482652434846
99394.353607554847258
99398.263213944082963
99404.267593701457372
99412.057759848248679
99421.275520132563543
99431.481659049037262
99442.187813569369609
99452.863351391803008
99462.926727525613387
99471.759041997953318
99478.784779689463903
99483.587970111417235
99486.008836888198857
99486.194976745144231
99484.526645317862858
99481.565944026282523
99477.854885023829411
99473.872531557572074
99469.898463672187063
99020.999319129390642
99044.201281560090138
99066.160539008968044
99082.208318017481361
99087.720475680063828
99081.810185217502294
99067.762090453528799
99051.850452580401907
99041.469464257737854
99041.186012108140858
99052.025246080418583
99071.597946333800792
99095.139010000784765
99117.495679187064525
99134.069612159059034
99141.787184596716543
99140.59397761017317
99133.386799129846622
99125.388644324339111
99122.794782253869926
99129.945050646652817
99147.618045742885442
99171.380018394236686
99195.315747745247791
99215.380782595457276
99230.631801396753872
99242.324546220246702
99252.081580242680502
99259.023286560346605
99260.584215101218433
99254.412215222997474
99240.343751002190402
99220.955193515212159
99200.46120337973116
99183.483436083406559
99173.506926316593308
99401.835798654996324
99401.705633467863663
99402.526477344261366
99404.484688692944474
99407.815889540142962
99412.803537619882263
99419.646505018885364
99428.366667856418644
99438.727232749544783
99450.121510474928073
99461.591132800924242
99471.990723527196678
99480.245158259262098
99485.578841004113201
99487.722970867296681
99486.921855477543431
99483.841839111424633
99479.28897412691731
99474.087244507012656
99468.969299660733668
99026.488052972403239
99055.113229414302623
99081.765726049648947
99099.211228475774988
99103.11489221850934
99092.991819444359862
99073.487577346488251
99052.508962148451246
99037.617155618470861
99033.322739179013297
99040.566095249756472
99056.742290642359876
99076.982186623921734
99097.06478405566304
99113.809744504935225
99125.542983991312212
99132.19454362714896
99135.628043417222216
99137.840719225161592
99141.083948837709613
99147.168494481316884
99156.023927838323289
99167.394886209498509
99180.424061375146266
99195.180258443957428
99211.312047817918938
99228.24196762451902
99243.09581517209881
99252.130215905010118
99252.756371053648763
99244.681600864205393
99230.75715714902617
99215.156747892076964
99201.644377189470106
99192.375058528821683
99188.242388649028726
99404.4041690780723
99402.353518530289875
99400.544223681412404
99399.687004136532778
99400.560515207514982
99403.855074053397402
99409.97211647000222
99418.903143441100838
99430.164236776181497
99442.773522634219262
99455.341227607947076
99466.358200762071647
99474.536791979509871
99479.108378909644671
99479.950391722566565
99477.633047591967625
99473.130311261236784
99467.540986779800733
99461.964084938532324
99063.099753059606883
99091.247949766373495
99108.95310221008549
99111.084041641108342
99097.718714949965943
99075.09954819297127
99051.589988603984239
99035.161363894527312
99030.228439180369605
99036.289220377380843
99050.038359267069609
99066.801521656248951
99083.436560961577925
99099.373372056215885
99115.072559295251267
99130.52421767503256
99145.126735704063321
99157.37919982263702
99165.039810691159801
99167.075173277480644
99165.451908098912099
99164.236967055752757
99167.977150100647123
99179.025266819095123
99196.724379643434077
99217.196860979194753
99234.224371771357255
99242.440758184093283
99240.134468930133153
99229.499602976531605
99215.933831352551351
99204.81951244326774
99199.032333037204808
99198.200046194571769
99403.338855910595157
99400.35353871154075
99396.124256532348227
99391.412539972065133
99387.130392274048063
99384.322813150036382
99384.032222687121248
99387.012140530918259
99393.478473148818011
99403.043679437134415
99414.823075327105471
99427.571986597584328
99439.815494258393301
99450.059034321762738
99457.16616883239476
99460.597161058787606
99460.556273981026607
99457.796616782055935
99453.364158622629475
99448.522854111273773
99068.031247853825334
99093.674684899480781
99109.448648029036121
99109.980063740542391
99095.87458078347845
99073.275676434117486
99051.354620089259697
99037.859135955426609
99035.904631440935191
99043.45872849211446
99055.991214866109658
99069.221543078674586
99081.709026731317863
99095.883320933324285
99114.530012959628948
99137.531848008977249
99161.153083249912015
99179.631572389698704
99187.762062704074197
99184.559670175542124
99174.194288233644329
99164.599635050733923
99163.243567971192533
99172.801742532450589
99191.055726986072841
99211.214965870516608
99225.53289394438616
99229.156708905153209
99222.221549814479658
99209.243802177166799
99196.933015348564368
99190.552796447373112
99191.666377218192792
99387.04908090326353
99381.300357114290819
99374.684084481777973
99368.207831834224635
99363.029604047478642
99360.21903716516681
99360.539259423676413
99364.291289291970315
99371.298044764102087
99380.931251027286635
99392.190327365155099
99403.831889200038859
99414.586483345759916
99423.422505540263955
99429.662329117432819
99433.092504475207534
99433.873275430814829
99432.492931151922676
99429.927198711229721
99089.938341921559186
99101.225293286814122
99100.938194719041348
99089.328835048858309
99071.782141005780431
99056.630542455081013
99050.121814378115232
99053.863459556145244
99064.34641228930559
99075.948489835005603
99085.669851037688204
99094.461399004125269
99106.407701493910281
99125.082787335995818
99150.425868561200332
99176.839711361695663
99195.855514720533392
99201.370372375822626
99194.019237048545619
99180.379937000121572
99169.734328173100948
99169.042617360159056
99179.035120339292916
99194.939768255848321
99208.980858218666981
99215.137878937501227
99211.413108964086859
99200.356900899671018
99187.088629805875826
99177.579129173740512
99175.654104975459632
99181.460279872393585
99362.455945675887051
99355.282772972917883
99347.529035108920652
99340.225242823638837
99334.383870938065229
99330.813641054177424
99330.012128237096476
99332.184608199400827
99337.22786954062758
99344.664596142276423
99353.764897823595675
99363.741306191892363
99373.827402144495863
99383.339906455745222
99391.697582710563438
99398.516378167478251
99403.562707789737033
99406.682344372879015
99408.163902718210011
99089.141880899274838
99089.305781013914384
99084.400121710656094
99077.527706447290257
99073.509025776744238
99075.445287627604557
99083.743339491134975
99095.383837809262332
99106.290710273300647
99114.670095198132913
99121.959071414748905
99131.36969432249316
99145.819421213658643
99165.096554304822348
99184.656284919925383
99197.787729455783847
99200.48181161606044
99194.047484318303759
99184.818366447972949
99180.222403058156488
99183.401011984766228
99192.574255671934225
99201.707113177326391
99205.280611679103458
99201.180498116169474
99191.17564890095673
99179.116208010891569
99169.378320873118355
99164.416307181309094
99165.62219850254769
99318.116481143981218
99309.665049265749985
99302.46680642933643
99297.31153311599337
99294.699768455553567
99294.875838065927383
99297.727083673627931
99302.802930150020984
99309.516767917186371
99317.282328882211004
99325.635651669072104
99334.303764158277772
99343.157230619166512
99352.025094929456827
99360.691953435380128
99368.938838745045359
99376.350489672549884
99382.629975626987289
99085.764313858555397
99092.095938612372265
99099.272249065237702
99106.059927262554993
99113.458096289483365
99122.009520992942271
99131.748115513488301
99141.539034237255692
99150.291997252395959
99157.532170131686144
99163.342331514373654
99168.764630469609983
99174.222530352941249
99179.48021032923134
99183.27879998741264
99185.256770277075702
99186.077393258892698
99187.530962797245593
99191.758560404297896
99197.483572068100329
99202.192666218499653
99201.340227002641768
99194.15805591645767
99183.040471836968209
99172.072812825383153
99164.258748937863857
99160.985819445530069
99161.298050454308395
99274.720624085704912
99266.048951834512991
99259.628584566424252
99256.282334115167032
99256.329953446489526
99259.556303004021174
99265.27663365250919
99272.564639254836948
99280.494058722659247
99288.307377020770218
99295.5990698930691
99302.392453802545788
99309.074833118720562
99316.171278945621452
99324.118041432710015
99333.099677944366704
99342.763285999099026
99352.605569534774986
99119.791650054627098
99137.757647394682863
99151.64006372600852
99159.173869035264943
99162.452159510590718
99165.401428638899233
99171.142894687698572
99179.409242613182869
99186.864516941670445
99189.409054401898175
99184.446193370240508
99174.237379573343787
99164.208248951283167
99159.837898029829375
99163.583058444550261
99174.399410243087914
99188.07594673676067
99199.169825136763393
99203.405504017151543
99198.769393120033783
99186.879070439637871
99171.665827575969161
99159.35847457870841
99153.958061929515679
99155.712293025106192
99161.459971284013591
99167.304999787622364
99224.530662605364341
99220.84337869459705
99220.661689170985483
99224.155696885034558
99230.854180631344207
99239.767500955975265
99249.610813198829419
99259.081069865176687
99267.179200820144615
99273.443227908792323
99278.011525596521096
99281.618646980132326
99285.410758056081249
99290.582181350124301
99297.994055092945928
99307.700147236595512
99319.290872693876736
99143.10841406538384
99164.091533285551122
99183.807253941704403
99195.160879118891899
99196.60406286115176
99191.572680786150158
99186.882297164818738
99187.686833281870349
99194.076840582216391
99200.558189373594359
99200.065211431021453
99188.817716414487222
99169.736026354468777
99150.959130594259477
99142.020209963535308
99147.700723689471488
99165.01661966239044
99185.009191765318974
99197.064509693693253
99195.246901196092949
99180.493684253407991
99159.416196334670531
99141.001178711259854
99132.184503764030524
99135.570123860554304
99148.101651508346549
99162.78195037090336
99194.156533926114207
99198.52657708323386
99205.517246506307856
99214.676409559047897
99225.02600743919902
99235.273166993662016
99244.117598705852288
99250.594238644232973
99254.372126359783579
99255.850389987099334
99256.058050056351931
99256.390893405434326
99258.313849972328171
99263.10715566194267
99271.293649965780787
99282.743956953650923
99180.104044722291292
99196.010690938535845
99208.625754089269321
99214.266176686767722
99211.694179225334665
99203.986402803377132
99196.375436009067926
99193.362717840136611
99195.22685020652716
99198.381058636427042
99196.749051604812848
99186.407772610938991
99169.071266339116846
99151.765715688583441
99142.964624075117172
99146.840049569451367
99160.908418516861275
99176.80825409933459
99184.470949783106335
99178.843809762751334
99160.324610838812077
99137.036667686043074
99118.786973235793994
99112.862626646150602
99121.031861170820775
99138.687740370616666
99157.653825180983404
99170.531221674798871
99190.520477241982007
99199.552831099383184
99208.604541744949529
99216.995468760316726
99224.006682846069452
99228.989720273588318
99231.578337038852624
99231.862460602380452
99230.39075401503942
99228.130690843856428
99226.346603834681446
99226.368059292799444
99229.377502629489754
99235.90041913256573
99245.97459774359595
99208.745558256050572
99214.061447337502614
99215.269296883023344
99211.592933132487815
99204.447628492460353
99196.81617280964565
99192.054522908918443
99191.302166075605783
99192.668273142247926
99191.865200115280459
99185.468176001682878
99173.635062295899843
99160.570567491420661
99151.645566770399455
99150.714090644367388
99157.005354902241379
99165.604693557994324
99169.694089913857169
99163.762126691581216
99147.974150371039286
99127.789991278375965
99111.436497431714088
99106.162641027884092
99114.210371988301631
99131.65754537419707
99150.80879401936545
99164.124469081361894
99197.071043226809707
99204.464328785586986
99209.572404599224683
99212.342423945985502
99212.869934416317847
99211.468663030362222
99208.646208654477959
99205.019647461012937
99201.376170529038063
99198.684800847360748
99197.921363321278477
99199.918135809726664
99205.053937488002703
99213.450152524572331
99206.013463776325807
99204.729536694241688
99201.796804143916233
99196.847665909692296
99191.18952724346309
99186.94765046685643
99186.144558841377147
99188.164225857311976
99190.165955357559142
99189.038338491664035
99182.835491326419287
99172.432765787772951
99160.730918000292149
99151.737725999133545
99148.048225117294351
99149.379765425663209
99151.899153446429409
99150.716449859595741
99142.67204499845684
99129.346188149240334
99116.699631574141677
99110.853833576664329
99115.232154910656391
99128.5917626178707
99145.123546134447679
99157.251781426923117
99197.608032554082456
99198.872298183006933
99197.19382063447847
99193.437529118236853
99188.508408053166931
99183.169352440585499
99178.068576074787416
99173.810957315072301
99170.94766658237495
99169.945032593095675
99171.241205881684436
99174.947157494636485
99181.710820037973463
99187.767019650636939
99186.653154507745057
99184.661885206500301
99182.247435536613921
99180.900438123819185
99182.574311879856396
99187.245843240933027
99192.966455590285477
99196.259351835324196
99193.07928652917326
99181.583475982959499
99163.853921581190662
99145.13371042397921
99132.095715789590031
99128.504353636031738
99133.477782781934366
99140.999940192006761
99144.147618871065788
99140.41874726646347
99131.864761420481955
99124.892139191870228
99124.394047883470193
99132.079730500277947
99144.205561770766508
99153.931473441567505
99184.273070791328792
99178.908509074608446
99171.800881346687675
99164.240631026521442
99157.20879725755367
99151.363946260011289
99147.07963970390847
99144.457962406435399
99143.473382219002815
99144.418856834599865
99147.443883694126271
99152.40295593519113
99169.445811012279592
99170.812301779791596
99172.557615950121544
99175.875295429883408
99181.574552690348355
99190.013828257971909
99198.979505782874185
99203.944108549549128
99199.64765148848528
99183.43617114542576
99157.647468698225566
99130.055743556411471
99110.56336820202705
99106.063714896386955
99116.446691690434818
99134.096155991268461
99149.200748727642349
99155.108581263353699
99151.80221912554407
99144.699495117049082
99140.566988838967518
99142.760494976624614
99149.9166861455451
99156.008617116516689
99156.973656487476546
99163.678417418559548
99172.386848792113597
99183.029455109979608
99195.103809291424113
99205.268119071828551
99208.475564304710133
99199.582858052890515
99176.325001235542004
99142.843351519986754
99109.244310436799424
99087.507370473162155
99085.225409234815743
99101.408690920041408
99127.703503907250706
99152.514128785871435
99167.212838550025481
99170.303559020525427
99165.89785450839554
99160.885255852277623
99159.614423150065704
99161.708310953617911
99162.953729799803114
99170.079943322212785
99185.392296351346886
99199.640633711591363
99208.616245604702272
99207.004233332510921
99191.068424438344664
99160.64123451008345
99122.349601955036633
99087.381433261165512
99067.328605786431581
99068.219573669077363
99088.632380718481727
99119.603321188988048
99150.021475506902789
99171.584602403992903
99182.350102333177347
99183.847263715739246
99181.844913609165815
99179.739761746968725
99177.385575321284705
99173.099852298182668
99198.545461656452972
99175.072741434196359
99139.492920234479243
99100.326651361916447
99068.512995948782191
99052.908115700876806
99056.972278171917424
99078.16128202258551
99108.680064049331122
99140.064517318198341
99166.27239945466863
99184.09468491881853
99194.479603978383238
99198.693714893626748
99198.068399164054426
99192.952048340986948
99182.964430729625747
99054.990686794742942
99045.140698491682997
99051.351570916100172
99069.952937447058503
99096.04387907187629
99124.171253499356681
99151.531459424557397
99175.771738231822383
99195.297996316861827
99207.345329388685059
99210.236253813563962
99203.452047924642102
99188.568033817660762
99042.725281235732837
99049.905608995759394
99063.793858305580216
99082.228173620227608
99104.4471827041707
99130.383079739811365
99158.947676142357523
99185.879815408436116
99205.284526851348346
99212.103028700759751
99205.209592256767792
99187.180278360989178
99175.800168926769402
99161.368509737716522
99147.800248339757673
99139.561717525619315
99142.798413329161122
99160.454188261923264
99188.24563716474222
99214.583411039115163
99227.096817079946049
99220.783995584366494
99201.063151780166663
99179.935955476059462
99168.479261794913327
99171.214572911965661
99184.234665358177153
99199.321134750542114
99209.224828223246732
99211.581568263034569
99210.503367818979314
99213.285888811631594
99194.983161704993108
99180.741591113022878
99166.997219366967329
99153.089687136452994
99143.059122329272213
99143.944080303015653
99160.291210214825696
99188.232381835390697
99215.790063168940833
99229.300772109738318
99223.051414805857348
99202.644793398620095
99180.158189580208273
99167.263505347305909
99169.119874366122531
99182.466244930590619
99199.735572651727125
99212.785284576064441
99218.011377007729607
99218.697856077502365
99221.713298320988542
99232.385535684181377
99240.902567004843149
99217.328970574846608
99198.823539224191336
99185.014465652435319
99172.034495685991715
99158.092178365128348
99146.39647875407536
99144.955298977161874
99160.047443500181544
99188.097057499049697
99216.697752164996928
99231.147476753321826
99224.846538651036099
99203.712937493721256
99180.134246898960555
99165.944346877280623
99167.063112326344708
99180.873907119283103
99200.257696917324211
99216.226207755724317
99224.258014730949071
99226.492219011430279
99229.52554794952448
99238.85076304487302
99253.25824946515786
99264.561864314338891
99274.768000042022322
99248.593679903176962
99221.973305028077448
99201.91930598471663
99188.64548093501071
99176.59837716621405
99162.62462541127752
99149.505912266467931
99145.811147363347118
99159.605381589426543
99187.834322418813827
99217.383899729073164
99232.732298898263252
99226.417220063536661
99204.411530716446578
99179.806740330270259
99164.584173571478459
99165.09019355053897
99179.429642645962304
99200.766013829343137
99219.412213915973553
99229.990060395444743
99233.524924923418439
99236.493651341719669
99244.529835630062735
99256.468329496536171
99264.332882271541166
99259.011489494238049
99299.773313542857068
99283.784543086134363
99255.298505548606045
99225.795554543234175
99204.279851307743229
99191.392572179873241
99180.515153955871938
99166.474014806604828
99151.999129168470972
99146.346211433512508
99158.907313455900294
99187.551075582858175
99218.16638053956558
99234.304594660818111
99227.940358624822693
99204.982687709838501
99179.247457412537187
99163.093355147051625
99163.032129462590092
99177.97404820677184
99201.096179385232972
99222.267864754307084
99235.121891397502623
99239.721231961942976
99242.442934451755718
99249.328331203258131
99259.310512829833897
99264.215981274785008
99255.49537489071372
99231.136850873270305
99302.988150321296416
99306.877776530949632
99291.206595429262961
99260.687302008343977
99228.619425877957838
99205.863798459962709
99193.468804292395362
99183.739006458796212
99169.707491465029307
99153.982273672067095
99146.556522211103584
99157.99206652767316
99187.181436556813424
99218.982980521104764
99235.798340166453272
99229.305118557138485
99205.404899651766755
99178.557769419188844
99161.639823693185463
99161.121898210549261
99176.638294931908604
99201.362459331008722
99224.715641951042926
99239.374109031603439
99244.781974271230865
99247.230972939592903
99253.308531647708151
99261.787677998960135
99264.498977735202061
99252.98442871926818
99225.788151596410898
99189.582148417903227
99306.259875463831122
99312.673201277691987
99297.018220838741399
99264.742498881736537
99230.608940311489278
99206.86094108656107
99194.821365533163771
99186.130033063309384
99172.313634187084972
99155.259460664950893
99146.439106435631402
99157.040734853551839
99186.853343534559826
99219.918860719670192
99237.30184872134123
99230.484347854275256
99205.729234575293958
99177.844603182005812
99160.239717169140931
99159.41729369998211
99175.425703580447589
99201.413768589904066
99226.66440641565714
99242.774400092777796
99248.695271725402563
99250.92722534413042
99256.326299502819893
99263.831931194697972
99264.830726951156976
99251.07840216771001
99221.836607407327392
99184.174669073472614
99148.086478271143278
99303.713869545448688
99325.862709225475555
99340.198887201186153
99340.916188304006937
99330.019661508267745
99321.103034586936701
99308.733102739541209
99316.808193385993945
99301.013337256736122
99267.397445704482379
99231.828388897862169
99207.385241956348182
99195.685676698689349
99187.776670889084926
99174.130970182057354
99156.053601924912073
99146.176219686618424
99156.267809595025028
99186.559293381054886
99220.661663749124273
99238.471298938937252
99231.390847574366489
99205.923565374556347
99177.217557534953812
99159.106046218512347
99158.155762183028855
99174.531327030883403
99201.412268095591571
99228.064893551621935
99245.148312865159824
99251.318716265217518
99253.374118125720997
99258.315876546461368
99265.213449744944228
99265.129946827000822
99249.965306629615952
99219.278215467711561
99180.480114199934178
99144.017473759216955
99118.595535905769793
99272.159570161020383
99305.448603331868071
99327.379162229713984
99341.391816815710627
99340.500643195555313
99328.261317968965159
99319.524032612884184
99310.383953962867963
99319.029613685823279
99303.081256390447379
99268.66383557181689
99232.294408683184884
99207.557308408577228
99196.147352692802087
99188.532052927213954
99174.996667709667236
99156.377049124450423
99145.875313631695462
99155.802892859952408
99186.457416437784559
99221.263077441224596
99239.252396774259978
99231.874381659814389
99205.953041866494459
99176.748134342939011
99158.38207468498149
99157.407042837774497
99174.034964381557074
99201.405202176640159
99228.905379874966457
99246.476478550597676
99252.637934011712787
99254.581500810832949
99259.383326430761372
99266.035492989103659
99265.425124126777519
99249.416903300851118
99217.845735103313928
99178.549251748889219
99141.909541756016552
99116.654147063934943
99108.363789667913807
99390.614516289919266
99383.452386711491272
99376.28660638902511
99369.479481471469626
99363.609997978375759
99359.292146009640419
99357.007535632117651
99357.048122505424544
99359.417186054241029
99363.911216826541931
99369.887070081327693
99023.013332892704057
99014.209051352925599
98993.061291869191336
98967.983861610744498
98949.121666306178668
98942.095460760756396
98946.137117908248911
98956.323998060324811
98969.185010040149791
98985.062722003727686
99006.216695719776908
99033.556227180844871
99064.676194507614127
99093.885831660911208
99114.935579574754229
99123.664985855561099
99119.651334255104302
99105.45439024954976
99085.633056896404014
99065.273754502166412
99048.503277820040239
99038.265039916906971
99035.669805650264607
99041.158328960649669
99054.75467584868602
99076.299193105427548
99104.836107670416823
99138.19077465753071
99171.881542205446749
99201.016398264880991
99219.957711897237459
99225.437016187381232
99217.51596461115696
99199.608889926763368
99178.441156764471089
99161.583701242663665
99426.055131230037659
99434.433229585541994
99437.765184876378044
99436.840745033900021
99432.730871293300879
99426.44890936576121
99418.812838935627951
99410.470652508432977
99401.911970950008254
99393.437264081978356
99385.233806513948366
99377.51777920369932
99370.632194744888693
99365.060727185627911
99361.356654412666103
99359.996235472601256
99361.191922832003911
99364.82146834199375
99370.397439585489337
99377.264656007289886
99384.558619930889108
99018.772376435023034
99015.521550975099672
98999.584293014471768
98978.679245998690021
98961.518056304252241
98953.520637411231291
98953.761505543719977
98959.311187019382487
98969.094110315374564
98985.095194410343538
99009.626883275937871
99041.606261928027379
99075.833025331128738
99104.502186814657762
99121.484016262373189
99124.53459068039956
99115.959188820212148
99100.384517520506051
99082.317807306797476
99065.422291191047407
99051.675961616478162
99043.022947306075366
99040.858080571255414
99046.282177509900066
99060.695397012110334
99083.712709724160959
99114.188565784774255
99148.978729436930735
99183.271732391600381
99211.346555141877616
99227.640329687346821
99229.119719558744691
99216.328980242135003
99194.089987503262819
99170.804253823662293
99154.868007311612018
99403.513089582178509
99414.085317446108093
99420.141615665430436
99422.260188714688411
99421.244481792571605
99417.870031784914318
99412.772900105934241
99406.408750984017388
99399.145856091257883
99391.342088366858661
99383.410083316775854
99375.909438716582372
99369.527191110275453
99364.944168897200143
99362.69790898336214
99363.114653939323034
99366.223025756960851
99371.700626524921972
99378.833856398268836
99386.716588741794112
99394.423582716248347
99021.36757846333785
99013.258338331128471
99000.655196503837942
98988.96008098013408
98980.823161170032108
98976.175390429722029
98975.213779691068339
98980.42734436954197
98995.181948493162054
99020.574366875982378
99052.754921518149786
99084.07432864443399
99106.660241538105765
99116.213309308455791
99113.493344209768111
99102.708453148283297
99089.489139143784996
99077.02865613855829
99066.755072016327176
99058.559458277770318
99052.678327543937485
99051.272431004428654
99056.696451446259744
99071.168591638299404
99095.004321237531258
99126.128799929749221
99160.209886639888282
99191.980961585810292
99215.791180056650774
99227.36230301654723
99224.478835450587212
99208.824616405850975
99186.476551454717992
99165.482891377847409
99384.001602729069418
99392.290940990569652
99397.579401611103094
99400.319547715465887
99400.975224154579337
99399.938835695153102
99397.450001107950811
99393.635042074267403
99388.696503565428429
99383.038427997118561
99377.26342856248084
99372.085545839596307
99368.235377686272841
99366.32098266662797
99366.727655208364013
99369.538026031892514
99374.512963632325409
99381.057521028531482
99388.355419088518829
99395.647971090118517
99031.581952262335108
99032.398577334897709
99031.3353653751401
99027.407821746732225
99019.943678474664921
99010.103318627880071
99002.050570533596328
99002.229732595704263
99014.508115657634335
99037.47583319930709
99064.786532583966618
99087.964217625223682
99100.671376306854654
99101.424718870723154
99094.090741177089512
99084.442210247580078
99077.123651826332207
99073.565662873545079
99072.105152764444938
99070.75032757128065
99068.630607440005406
99067.960302473598858
99072.776255933684297
99086.095862072528689
99108.717642364441417
99137.798253325046971
99168.274750144089921
99194.651537423836999
99212.392395332179149
99218.619752332859207
99213.191537408260047
99198.686567607830511
99180.462282153501292
99165.450357243593317
99347.800520231976407
99356.656518127318122
99364.146324255212676
99370.379161039993051
99375.4227553558012
99379.234846450723126
99381.712334454539814
99382.737255430125515
99382.230615755397594
99380.277359509767848
99377.21668126777513
99373.616482035606168
99370.168215839308687
99367.566000411155983
99366.41038871157798
99367.063799893658143
99369.597414765928988
99373.776090482177096
99379.153869695146568
99385.352761531394208
99054.211847080674488
99064.280383706369321
99068.157892198854825
99061.584938003492425
99047.697623083397048
99034.612425779050682
99031.023376842553262
99039.873145553414361
99057.180259803863009
99075.418395877233706
99087.219171674034442
99089.226437625329709
99082.891103622401715
99074.135764993377961
99068.95926257543033
99070.01154852246691
99076.402052158417064
99084.166645196382888
99089.487698923418066
99091.190483070517075
99091.599946995716891
99095.287827810403542
99105.812067503400613
99123.972662661821232
99147.050915026193252
99170.23404338725959
99188.870254581968766
99200.051809212644002
99203.033409610507078
99198.681209071655758
99189.428630182766938
99178.90187027027423
99319.987508319347398
99327.621617250639247
99335.466502959025092
99343.480866337922635
99351.371731471619569
99358.634005441868794
99364.670974366090377
99368.891615873944829
99370.901102882868145
99370.677327078941744
99368.588642937451368
99365.294333400961477
99361.575388454890344