/*--------------------------------*- C++ -*----------------------------------*\
  =========                 |
  \\      /  F ield         | OpenFOAM: The Open Source CFD Toolbox
   \\    /   O peration     | Website:  https://openfoam.org
    \\  /    A nd           | Version:  12
     \\/     M anipulation  |
\*---------------------------------------------------------------------------*/
FoamFile
{
    format      ascii;
    class       volScalarField;
    location    "0.016";
    object      pMean;
}
// * * * * * * * * * * * * * * * * * * * * * * * * * * * * * * * * * * * * * //

dimensions      [1 -1 -2 0 0 0 0];

internalField   nonuniform List<scalar> 
106891
(
99593.442902474504081
99593.666285635743407
99593.915437821400701
99594.191568269088748
99594.496028364359518
99594.829850790149067
99595.194270928273909
99595.589875451623811
99596.017200444228365
99596.474526367645012
99596.956147064920515
99644.924478063068818
99644.735042227926897
99644.543367463134928
99644.349762099591317
99644.154680030333111
99643.958928359934362
99643.763845507462975
99643.570747677149484
99643.380171569457161
99643.191663331104792
99643.003803840023465
99642.815090963355033
99642.624207146756817
99642.430472743246355
99642.23428561478795
99642.036629594833357
99641.839114842645358
99641.643711926022661
99641.452030975182424
99641.264769070199691
99641.081491297285538
99640.900263299365179
99640.718380177830113
99640.533532105400809
99640.344852049849578
99640.152926709415624
99639.959208893254981
99639.765005469729658
99639.570918625177001
99639.376946579301148
99639.182994703296572
99638.989701637721737
99638.798280013186741
99638.610120067372918
99638.4261454793741
99638.246391124615911
99638.069884834971162
99637.894865943555487
99595.035810910325381
99595.128859534364892
99595.239236219524173
99595.367568711502827
99595.514542018383509
99595.680891877636896
99595.867366713762749
99596.074796920162044
99596.304008530263673
99596.555866108712507
99596.831305158848409
99597.131425192608731
99597.457327828204143
99597.810319069350953
99598.19151671025611
99598.602129022387089
99599.042784856152139
99599.513731658938923
99600.013090669031953
99600.534388632047921
99644.703067935304716
99644.510652631841367
99644.31529729902104
99644.117535029203282
99643.918794284400064
99643.721045613390743
99643.526050549393403
99643.334542226235499
99643.145915567452903
99642.958680770680076
99642.771323893408407
99642.582297760091024
99642.390745110795251
99642.196577384791453
99642.000516157713719
99641.803979780524969
99641.60874754798715
99641.416215326040401
99641.226944552530767
99641.040445134101901
99640.855288473918336
99640.669621597888181
99640.48205175952171
99640.292084758519195
99640.100031827154453
99639.906598482732079
99639.7125235159765
99639.518111249824869
99639.323399143060669
99639.128778623446124
99638.935161959234392
99638.743697992409579
99638.555494236075901
99638.371086760278558
99638.190301985421684
99638.012329694262007
99597.709620593872387
99597.851294238993432
99598.01061497599585
99598.188291511803982
99598.385022119182395
99598.601451877650106
99598.838190761220176
99599.095850124082062
99599.375021451342036
99599.676367297812249
99600.000585678120842
99600.34850207582349
99600.720969819551101
99601.119104747282108
99601.54393723559042
99601.99670897363103
99602.478128650807776
99602.988782371219713
99603.527306314455927
99604.088676557381405
99644.679126561197336
99644.486331019579666
99644.288990859276964
99644.088467756664613
99643.886919409924303
99643.6867347999505
99643.489902410030481
99643.297194870800013
99643.107939355511917
99642.920515202902607
99642.73304311640095
99642.543870400244487
99642.352387564998935
99642.158874913482578
99641.964051800910966
99641.768707089373493
99641.573863460769644
99641.380307216415531
99641.188395181205124
99640.997940473185736
99640.808618040275178
99640.619825984918862
99640.430837536405306
99640.241060098094749
99640.050253380832146
99639.858057291261503
99639.66426139412215
99639.468968952205614
99639.272712229299941
99639.076650496266666
99638.882223776090541
99638.69053709495347
99638.502201489725849
99638.31719464652997
99638.134862310078461
99637.954443988463026
99600.600155588501366
99600.805582174536539
99601.029526795871789
99601.272703992697643
99601.535723022388993
99601.819099275875487
99602.123225172006642
99602.448455318983179
99602.795205096961581
99603.163992929898086
99603.55547471207683
99603.970447642699583
99604.409786269869073
99604.874435008649016
99605.365188509807922
99605.882775856836815
99606.426985342477565
99606.996837061626138
99607.586126055466593
99644.44219378134585
99644.244540300918743
99644.043196195925702
99643.840424029156566
99643.638979740309878
99643.441094929163228
99643.247610788966995
99643.057831089216052
99642.870159023776068
99642.682707511237822
99642.494063804959296
99642.303555183374556
99642.111430293676676
99641.918245522989309
99641.724303954993957
99641.529744058003416
99641.334597803870565
99641.139020046059159
99640.943499729284667
99640.748789760575164
99640.555485346194473
99640.363655409484636
99640.17298684475827
99639.982468463131227
99639.790733769856161
99639.596938494825736
99639.401114931461052
99639.204242134015658
99639.007875602765125
99638.813633140147431
99638.622624158393592
99638.434925418143393
99638.249966811315971
99638.06683822501509
99603.124385888731922
99603.355680169028346
99603.604784672221285
99603.872390840493608
99604.159140339004807
99604.465597133807023
99604.792200472584227
99605.139286969177192
99605.507075974353938
99605.895817884927965
99606.305819454239099
99606.737504509132123
99607.191462094619055
99607.66837521494017
99608.169180250086356
99608.694583669392159
99609.245550745123182
99609.821733409859007
99610.422870333059109
99611.042921869884594
99644.390262323853676
99644.192910290890723
99643.992042974903597
99643.789670502126683
99643.588533831047243
99643.390771965074237
99643.197126652361476
99643.006723607701133
99642.817714838965912
99642.628243255778216
99642.437356146445381
99642.244943574332865
99642.051488704193616
99641.857451480944292
99641.662829159511602
99641.466992897287128
99641.269463970820652
99641.070415346199297
99640.870932779071154
99640.672580016107531
99640.476562766300049
99640.283342093112879
99640.092145952396095
99639.901378627226222
99639.70935321880097
99639.515065884363139
99639.318734820466489
99639.12180385303509
99638.926098205585731
99638.733026722591603
99638.54314014101692
99638.355979924046551
99638.170664032892091
99606.116552694380516
99606.406370749449707
99606.714385816972936
99607.041245445041568
99607.387516765709734
99607.753593719156925
99608.139755047202925
99608.546159844801878
99608.972905722475844
99609.420078301103786
99609.887890828147647
99610.376739776038448
99610.887200160912471
99611.419994480063906
99611.975793985286145
99612.555319231047179
99613.158561652235221
99613.784874470002251
99614.429501927530509
99644.135296021515387
99643.936072734213667
99643.735685314924922
99643.536181651914376
99643.339001979446039
99643.144653211289551
99642.952418858127203
99642.760769137879834
99642.568329434652696
99642.374619401743985
99642.179872836204595
99641.984600739873713
99641.789200688232086
99641.593360163402394
99641.39604738127673
99641.196445056339144
99640.994722560732043
99640.792339338950114
99640.591430106273037
99640.393736193087534
99640.199549867713358
99640.007497512124246
99639.815434385105618
99639.621769221601426
99639.426105654856656
99639.229223367059603
99639.032621552207274
99638.837774258834543
99638.645694094739156
99638.456623704201775
99638.269944971456425
99638.084721912586247
99608.863186804010184
99609.1913876337494
99609.53741978535254
99609.901728213444585
99610.284735482156975
99610.686783298791852
99611.108114991424372
99611.548914027021965
99612.009287529755966
99612.489331742501236
99612.989187853570911
99613.509081564843655
99614.049344973551342
99614.610437489012838
99615.192757698867354
99615.796845318182022
99616.422554552380461
99617.069184241059702
99617.732226707303198
99643.876193941730889
99643.679131040582433
99643.482366795040434
99643.286725418511196
99643.092280673241476
99642.898329079878749
99642.703693626404856
99642.507596752329846
99642.309930045827059
99642.111302489080117
99641.912290355481673
99641.713068743294571
99641.513366647865041
99641.312796470650937
99641.111002790392376
99640.908235978451557
99640.705717154283775
99640.504917679427308
99640.306660602698685
99640.110537115557236
99639.915594803300337
99639.720552030281397
99639.524643130062032
99639.328117872544681
99639.131867075193441
99638.93692832592933
99638.744178189110244
99638.553875337267527
99638.365815040131565
99638.179532517344342
99611.950491444062209
99612.331467483847518
99612.730311638384592
99613.147229110574699
99613.582317399836029
99614.035583763325121
99614.507030212727841
99614.996704056553426
99615.504749711442855
99616.031415067467606
99616.577087498022593
99617.142081566868001
99617.72683196295111
99618.331505546462722
99618.956524880733923
99619.601367332215887
99620.265698926712503
99620.945432730892207
99643.606490811725962
99643.410325261123944
99643.212778819477535
99643.014246904363972
99642.815069976059021
99642.615298782009631
99642.414720981876599
99642.213038153960952
99642.010471241388586
99641.807289885691716
99641.603994316072203
99641.40113814821234
99641.199085606815061
99640.99798683168774
99640.797709069098346
99640.598203922083485
99640.399496788246324
99640.201560693632928
99640.004077558158315
99639.806560456388979
99639.608828604803421
99639.411244287446607
99639.214527033342165
99639.019367351444089
99638.826010746997781
99638.634325004881248
99638.444030420607305
99638.254824082672712
99614.660590640254668
99615.073253447597381
99615.502833883816493
99615.949457976792473
99616.413240183057496
99616.894227649492677
99617.392382353325957
99617.907694506357075
99618.440243566816207
99618.990191575736389
99619.557885518297553
99620.143610332946992
99620.747802192781819
99621.37050808184722
99622.012144993554102
99622.671938648316427
99623.349515434863861
99624.040616266443976
99643.334214513495681
99643.134534121170873
99642.932242556780693
99642.728497292060638
99642.524361192452488
99642.32014197303215
99642.115586488667759
99641.910102174530039
99641.703641104337294
99641.496628004490049
99641.290393257280812
99641.086279850380379
99640.884863802682958
99640.68573287288018
99640.487815840402618
99640.289986472431337
99640.091344668689999
99639.891722969114198
99639.691608404042199
99639.491978385558468
99639.293947933794698
99639.098576344840694
99638.905938826064812
99638.715245077502914
99638.525339965941384
99638.335267937567551
99638.144827051728498
99617.758054462610744
99618.21510977082653
99618.688028089687577
99619.176683090379811
99619.680990607652348
99620.200981171816238
99620.736706951502129
99621.288369237008737
99621.856344282568898
99622.441159287845949
99623.043266292239423
99623.663132592642796
99624.300852287429734
99624.956657781833201
99625.629849282471696
99626.319878228270682
99627.023216360219521
99643.422272961324779
99643.221195501537295
99643.016730741175706
99642.809794994318509
99642.602029997331556
99642.39478021702962
99642.188426800814341
99641.982310838095145
99641.775411347203772
99641.567251278975164
99641.358579765437753
99641.151033626505523
99640.946516751180752
99640.745956893908442
99640.548974459714373
99640.35358620378247
99640.157347091837437
99639.958656896778848
99639.757796359961503
99639.556706435410888
99639.357655435072957
99639.162037340400275
99638.969740818458376
99638.779700188577408
99638.590269254244049
99638.399706286436412
99638.20731092938513
99620.830197889416013
99621.32458271192445
99621.833448154837242
99622.356724801808014
99622.894408402527915
99623.446605481774895
99624.013579018952441
99624.595702755541424
99625.193452181090834
99625.807231432248955
99626.43758049760072
99627.084557665235479
99627.748347106942674
99628.428111684581381
99629.123308302892838
99629.830561894079437
99643.32706263520231
99643.121841917134589
99642.914023869350785
99642.704684976662975
99642.495206778243301
99642.286946518463083
99642.080234249093337
99641.874362848247983
99641.66817626960983
99641.460967977211112
99641.253004323341884
99641.045538600170403
99640.840282693461631
99640.638522827823181
99640.440018323235563
99640.24296746935579
99640.045096369096427
99639.845154037378961
99639.643577046517748
99639.442154054238927
99639.243186379884719
99639.048055855470011
99638.856811170160654
99638.668058742958237
99638.479645758052357
99638.289633359221625
99638.097229993523797
99637.902919040236156
99623.486792595766019
99624.008128086192301
99624.543091841449495
99625.091842265872401
99625.654618197702803
99626.231769588484894
99626.823686772404471
99627.430784392912756
99628.053460599578102
99628.692050096462481
99629.346667737554526
99630.017382093021297
99630.703786739992211
99631.405163040064508
99632.119218615174759
99643.02319434992387
99642.814279886137228
99642.604796672283555
99642.395582526049111
99642.187196301718359
99641.980005106583121
99641.773716079158476
99641.567571340638096
99641.36103567230748
99641.154139996986487
99640.947571312688524
99640.742550932394806
99640.540139513992472
99640.34032885801571
99640.14209463854786
99639.943866501474986
99639.744718784466386
99639.544703202482197
99639.344894071764429
99639.147072893712902
99638.95264882450283
99638.76166475014179
99638.572907510315417
99638.384249124545022
99638.19387975196878
99638.000822681206046
99637.805394145529135
99625.714353129442316
99626.257032023189822
99626.813094055323745
99627.382920750242192
99627.966880197433056
99628.565300526708597
99629.178471551058465
99629.806634260705323
99630.449938847174053
99631.108428912921227
99631.781986621150281
99632.470241182643804
99633.172317852731794
99633.886215209116926
99642.734530153145897
99642.525898689200403
99642.317785681167152
99642.11059925777954
99641.904485698672943
99641.699031156138517
99641.493546795827569
99641.287550694018137
99641.080902095942292
99640.873923519015079
99640.66742954851361
99640.462524734946783
99640.260110780567629
99640.060226021960261
99639.862113386552664
99639.664698083681287
99639.467258632968878
99639.269714311813004
99639.072810358833522
99638.87763969237858
99638.684877286897972
99638.493951729251421
99638.303401241268148
99638.11156479397323
99637.917478506482439
99637.721351444197353
99627.785234831579146
99628.346697824177681
99628.921614665945526
99629.510414579359349
99630.113401530892588
99630.730820798911736
99631.362774001143407
99632.009364510071464
99632.670458663487807
99633.346041164870257
99634.035542311088648
99634.73850931673951
99635.452982379778405
99642.438045151502592
99642.231436493166257
99642.025127568194875
99641.819210732064676
99641.613630298248609
99641.407895037249546
99641.201474798523122
99640.994120153744007
99640.786160073781502
99640.578594414197141
99640.372748618858168
99640.169878029410029
99639.970512102197972
99639.774186063470552
99639.579587391242967
99639.385121883096872
99639.189698678499553
99638.993428259243956
99638.797481003653957
99638.602824011133634
99638.409520400004112
99638.216902538886643
99638.023734029993648
99637.829116675144178
99637.632988459488843
99629.710393804765772
99630.28956716931134
99630.882337095783441
99631.488942555108224
99632.109543005630258
99632.744120359362569
99633.392722162199789
99634.055152311557322
99634.731444127828581
99635.421017071377719
99636.123718315953738
99636.837530847551534
99642.166079479517066
99641.961221047939034
99641.756316796978354
99641.551216006031609
99641.345468565268675
99641.138529267322156
99640.930173119559186
99640.720821318478556
99640.511757349624531
99640.304843789155711
99640.101951994001865
99639.904021050548181
99639.710447722769459
99639.519303383945953
99639.328089746995829
99639.134739998567966
99638.93871992349159
99638.741006054508034
99638.543132805585628
99638.346356694237329
99638.150662804866442
99637.955206894897856
99637.759025563151226
99637.562065775608062
99641.889187397027854
99641.684995502888341
99641.479958091775188
99641.273802253854228
99641.065972730037174
99640.856344132000231
99640.645661930291681
99640.435563221137272
99640.228324629861163
99640.026107258090633
99639.829957884168834
99639.639028568592039
99639.450804631065694
99639.262210590415634
99639.07082899667148
99638.875818187618279
99638.677936741660233
99638.478828830702696
99638.280060214048717
99638.082015822335961
99637.884412227154826
99637.686658351463848
99637.488876944698859
99641.421765316597885
99641.214648069639225
99641.005425651121186
99640.79434472527646
99640.582744420142262
99640.372837787261233
99640.1671127135196
99639.967384483461501
99639.774219026498031
99639.58626816656033
99639.400650076393504
99639.214011548581766
99639.023938707745401
99638.829518653990817
99638.631277323511313
99638.430896470599691
99638.229985939455219
99638.02937910016044
99637.829075385729084
99637.629118603246752
99637.429717213308322
99640.518951150763314
99640.309427820844576
99640.104910040172399
99639.906981613617972
99639.71564284163469
99639.529241633950733
99639.344889887230238
99639.159560196858365
99638.970943673280999
99638.778096521986299
99638.581307812753948
99638.38169132846815
99638.180274569094763
99637.977801153087057
99637.775053370525711
99637.572955923242262
99637.372297387424624
99639.673276531975716
99639.487804000906181
99639.303437077207491
99639.117789845840889
99638.929517082477105
99638.737943885687855
99638.542931772899465
99638.344541934842709
99638.143253661226481
99637.939791567245265
99637.735204875600175
99637.531021342001623
99637.328896778213675
99639.43793715092761
99639.252427010243991
99639.06597237639653
99638.877874681696994
99638.687566169697675
99638.494525539063034
99638.298097847989993
99638.097972994248266
99637.894744334684219
99637.689812276003067
99637.485151441971539
99637.282816217571963
99656.77780910457659
99656.537655207837815
99656.300040549103869
99656.06459323684976
99655.830387666574097
99655.595675307427882
99655.358418816118501
99655.117816809157375
99654.875255522318184
99654.633636829064926
99654.395701722925878
99654.162607813195791
99653.933590104643372
99653.706402708849055
99653.478964761612588
99653.250525283554452
99653.021467974482221
99652.792825152922887
99652.565586630618782
99652.339853652039892
99656.999782445273013
99656.756757247683709
99656.516448390641017
99656.278607103013201
99656.043094066160847
99655.809041451022495
99655.57460538916348
99655.337722500538803
99655.097362816813984
99654.854738895199262
99654.612795615161303
99654.374563029618002
99654.141448802300147
99653.912699973487179
99653.686126682558097
99653.459551066989661
99653.231870123781846
99653.003119021072052
99652.774217881975346
99652.546142955994583
99652.319050936188432
99652.091909270384349
99657.47483093275514
99657.22386019503756
99656.977467684206204
99656.734587555329199
99656.494478762266226
99656.256972543749725
99656.022042572556529
99655.788908694084967
99655.555504611154902
99655.319223152822815
99655.07886802360008
99654.835854351738817
99654.59349613514496
99654.355003963850322
99654.121684553276282
99653.8928470039682
99653.666345118355821
99653.439902999787591
99653.212118776966236
99652.982940461224644
99652.753342235067976
99652.524480510241119
99652.296772179965046
99652.069165329652606
99651.839885351742851
99651.60810468121781
99657.71339346448076
99657.456876639684197
99657.205472577436012
99656.958894205468823
99656.715870459345751
99656.475441177681205
99656.237431312983972
99656.002061904451693
99655.768960342713399
99655.536012013602885
99655.300357761647319
99655.060497185419081
99654.817585871525807
99654.575008918982348
99654.336270951942424
99654.103144731430802
99653.874998086830601
99653.649340219708392
99653.423586009492283
99653.196192175135366
99652.966992955989554
99652.736912235806813
99652.507149991870392
99652.278244133136468
99652.049366860694136
99651.819077194304555
99651.586841297597857
99651.353839368748595
99657.956887589942198
99657.696045289747417
99657.439291727583623
99657.188169805696816
99656.942075393089908
99656.69932692241855
99656.458760472189169
99656.220461281511234
99655.985144224352553
99655.752560807319242
99655.520446829323191
99655.285443882166874
99655.04573602938035
99654.802528904459905
99654.559400085665402
99654.320259086220176
99654.086965310751111
99653.858854579011677
99653.633504601559252
99653.408275034831604
99653.181303966164705
99652.95211675655446
99652.721540955797536
99652.491063704044791
99652.261539788873051
99652.032228143507382
99651.801602161998744
99651.569144833891187
99651.336063480339362
99651.104940785007784
99658.208847375935875
99657.946777737466618
99657.685356037472957
99657.427988925948739
99657.176498097935109
99656.930252369085792
99656.687308934589964
99656.446415487545892
99656.20788377225108
99655.9725905899395
99655.740438695502235
99655.509061577336979
99655.274805541557726
99655.03557704029663
99654.792501836564043
99654.549287250847556
99654.30999517456803
99654.076820778791443
99653.849200193784782
99653.624519145538216
99653.399856388903572
99653.173148234956898
99652.943797418949543
99652.712623727376922
99652.481346813568962
99652.251026438403642
99652.021023303561378
99651.789907665719511
99651.557237465953222
99651.324348574024043
99651.093746406899299
99650.867949810184655
99658.208887248314568
99657.946382626367267
99657.684328724644729
99657.426552191565861
99657.175085566341295
99656.92911282935529
99656.686443576894817
99656.445670419838279
99656.207064165791962
99655.97180632664822
99655.739933205957641
99655.508964912107331
99655.274960789480247
99655.035588331185863
99654.792090849005035
99654.548418886144646
99654.308816082877456
99654.075508106689085
99653.847897900253884
99653.623354506475152
99653.398949358175742
99653.17243923433125
99652.943051581911277
99652.711550042484305
99652.479777777203708
99652.248984729943913
99652.018557345305453
99651.787036898065708
99651.554038208720158
99651.320988757681334
99651.090479958802462
99650.865052894310793
99650.645692760750535
99672.598757809842937
99672.296358426014194
99671.991139665289666
99671.684476042282768
99671.379168004816165
99671.076889405492693
99658.209310764912516
99657.94642962202488
99657.683868474050541
99657.425670361131779
99657.174016293807654
99656.928003413660917
99656.685262315149885
99656.444286070385715
99656.205441542784683
99655.97004902131448
99655.738294376409613
99655.507604272090248
99655.27385106231668
99655.034548830692074
99654.790939106154838
99654.54703381692525
99654.307208642509067
99654.073900138784666
99653.84648973410367
99653.62223615408584
99653.398085865876055
99653.171708357418538
99652.942238864619867
99652.710394316440215
99652.478203489707084
99652.247020235430682
99652.016222284160904
99651.78434555012791
99651.551084340346279
99651.317951337943668
99651.087556012207642
99650.862485051635304
99650.643627972269314
99650.429951157115283
99672.895893884415273
99672.596640218122047
99672.293914495385252
99671.98842941399198
99671.68173513970396
99671.376824364066124
99671.075118315551663
99658.214399993201368
99657.951324150490109
99657.688491400229395
99657.430084269799409
99657.178408958003274
99656.932461147924187
99656.689794740625075
99656.448867458064342
99656.210019501260831
99655.974619942484424
99655.742989385398687
99655.512444716630853
99655.278758471627953
99655.039376443251967
99654.795563668696559
99654.551421585711068
99654.311468065265217
99654.078160716802813
99653.850802163622575
99653.626618264897843
99653.402562197836232
99653.176242107321741
99652.946698538202327
99652.714649609391927
99652.482247878564522
99652.250892812560778
99652.019903197782696
99651.787840544900973
99651.554441697298898
99651.32123325295106
99651.090868264815072
99650.865980158414459
99650.647354808490491
99650.433903428245685
99650.223427427408751
99575.255549658060772
99575.486625170844491
99575.74445877080143
99576.030048713582801
99576.344487648486393
99576.688688550144434
99577.063630231816205
99577.469778620754369
99577.907176283362787
99578.37396186683327
99578.862855175175355
99625.368770032553584
99625.168840905229445
99624.971843513398198
99624.779216189781437
99624.590676056279335
99624.404885646639741
99624.220068122594967
99624.03497355953732
99623.849158949189587
99623.662511124843149
99623.474711524453596
99623.284871887444751
99623.092274911905406
99622.896840833331225
99622.699208829842974
99622.50089310000476
99622.303851669639698
99622.109687789823511
99621.91942745889537
99621.733562196648563
99621.551645334329805
99621.372842101583956
99621.196175780671183
99621.020691183701274
99620.845401940183365
99620.669031508179614
99620.49054704477021
99620.308855048308033
99620.123287517460994
99619.933840683865128
99619.741447630440234
99619.547902531077852
99619.35529069340555
99619.165420515259029
99618.979255183250643
99618.796667435468407
99576.783240575619857
99576.856393519046833
99576.945633529816405
99577.052201534432243
99577.177259809730458
99577.321882358155563
99577.487095522708842
99577.673899151108344
99577.883287448203191
99578.116176713927416
99578.373461267226958
99578.656048066273797
99578.964829238422681
99579.300627723525395
99579.664237341974513
99580.056380519759841
99580.477701582130976
99580.928689383756137
99581.40911409171531
99581.917778797083884
99582.447972766443854
99625.326331796735758
99625.126813532304368
99624.929527343367226
99624.735915890196338
99624.545946017184178
99624.358434136549477
99624.172097743081395
99623.986054328401224
99623.79995699103165
99623.613386026918306
99623.425412433949532
99623.234681058500428
99623.040414184622932
99622.842993052530801
99622.643827037056326
99622.44491437979741
99622.248034817865118
99622.054285126767354
99621.864138412667671
99621.677758404228371
99621.494803479814436
99621.31461799266981
99621.136568410540349
99620.959868500402081
99620.7834016225097
99620.605760230086162
99620.42564852029318
99620.241978031932376
99620.054208794652368
99619.862575806037057
99619.668307730433298
99619.473313761991449
99619.279784605983878
99619.089688238935196
99618.903942236371222
99618.722070565127069
99579.416007249397808
99579.539887366991024
99579.679817988682771
99579.836957564679324
99580.012404124354362
99580.207205248356331
99580.422291032242356
99580.65857586346101
99580.916985805713921
99581.198344217380509
99581.503471677395282
99581.833208875250421
99582.188340252148919
99582.569602857867721
99582.977607672510203
99583.412998739542672
99583.876161095540738
99584.367559773556422
99584.886645836115349
99585.432301798296976
99585.997499218065059
99625.09603676336701
99624.89807482015749
99624.702399419154972
99624.5094377581554
99624.318900285725249
99624.130313153189491
99623.943084444865235
99623.756491065054433
99623.569404270587256
99623.380331416352419
99623.187901452620281
99622.991643374945852
99622.792645898414776
99622.592882460943656
99622.394428626241279
99622.198657126456965
99622.00612464673759
99621.816745557065587
99621.630146692434209
99621.446010900312103
99621.263996646681335
99621.083900334429927
99620.905068815831328
99620.726289002966951
99620.546163271734258
99620.363241222294164
99620.176702381868381
99619.986289159656735
99619.792770451895194
99619.597564104609773
99619.4025405535358
99619.209710728639038
99619.02064563978638
99618.83578815110377
99582.25107589532854
99582.439654929301469
99582.645273944915971
99582.868885193340247
99583.111393703162321
99583.373639736673795
99583.656404705368914
99583.960479851113632
99584.28666483478446
99584.635737028482254
99585.00845675142773
99585.405566285757232
99585.827716593805235
99586.275447318737861
99586.749309220162104
99587.249662646543584
99587.776970257997164
99588.330737957556266
99588.910133018318447
99589.509144085721346
99625.045038840253255
99624.847324589296477
99624.650340786523884
99624.454461010565865
99624.260245491866954
99624.06812912983878
99623.878164181965985
99623.689647552426322
99623.500946880769334
99623.310249349844526
99623.116315971099539
99622.919298981301836
99622.720806140816421
99622.522977495988016
99622.32733269968594
99622.134387554586283
99621.943842424137983
99621.754963324434357
99621.567226540893898
99621.380684545831173
99621.195597471523797
99621.012222774690599
99620.830376437341329
99620.648998486300115
99620.466517453431152
99620.281436838515219
99620.093038729843101
99619.901330494205467
99619.70711241135723
99619.51191384140111
99619.317473544957465
99619.125347142937244
99618.936574105217005
99618.751416764440364
99584.975709752703551
99585.210197820910253
99585.461494052840862
99585.730305854289327
99586.017344857129501
99586.323336100380402
99586.648973929215572
99586.994948235020274
99587.362015303631779
99587.750885089175426
99588.162251072353683
99588.596771623255336
99589.055114905029768
99589.537819737117388
99590.045455343875801
99590.578183761710534
99591.136428181038355
99591.719406942851492
99592.326373975622118
99592.951103844505269
99624.805770231032511
99624.606841279193759
99624.407379807380494
99624.208836574049201
99624.012657093728194
99623.819407360861078
99623.628342228999827
99623.437432371865725
99623.244909590284806
99623.049995261986624
99622.853243946054135
99622.656350020071841
99622.460999579241616
99622.268171908508521
99622.077784599779989
99621.888998104797793
99621.700694364277297
99621.51225746817363
99621.323769307142356
99621.13571700672037
99620.948534533643397
99620.762291309802094
99620.576373631003662
99620.38962713512592
99620.201065445085987
99620.010190774846706
99619.817234490270494
99619.622890462604119
99619.428435245121364
99619.235045975015964
99619.043754245736636
99618.855154939446948
99587.979824829963036
99588.273610048621777
99588.58457171205373
99588.913231204816839
99589.260098842030857
99589.625673353963066
99590.01044730648573
99590.41501229442656
99590.840063771276618
99591.286309811926913
99591.754502213792875
99592.245368899704772
99592.759500047686743