/*--------------------------------*- C++ -*----------------------------------*\
  =========                 |
  \\      /  F ield         | OpenFOAM: The Open Source CFD Toolbox
   \\    /   O peration     | Website:  https://openfoam.org
    \\  /    A nd           | Version:  12
     \\/     M anipulation  |
\*---------------------------------------------------------------------------*/
FoamFile
{
    format      ascii;
    class       volScalarField;
    location    "0.016";
    object      pPrime2Mean;
}
// * * * * * * * * * * * * * * * * * * * * * * * * * * * * * * * * * * * * * //

dimensions      [2 -2 -4 0 0 0 0];

internalField   nonuniform List<scalar> 
106891
(
703773.37296867370605
703100.1685848236084
702416.98986434936523
701726.1099967956543
701033.33621406555176
700343.66969108581543
699663.74275398254395
698994.4066333770752
698338.12025833129883
697691.56929969787598
697050.73602867126465
970127.88224411010742
969149.24521064758301
968174.40226364135742
967204.76377487182617
966243.14452934265137
965289.63334655761719
964339.75608253479004
963386.05135536193848
962422.92875862121582
961450.92714691162109
960475.61160659790039
959503.96170425415039
958541.96021842956543
957593.0988655090332
956655.8674201965332
955723.25384902954102
954786.95128059387207
953842.12608909606934
952889.42090034484863
951935.92198944091797
950992.85982704162598
950069.33876419067383
949167.79557991027832
948284.81937980651855
947415.63336372375488
946557.52070426940918
945709.71275901794434
944871.03168487548828
944038.68914031982422
943208.14485359191895
942372.31887054443359
941524.38822364807129
940661.88366317749023
939787.97773933410645
938907.56566047668457
938024.27104949951172
937139.83019065856934
936255.08426475524902
709026.05692481994629
708314.9980354309082
707610.4910774230957
706914.13280296325684
706227.74595642089844
705552.59049987792969
704888.19558525085449
704231.64892959594727
703577.63807487487793
702919.94136810302734
702253.29007530212402
701575.7996826171875
700888.80091094970703
700197.47819137573242
699506.71873664855957
698823.30122947692871
698148.92543983459473
697486.84919548034668
696834.90318489074707
696188.96722221374512
968981.0044994354248
968005.98479652404785
967039.33429718017578
966082.48946571350098
965135.29007720947266
964193.47988510131836
963249.73262786865234
962298.09865570068359
961338.21871566772461
960375.20060157775879
959416.33415603637695
958467.98658180236816
957534.28751945495605
956613.47422981262207
955697.23987197875977
954775.78213310241699
953844.04928588867188
952904.20674705505371
951965.37904357910156
951038.50109672546387
950130.57024002075195
949242.08108901977539
948369.08496475219727
947507.50220489501953
946654.86073112487793
945810.06228637695312
944972.08588600158691
944138.86996078491211
943305.99921035766602
942465.91386795043945
941610.34418296813965
940734.78708267211914
939841.94100761413574
938939.62425422668457
938036.05542182922363
937136.4665641784668
708225.32200050354004
707510.10371208190918
706799.0916576385498
706093.40291023254395
705395.53035926818848
704708.2303409576416
704032.81282234191895
703367.86706924438477
702709.01060676574707
702050.35972595214844
701386.4088020324707
700714.42239952087402
700034.43218803405762
699350.02919006347656
698664.65521240234375
697984.12262725830078
697309.96077537536621
696646.1280632019043
695991.75431442260742
695345.25678062438965
968925.44293975830078
967941.40386962890625
966967.58117294311523
966004.29703140258789
965051.16885375976562
964105.01540374755859
963159.43175506591797
962208.81920051574707
961253.11887359619141
960297.13814926147461
959346.87633323669434
958407.72255706787109
957483.52958488464355
956573.3475399017334
955669.54489517211914
954762.01972198486328
953845.53638076782227
952923.43279457092285
952005.06421089172363
951099.46833801269531
950210.74389839172363
949337.27937889099121
948474.93185997009277
947620.23338317871094
946771.06904220581055
945926.16555595397949
945084.7993106842041
944245.0830192565918
943402.78967666625977
942551.84142303466797
941684.4882926940918
940794.85835456848145
939884.10660552978516
938961.49978256225586
938039.04183387756348
937124.89033699035645
706730.71958541870117
706016.61324882507324
705307.2166633605957
704603.71160697937012
703908.06513595581055
703221.66199111938477
702544.18366813659668
701873.17365646362305
701204.70010757446289
700534.77083396911621
699861.07669258117676
699183.3532543182373
698503.86559867858887
697824.91917991638184
697150.42724418640137
696481.55713844299316
695820.40016937255859
695167.0114803314209
694516.75663566589355
968033.07391357421875
967042.44199180603027
966061.78015899658203
965091.30206680297852
964129.69545745849609
963172.55982398986816
962215.37268257141113
961258.25631904602051
960305.28171348571777
959360.79761505126953
958428.77015495300293
957512.11388969421387
956610.15402221679688
955716.58481788635254
954822.78369522094727
953924.67745018005371
953025.76355934143066
952133.11457824707031
951251.81760787963867
950382.56946754455566
949522.46687889099121
948667.56672859191895
947815.17793846130371
946964.14317321777344
946114.68935775756836
945266.51581764221191
944417.14516067504883
943562.58942031860352
942698.1922435760498
941817.43101501464844
940914.19505310058594
939988.04124641418457
939048.24266815185547
938108.91429710388184
706764.4036922454834
706034.45404815673828
705313.39059066772461
704600.08621215820312
703894.04476928710938
703195.22162818908691
702503.51820755004883
701818.31380081176758
701138.09174156188965
700460.56021690368652
699783.37399673461914
699105.25521087646484
698426.27873802185059
697748.2392520904541
697072.87458992004395
696403.23035621643066
695740.59331512451172
695086.63531112670898
694442.40235710144043
693802.38662338256836
968297.05864143371582
967285.24050521850586
966282.70639991760254
965288.91514205932617
964303.98490333557129
963326.3129825592041
962354.64027404785156
961390.14154624938965
960436.24930191040039
959496.2059497833252
958571.95548629760742
957663.9247875213623
956770.32048606872559
955886.40727996826172
955006.90130424499512
954130.03590393066406
953258.58642578125
952395.79373168945312
951542.07474136352539
950694.54997634887695
949848.83319473266602
949000.75241851806641
948148.07120895385742
947292.37595176696777
946437.04856872558594
945583.13628768920898
944727.32619476318359
943864.55039405822754
942990.01940536499023
942098.06709289550781
941182.57146072387695
940242.71218490600586
939287.86984252929688
705513.41008186340332
704780.89530754089355
704058.69458770751953
703346.15549468994141
702642.27717018127441
701945.90579605102539
701255.98585510253906
700571.34481620788574
699890.57826805114746
699212.10414123535156
698535.06176948547363
697859.20216369628906
697185.7680549621582
696515.3836727142334
695850.76680755615234
695192.43258285522461
694543.28661727905273
693903.22550964355469
693269.40791893005371
967693.03810882568359
966664.97891235351562
965643.88688087463379
964631.22015571594238
963628.52579307556152
962637.35401725769043
961660.21273040771484
960700.6622142791748
959762.07736968994141
958845.60556602478027
957948.98868751525879
957067.51221466064453
956196.45575141906738
955333.04066276550293
954477.5218391418457
953632.69747543334961
952799.62945556640625
951975.00937461853027
951151.78762054443359
950323.28247833251953
949485.35362815856934
948637.74836730957031
947784.56946754455566
946931.20217132568359
946079.14149475097656
945223.80691719055176
944358.38612747192383
943476.99091911315918
942575.06498718261719
941649.06549835205078
940699.91496276855469
939736.51731872558594
705183.61322021484375
704444.61384963989258
703715.93230438232422
702996.99153709411621
702286.79726409912109
701584.51191711425781
700889.81912040710449
700202.43904113769531
699521.60282325744629
698845.84457588195801
698173.95255470275879
697505.12084770202637
696839.72575187683105
696177.45197105407715
695519.77517700195312
694866.14084434509277
694218.35296249389648
693575.77599906921387
692935.16764831542969
967094.12007331848145
966040.63947105407715
964996.59779357910156
963967.41729927062988
962956.9100341796875
961967.14607238769531
961000.12837219238281
960058.34814834594727
959143.09872817993164
958251.99056053161621
957379.00675392150879
956518.66989135742188
955669.35859107971191
954832.59048652648926
954010.40209770202637
953201.96758270263672
952401.40310096740723
951599.53034019470215
950789.21219635009766
949967.82914733886719
949137.04933929443359
948300.49213027954102
947461.34332275390625
946619.46488952636719
945770.2504997253418
944906.96059036254883
944024.25194931030273
943119.10319709777832
942190.44055557250977
941240.76565170288086
704301.80524826049805
703568.88747787475586
702844.85843849182129
702129.66588592529297
701423.34541702270508
700725.9837532043457
700037.35807037353516
699356.63933753967285
698682.43112945556641
698013.52946472167969
697349.14615440368652
696689.3029613494873
696033.56937789916992
695382.48305130004883
694735.44570159912109
694092.52972602844238
693453.51255416870117
692812.84658050537109
966522.23274993896484
965443.65187454223633
964387.04833602905273
963357.62204170227051
962356.26351737976074
961381.53662109375
960433.41770172119141
959512.89268493652344
958619.04585075378418
957747.22708320617676
956892.63716125488281
956052.90668296813965
955228.08476257324219
954418.5509147644043
953622.6413516998291
952834.10762214660645
952044.07820129394531
951246.69412994384766
950441.61236000061035
949630.52149963378906
948814.2965087890625
947992.10053062438965
947160.9288330078125
946316.33364677429199
945453.88852500915527
944570.75372695922852
943665.91202163696289
942739.89170455932617
704372.1680850982666
703633.86393356323242
702903.82685470581055
702182.88910675048828
701471.74393272399902
700770.61013412475586
700078.90852737426758
699395.33734512329102
698718.3430347442627
698046.87649154663086
697380.51527214050293
696719.55861663818359
696063.88897514343262
695413.92766380310059
694769.07801055908203
694128.62949752807617
693492.14466094970703
692853.70883369445801
966130.92003059387207
965049.32761001586914
964001.01051330566406
962985.57599830627441
961999.51002311706543
961041.39430046081543
960112.61005210876465
959212.47110939025879
958337.39561653137207
957482.9106330871582
956646.3708610534668
955826.44760322570801
955023.12134170532227
954234.88544654846191
953455.38140869140625
952675.67984580993652
951889.99371337890625
951098.26659774780273
950301.89267158508301
949499.22621154785156
948686.18851470947266
947858.91912460327148
947014.66961479187012
946152.42939567565918
945272.21835708618164
944373.37449264526367
943455.25317001342773
703962.45104598999023
703224.03700637817383
702494.93050765991211
701775.99896049499512
701066.85873222351074
700366.14952087402344
699672.22627639770508
698983.83932876586914
698300.72839546203613
697623.11948204040527
696951.80770492553711
696287.06507873535156
695629.56751441955566
694978.8523998260498
694334.05156707763672
693694.32083511352539
693054.213134765625
968131.0000057220459
967007.27058410644531
965910.74876022338867
964847.15896797180176
963818.56660079956055
962823.27503395080566
961859.95823287963867
960928.64705467224121
960028.1755428314209
959154.29354476928711
958301.82480621337891
957466.81736183166504
956648.64942169189453
955848.74718284606934
955066.94246101379395
954297.71282958984375
953531.81358528137207
952761.47105979919434
951983.6949520111084
951198.70122718811035
950405.24384117126465
949599.06589508056641
948776.07927513122559
947935.28267860412598
947077.99478530883789
946205.06102561950684
945315.2321834564209
703796.14583206176758
703062.8252124786377
702337.92633056640625
701620.23344421386719
700908.1567440032959
700200.45365715026855
699496.57496070861816
698796.54700469970703
698100.48614501953125
697408.71587371826172
696721.65761184692383
696040.4110107421875
695366.21670150756836
694698.88996124267578
694038.9995002746582
693380.38430595397949
968781.84589767456055
967667.44722366333008
966579.10569381713867
965519.4681282043457
964490.54120635986328
963493.98544883728027
962531.07752990722656
961603.09180068969727
960708.06432723999023
959838.99734306335449
958987.1284351348877
958147.87548446655273
957322.95314598083496
956516.7722053527832
955730.84779739379883
954960.10237312316895
954195.30141067504883
953428.00212669372559
952653.65526390075684
951870.17168045043945
951075.52710151672363
950267.07342147827148
949443.00900268554688
948603.3728199005127
947748.83045196533203
946878.89731979370117
945991.61731147766113
945084.81337738037109
703616.10079956054688
702887.18548202514648
702163.65288162231445
701443.86855506896973
700726.72753143310547
700011.69109535217285
699298.59768676757812
698587.19493865966797
697877.60116195678711
697170.23932647705078
696466.82618141174316
695769.45200157165527
695079.35805511474609
694397.72265243530273
693719.86443710327148
968374.9555778503418
967299.67141342163086
966249.62380409240723
965225.56412315368652
964230.1332836151123
963266.72097396850586
962336.94410705566406
961437.83803749084473
960561.24160003662109
959697.77007293701172
958843.2170352935791
958000.95517921447754
957177.02016067504883
956373.85987091064453
955587.47350311279297
954809.43398857116699
954031.52806282043457
953248.31744766235352
952456.71131134033203
951654.44075012207031
950839.63123512268066
950010.92226791381836
949167.59419822692871
948308.70895195007324
947433.29927062988281
946540.06788063049316
945628.02169036865234
703607.3372688293457
702877.43346786499023
702151.07700538635254
701426.9017333984375
700703.90688705444336
699981.48661613464355
699258.96936798095703
698536.24525833129883
697813.41180229187012
697092.30866241455078
696375.17060470581055
695664.03215980529785
694959.8222484588623
694258.62953758239746
968170.8956127166748
967123.96878242492676
966098.44814872741699
965099.06778144836426
964130.51833152770996
963192.73624229431152
962280.50638008117676
961385.33399391174316
960499.18581771850586
959619.34063148498535
958749.73398780822754
957896.51983833312988
957062.65425872802734
956245.83698272705078
955439.83774757385254
954637.72457122802734
953834.25840950012207
953025.91243171691895
952210.0294246673584
951383.96848297119141
950545.52699279785156
949693.12223434448242
948825.5211238861084
947941.53954696655273
947040.38719749450684
946121.98960304260254
703740.04825401306152
703005.43131637573242
702272.75456237792969
701540.52098655700684
700807.73563003540039
700073.69887733459473
699338.09624481201172
698600.86402130126953
697863.36674308776855
697128.04345703125
696396.82303428649902
695671.79328918457031
694948.49773979187012
968113.43296432495117
967080.86712265014648
966072.49520874023438
965092.69355583190918
964139.7915096282959
963207.4195613861084
962287.7275276184082
961374.44959831237793
960466.28546714782715
959566.96194076538086
958681.83536148071289
957813.4318962097168
956960.75671768188477
956120.1853141784668
955287.34019088745117
954458.5606689453125
953630.65997123718262
952799.8265266418457
951962.11209297180176
951113.38165283203125
950251.41482734680176
949375.8326244354248
948485.95439147949219
947580.49421882629395
946658.26236915588379
704010.7059154510498
703270.35749626159668
702529.44807624816895
701786.76340484619141
701041.73384857177734
700294.0313663482666
699543.36760902404785
698790.72355651855469
698038.60271072387695
697289.46458053588867
696546.36180877685547
695804.93342971801758
968179.79790878295898
967156.78853416442871
966160.63958740234375
965188.6290225982666
964233.60694885253906
963288.77989768981934
962349.90602874755859
961416.33418464660645
960490.66119575500488
959576.49374389648438
958675.84943008422852
957788.62363815307617
956913.80339050292969
956050.77979278564453
955198.01386070251465
954351.9387035369873
953506.97225189208984
952657.33188438415527
951798.68101119995117
950928.80464172363281
950047.77887725830078
949154.92643356323242
948247.20238494873047
947322.20456123352051
968315.63539886474609
967299.64848899841309
966307.27876472473145
965331.92283058166504
964366.52367782592773
963407.01809692382812
962452.39388465881348
961504.18609237670898
960564.6520824432373
959634.89764404296875
958715.71656799316406
957809.0694465637207
956917.61904144287109
956041.94477844238281
955178.15936470031738
954319.4827823638916
953459.19857788085938
952592.73384094238281
951717.88082122802734
950833.68417739868164
949938.21307563781738
949027.27994918823242
948098.24127388000488
967530.68345642089844
966535.45270156860352
965551.18037605285645
964572.63566780090332
963597.7774829864502
962627.31759643554688
961662.71257209777832
960705.18307495117188
959756.89546394348145
958821.77807235717773
957904.03970146179199
957005.04158401489258
956121.12382888793945
955245.51844024658203
954371.94609260559082
953496.32478332519531
952615.92576599121094
951727.32778739929199
950825.8720817565918
949907.13574028015137
948969.59053611755371
964807.2927131652832
963810.75825881958008
962818.21719360351562
961832.54498672485352
960856.77203559875488
959895.07794952392578
958951.84605598449707
958029.08424186706543
957123.81807327270508
956229.82562637329102
955341.57859039306641
954455.19802856445312
953566.05704498291016
952667.68924331665039
951753.81392478942871
950821.17135047912598
949870.75474739074707
961988.37178611755371
961004.10983467102051
960037.45235061645508
959090.24522590637207
958161.28470802307129
957246.62821578979492
956341.35684013366699
955440.40079116821289
954537.5417423248291
953625.11179351806641
952696.02353477478027
951747.4417839050293
950782.09672927856445
962105.00056076049805
961119.21988868713379
960152.13729095458984
959203.44917106628418
958269.9339599609375
957346.83961486816406
956428.45641708374023
955508.13197898864746
954578.4167308807373
953633.16464805603027
952670.36337280273438
951692.75077629089355
1067654.7792263031006
1066732.8107795715332
1065826.495454788208
1064920.9904499053955
1064007.3748111724854
1063081.7803421020508
1062141.3142490386963
1061180.7485046386719
1060193.3425426483154
1059174.23708152771
1058122.5094413757324
1057040.8752574920654
1055934.7921695709229
1054811.9557399749756
1053681.4113121032715
1052551.6204414367676
1051427.7876453399658
1050311.0588817596436
1049200.3610324859619
1048095.2203369140625
1069791.6821403503418
1068840.9736499786377
1067920.4933986663818
1067014.5319042205811
1066107.5536708831787
1065189.9208698272705
1064257.6072463989258
1063307.7664432525635
1062334.5755004882812
1061330.1617794036865
1060288.9508323669434
1059211.170877456665
1058101.8733329772949
1056969.2061214447021
1055822.9071750640869
1054673.0790367126465
1053527.766529083252
1052390.9797058105469
1051262.7895030975342
1050141.8104610443115
1049027.7442684173584
1047923.9554233551025
1072921.8081912994385
1071899.5273532867432
1070912.5116081237793
1069962.4686069488525
1069041.7772979736328
1068134.4358768463135
1067224.1949882507324
1066301.0511054992676
1065360.6750316619873
1064400.0132007598877
1063413.0198135375977
1062391.0094699859619
1061328.1276588439941
1060224.9695777893066
1059088.3784770965576
1057929.139102935791
1056759.5770320892334
1055590.59303855896
1054429.7915058135986
1053280.2275657653809
1052141.2175998687744
1051011.3044986724854
1049890.6134414672852
1048782.7342586517334
1047694.8760070800781
1046634.1882247924805
1075003.5363426208496
1073952.5288124084473
1072932.0603332519531
1071944.5980987548828
1070992.9257202148438
1070069.8881492614746
1069159.0892429351807
1068243.9546642303467
1067313.6092357635498
1066363.5070972442627
1065391.0843601226807
1064389.8671951293945
1063350.2490882873535
1062266.1999340057373
1061139.2629203796387
1059978.2264232635498
1058795.9321098327637
1057606.1825714111328
1056420.7004070281982
1055246.8974380493164
1054086.6888751983643
1052938.2043914794922
1051799.6953964233398
1050671.8203067779541
1049559.1598205566406
1048469.4932727813721
1047409.3905391693115
1046380.4745502471924
1076999.2582588195801
1075916.7242107391357
1074868.3877105712891
1073848.0391330718994
1072858.8939628601074
1071904.4367847442627
1070978.082691192627
1070063.3394393920898
1069142.9034805297852
1068205.3184661865234
1067245.7640571594238
1066261.9023952484131
1065247.2695484161377
1064191.8015785217285
1063088.9431667327881
1061940.7330532073975
1060757.2656784057617
1059553.5420513153076
1058345.1906356811523
1057144.8102607727051
1055959.5901527404785
1054790.1245212554932
1053633.7662982940674
1052488.7630996704102
1051356.178825378418
1050240.7478580474854
1049149.8394584655762
1048089.5163822174072
1047060.5867042541504
1046059.5720901489258
1078896.2030086517334
1077772.3349113464355
1076694.8358383178711
1075648.9669151306152
1074628.3247394561768
1073636.7749462127686
1072679.0272884368896
1071748.7947254180908
1070829.2760448455811
1069902.8412075042725
1068957.5128536224365
1067988.4692897796631
1066993.7750930786133
1065967.1392192840576
1064898.0351047515869
1063779.5378761291504
1062613.9821681976318
1061412.4389495849609
1060191.3364334106445
1058967.9051933288574
1057755.6468315124512
1056561.3603553771973
1055384.7573928833008
1054222.2244300842285
1053071.8038101196289
1051934.7707576751709
1050816.492130279541
1049724.7245101928711
1048664.6300048828125
1047636.2338848114014
1046635.6728000640869
1045659.0314064025879
1079506.0507965087891
1078387.352518081665
1077312.9025421142578
1076267.9783134460449
1075246.3858299255371
1074252.4590816497803
1073291.38991355896
1072357.2095890045166
1071433.3205966949463
1070501.760139465332
1069550.1158580780029
1068573.3968868255615
1067569.9270248413086
1066533.4792327880859
1065453.0455455780029
1064321.4962215423584
1063141.5680255889893
1061925.3698577880859
1060690.6470184326172
1059455.4523162841797
1058233.7142238616943
1057032.3197956085205
1055850.253532409668
1054683.2399063110352
1053529.0363712310791
1052389.2136249542236
1051269.2160987854004
1050176.6799831390381
1049116.5620460510254
1048088.3796806335449
1047088.0166549682617
1046111.6285915374756
1045160.053295135498
1142210.4025230407715
1140577.0032539367676
1138951.7803077697754
1137353.3022174835205
1135794.3533706665039
1134285.8867855072021
1079931.0038280487061
1078815.8188819885254
1077743.4058532714844
1076699.1423759460449
1075676.7192115783691
1074680.6767044067383
1073716.739652633667
1072779.240198135376
1071851.5555801391602
1070915.4786605834961
1069958.3804607391357
1068975.3440818786621
1067964.9854354858398
1066921.3600616455078
1065833.2595634460449
1064693.2778911590576
1063504.2837982177734
1062278.7318992614746
1061034.960807800293
1059791.6977043151855
1058563.4941082000732
1057357.3088264465332
1056171.730749130249
1055001.878812789917
1053845.3198986053467
1052703.6022396087646
1051582.3674926757812
1050489.4412460327148
1049429.4442901611328
1048401.4995040893555
1047401.3557186126709
1046425.2951393127441
1045474.2674655914307
1044555.1652545928955
1144246.7463455200195
1142613.4459114074707
1140965.2693347930908
1139325.6019477844238
1137713.4825496673584
1136142.0786876678467
1134622.6481704711914
1080154.1858596801758
1079040.4624691009521
1077968.8295001983643
1076924.5692005157471
1075901.4404411315918
1074904.1575260162354
1073938.5556640625
1072999.1674575805664
1072069.4139194488525
1071130.9409465789795
1070170.997034072876
1069184.6898365020752
1068170.7094173431396
1067123.2073001861572
1066030.8653926849365
1064886.1235904693604
1063691.923059463501
1062461.1653518676758
1061212.6653575897217
1059965.3765506744385
1058733.9131011962891
1057525.3294715881348
1056338.0769462585449
1055166.8981266021729
1054009.170804977417
1052866.5191764831543
1051744.7556400299072
1050651.6369094848633
1049591.6805286407471
1048563.9477767944336
1047563.9463500976562
1046587.987003326416
1045637.1202373504639
1044718.2453289031982
1043837.8651885986328
685396.491455078125
684697.66109848022461
683996.54559516906738
683295.64040946960449
682598.74750709533691
681907.22978210449219
681223.97688102722168
680547.00023078918457
679877.3115062713623
679211.60904312133789
678546.32492256164551
952972.78681564331055
951967.45134925842285
950967.05389785766602
949963.00893783569336
948950.85671615600586
947932.70974731445312
946913.63522148132324
945897.02019500732422
944883.43650054931641
943872.4007625579834
942864.35801696777344
941862.36127853393555
940870.76877212524414
939892.02468681335449
938926.52447891235352
937973.40897750854492
937030.29578971862793
936094.5865364074707
935165.64889717102051
934246.65042304992676
933342.55011177062988
932456.02021980285645
931584.66933250427246
930723.08630752563477
929867.71477317810059
929019.48280143737793
928181.61806678771973
927354.04821968078613
926532.33471488952637
925710.6663761138916
924885.12182998657227
924053.94628524780273
923215.92868041992188
922369.30446243286133
921511.70619010925293
920641.11420822143555
691594.27033042907715
690867.1246166229248
690144.4036693572998
689426.48714065551758
688714.58082962036133
688009.57621765136719
687311.20010757446289
686617.85370826721191
685927.11388778686523
685236.35013198852539
684543.58061599731445
683847.92547988891602
683150.29316711425781
682452.28525543212891
681756.72076797485352
681064.62281036376953
680378.81867599487305
679698.39698600769043
679025.31201934814453
678358.14777565002441
677693.98383522033691
952963.67632484436035
951948.35163688659668
950941.14054107666016
949930.24968338012695
948909.67525672912598
947883.52635192871094
946860.99550628662109
945847.5592155456543
944842.50613784790039
943841.69876861572266
942842.97673797607422
941849.55859565734863
940868.23757171630859
939904.17921447753906
938958.50593376159668
938028.92632102966309
937109.93387413024902
936195.47055053710938
935283.12251853942871
934376.23507690429688
933481.82963562011719
932604.866455078125
931743.94062805175781
930892.08998870849609
930043.15173530578613
929196.44301795959473
928354.98019981384277
927519.70318031311035
926687.88809967041016
925855.02345275878906
925017.41436386108398
924172.3817081451416
923317.59612655639648
922450.97063064575195
921570.46095085144043
920675.05013275146484
690794.22216606140137
690060.36132049560547
689332.18164253234863
688610.0289134979248
687895.11862754821777
687188.38861274719238
686489.58902168273926
685797.15546607971191
685108.63154029846191
684421.21277618408203
683732.57602500915527
683041.40483856201172
682348.02274513244629
681653.45956993103027
680959.88668823242188
680268.26077651977539
679581.54204750061035
678899.75305366516113
678225.41068077087402
677557.94356536865234
676893.50242805480957
952110.67646408081055
951097.16645622253418
950078.59965515136719
949048.71579933166504
948015.27107620239258
946992.25079917907715
945987.42673873901367
944997.67402458190918
944013.62405014038086
943029.07310104370117
942047.22406005859375
941078.0208683013916
940130.10910606384277
939205.2302074432373
938298.80409622192383
937402.03349494934082
936505.93261337280273
935606.47385025024414
934707.63167762756348
933819.31921005249023
932949.46817207336426
932097.4344596862793
931253.87627792358398
930408.43731689453125
929557.32502746582031
928703.06813621520996
927849.59222412109375
926997.96634101867676
926146.65827178955078
925292.13643455505371
924429.42842674255371
923553.63736915588379
922661.78630065917969
921753.3253231048584
689298.47926139831543
688563.18807411193848
687835.47491836547852
687116.87690734863281
686408.48476982116699
685710.11574554443359
685020.0964412689209
684335.69766426086426
683653.60306739807129
682970.74552536010742
682284.99021339416504
681595.99140548706055
680904.61203956604004
680213.34129333496094
679523.90683746337891
678840.08555030822754
678162.71678733825684
677494.79456329345703
676835.77186584472656
676181.6553955078125
952344.50968551635742
951327.31873321533203
950306.13803100585938
949276.09373474121094
948247.27239799499512
947235.43106460571289
946248.66226196289062
945281.89241981506348
944322.35210227966309
943360.89193725585938
942399.90151786804199
941450.88248062133789
940524.51688766479492
939623.2907657623291
938740.94036865234375
937866.01445579528809
936987.38834762573242
936100.31598091125488
935210.28455543518066
934330.14187812805176
933470.15276718139648
932628.84309577941895
931793.53092384338379
930949.7427806854248
930091.14419937133789
929220.85207557678223
928346.37713813781738
927473.26212882995605
926602.00497627258301
925727.88932037353516
924843.28890991210938
923941.68953514099121
923020.67581939697266
922082.3750114440918
688611.96724510192871
687867.1236515045166
687131.76761817932129
686408.2828369140625
685697.95779418945312
685000.37046051025391
684313.35905265808105
683633.56734848022461
682957.05560493469238
682280.1319751739502
681600.03230476379395
680915.80716896057129
680227.98837471008301
679539.20461463928223
678852.15973854064941
678171.86533164978027
677500.48077011108398
676841.36019134521484
676193.4222354888916
675551.1293830871582
951601.97109603881836
950578.08117294311523
949551.96661376953125
948534.04697608947754
947537.96598243713379
946569.67398643493652
945623.82119750976562
944688.09218406677246
943753.09805107116699
942819.86604881286621
941898.45499038696289
940999.36846351623535
940124.9788646697998
939268.07998657226562
938415.79529190063477
937555.74843788146973
936683.4290771484375
935806.22366333007812
934939.30185699462891
934093.02423095703125
933263.49092864990234
932434.98876762390137
931590.69238090515137
930723.74870109558105
929838.96347999572754
928946.70365142822266
928054.67460250854492
927163.13935661315918
926266.21045303344727
925356.17129516601562
924428.05002784729004
923481.32482719421387
687298.21472549438477
686554.41838645935059
685824.77334976196289
685111.20342445373535
684413.11540794372559
683727.71182441711426
683050.88481712341309
682378.23288345336914
681705.91450309753418
681031.23376274108887
680353.1723575592041
679672.08392524719238
678990.19327163696289