/*--------------------------------*- C++ -*----------------------------------*\
  =========                 |
  \\      /  F ield         | OpenFOAM: The Open Source CFD Toolbox
   \\    /   O peration     | Website:  https://openfoam.org
    \\  /    A nd           | Version:  12
     \\/     M anipulation  |
\*---------------------------------------------------------------------------*/
FoamFile
{
    format      ascii;
    class       volScalarField;
    location    "0.016";
    object      rho_0;
}
// * * * * * * * * * * * * * * * * * * * * * * * * * * * * * * * * * * * * * //

dimensions      [1 -3 0 0 0 0 0];

internalField   nonuniform List<scalar> 
106891
(
1.1497282653405123121
1.1497633827486870572
1.1497736431704623783
1.1497622688218154252
1.1497340802217459466
1.1496916599156934424
1.1496376752561692225
1.1495718456922263684
1.1494941450453237675
1.1493979177384949786
1.1492840765014273874
1.1546193631577483796
1.1549148470657946142
1.1552040148451725443
1.1554633802226157435
1.1556594351635651741
1.1557595849358059947
1.1557560408806599739
1.1556727290007395847
1.1555654360332385799
1.1554951983339911692
1.1555028380510248276
1.1555960607333337631
1.155751724990579099
1.1559315545382924384
1.1560910033956321996
1.1561887837097897247
1.1561985123241576012
1.1561193266775866562
1.155976383795893403
1.1558301457733131112
1.1557542425545199727
1.1558067711630308771
1.1560018799387137278
1.1562935012577004734
1.1566045069360317843
1.156865285605430671
1.1570488840375661166
1.1571682572737942429
1.1572513730605293869
1.1573084252277114903
1.1573189189344614825
1.1572490572155285093
1.1570775680556721898
1.1568174196092435579
1.1565124620548410395
1.1562211918189917448
1.1559965348200964552
1.155872112164261889
1.148767345640685944
1.1488528099905954694
1.1489597472960975111
1.1490766752315317856
1.1491934360634312728
1.1493026533744186146
1.1493993369845243446
1.149480811526674584
1.1495468442537573051
1.1495974850442323145
1.1496332550316563648
1.1496541190354134798
1.1496591800378079817
1.1496482370008493934
1.1496196585807139101
1.1495741373344228187
1.1495077035074821037
1.1494241400454319191
1.1493122095726169274
1.1491847196043201151
1.1549231622973263889
1.1552673102715669273
1.1555790142025992306
1.1558077864189595374
1.1559094434240260174
1.1558776186323487245
1.1557461877707526643
1.1555769647399494193
1.1554414547393823121
1.1553860952136636442
1.1554255496489944655
1.1555440396046188223
1.155704542350414199
1.1558656226268044787
1.1559892042621211505
1.1560483783745425512
1.1560396867939748411
1.1559831805068623289
1.1559183614524295436
1.1558944340908654524
1.1559479667474037434
1.1560890009398541167
1.1562863718636851029
1.1564966111520957881
1.1566895023499561557
1.1568564241280150373
1.1570022544906013451
1.1571309514343899316
1.1572238331241921916
1.1572491009936409778
1.1571801203107301426
1.1570134093851707213
1.1567734735299748383
1.1565025998646778493
1.1562486477152913444
1.1560499454052073354
1.1488421665707626573
1.1489065290846052214
1.1489836533378863237
1.1490653599386353445
1.1491452488997389025
1.1492203171184547372
1.1492897413556293351
1.1493541172893368962
1.1494149858827216182
1.1494716484763483066
1.149522171127086434
1.1495615514704773386
1.1495849683938739183
1.1495867996942938927
1.1495642329851081254
1.1495161202129802192
1.1494417372935994415
1.1493454305788379788
1.1492222241917910974
1.1490848382682290474
1.1550021609428182678
1.1553550878164629001
1.1556722826014527161
1.1558862566647167824
1.1559582421901217764
1.1558861432066027675
1.1557142024028164151
1.1555155343731478013
1.1553603330493775747
1.1552920509819157857
1.1553224802491939283
1.1554322909531169472
1.1555821648807294011
1.1557373773782018134
1.1558711884703676276
1.1559685862603561457
1.1560268564379301282
1.1560585141992787417
1.1560770639012276639
1.1560990465153404561
1.1561394243039531116
1.1562001089376969798
1.156283680942316705
1.1563885242107525553
1.156519528651276163
1.1566749109592362466
1.1568467418287649018
1.1570038473998256467
1.1571051424677218922
1.1571188657378592701
1.1570347800133808924
1.1568733031867775018
1.1566712593971677503
1.1564667615412229651
1.1562871673674106621
1.1561494344644411836
1.1489907806616490582
1.1490382572683637274
1.1490792555748130521
1.1491115833513820821
1.1491372185781236759
1.1491608547273814978
1.1491880327791790251
1.149224051851819528
1.1492704168323462088
1.149325917436549771
1.1493826634916757268
1.1494317365300650291
1.1494605886849271759
1.1494611005264809833
1.1494267402136895129
1.1493553003672463131
1.1492525268172415487
1.1491164701898146649
1.1489655173276251965
1.1553540310138346037
1.1556856461868814101
1.1559029360238646245
1.1559614420632864373
1.1558652332337417956
1.1556728020905975285
1.1554611266305301331
1.1553029313415075219
1.1552396103043762743
1.1552700422917840939
1.1553687281632534223
1.155498291591834592
1.1556336456922706724
1.1557702162248515432
1.1559105298710306009
1.1560514640814287812
1.1561835259668413745
1.1562894504203491408
1.1563470974491314447
1.1563471970512069209
1.1563089599746729785
1.1562722014608133314
1.1562822896126516703
1.1563655115291069375
1.1565197559381916736
1.1567111814733892494
1.1568814060320278259
1.1569755088145305955
1.1569679268753392254
1.1568677569028393837
1.1567154847966345521
1.156557401024390197
1.156424264102644095
1.1563229735684406041
1.1488579958309270701
1.1488859178967512076
1.1489151782645807831
1.1489391204270735791
1.1489531457421515714
1.1489573014276972529
1.1489558680298286308
1.1489553631235702724
1.1489626831990684686
1.1489809963172379348
1.149012294151759761
1.1490513698471234161
1.1490929042375297442
1.1491224400027444386
1.1491324555559627729
1.1491107229937855827
1.1490567398524882403
1.1489707051896989043
1.1488564917967978296
1.1487291863122472968
1.1553499141267096206
1.155642852984456237
1.1558315571694479651
1.1558685583224634907
1.1557619872194415667
1.1555698436615475799
1.1553765494154391025
1.1552536714687986485
1.1552320488895251316
1.1552974014828676363
1.1554127560622124982
1.1555418143113305174
1.1556707589684551696
1.1558168198772289514
1.1559990359990011122
1.1562114237079168522
1.1564177116327241102
1.15656577596927157
1.1566104889832353741
1.1565453119037634178
1.156410365517380523
1.1562800780650086541
1.1562261288952633276
1.1562789960593282679
1.1564245390334331187
1.1566050247148198515
1.1567490026915068224
1.156804905477077039
1.1567614088420656859
1.1566459239572970397
1.1565092340772968882
1.1563964651612541612
1.1563276429527318268
1.1487849226880473275
1.1487899521128279723
1.1487903117907722894
1.1487815528596048154
1.1487632001118883718
1.148737447070670159
1.1487083869712615414
1.1486812439078404324
1.148659806804176009
1.1486484926973861143
1.1486462058790147811
1.1486532785770930953
1.1486613848424889195
1.1486689568762946667
1.1486654869584072003
1.1486512639669601565
1.1486182393288750792
1.1485711364813233626
1.1485070567398252273
1.1556038959124104171
1.1557498659060079227
1.1557791008989053427
1.1556948938463600385
1.1555470203969884224
1.1554117155925809346
1.1553479369628867346
1.1553747983153630496
1.1554669996668407439
1.1555797252826509602
1.1556880443877519671
1.155797973234089282
1.1559396236036132422
1.1561369306946467361
1.1563822186504912892
1.1566215597264741799
1.1567785034928574905
1.1567992883521289738
1.1566905349658376245
1.1565130230899598462
1.1563539736066001939
1.1562830626623672448
1.1563170675370275653
1.1564230091181071369
1.1565369371994063119
1.1566032156450731794
1.1565947338360145213
1.1565201862743159644
1.1564111944521600073
1.156311134323916967
1.1562516740273081073
1.1562396284553948522
1.1486831298133115542
1.1486557089790365715
1.1486199602611506521
1.1485759573072267248
1.148526276726669515
1.1484742045091564933
1.1484235455784399527
1.1483788555014755595
1.148343605214092733
1.1483216527449289224
1.1483126577220725828
1.1483193350895248841
1.1483376831889404723
1.1483681535250596095
1.1484024976919038341
1.1484374110843778016
1.1484617176988680676
1.1484729799581978593
1.1484564919923623272
1.1555649207710505522
1.1555950235852536778
1.1555693436485956482
1.1555188485007252819
1.1554904483667494119
1.1555164740130727807
1.1556050575733134433
1.1557333667118283582
1.1558671732443188684
1.1559888546026153566
1.1561058644130715045
1.1562391480510074704
1.1564064001422713623
1.1565990761850570845
1.1567732313321645865
1.1568687136878781363
1.1568509382103648875
1.1567336403007382195
1.1565767605163779219
1.1564527852924704199
1.1563999788082881537
1.1564140754242955289
1.156451186042485979
1.1564655803214201057
1.1564337427844535444
1.1563601924167099533
1.1562656829894208954
1.1561774327952543118
1.1561113196984205143
1.1560800004539395491
1.1484264944318209878
1.1483595351340547541
1.1482885204814730074
1.148216117156050986
1.148145581162917539
1.1480815159148516358
1.148028365121585237
1.1479886351735755223
1.1479658063095690146
1.1479598198596419056
1.147973887866510001
1.1480050634279663768
1.1480545405609434706
1.1481152066567970049
1.1481809504261322186
1.148242617423488765
1.1482917463290092108
1.1483150574473388605
1.1555074997938035164
1.1555724913283456079
1.1556397399872253562
1.1557054892530047585
1.1557839752049590132
1.155883781580631986
1.156006955276846826
1.1561436535830948991
1.1562824827767368419
1.1564153895084730017
1.1565371525215921711
1.1566488659171119124
1.1567452608843458162
1.1568155375016324626
1.1568421283418872658
1.1568186155833128925
1.1567523779326598365
1.1566660284664189717
1.1565899074309289318
1.1565284450237012237
1.1564748904053638867
1.1564013727596069714
1.1563048634212214072
1.1562013812339329011
1.1561151610131528145
1.1560586811127910867
1.1560321004995075533
1.1560205692069189798
1.1480478035080938781
1.1479676579377300349
1.1478932598020483713
1.1478259997492110678
1.1477665696038326093
1.1477156198785358754
1.1476733356565875788
1.1476395732007989015
1.1476163541543322744
1.1476034184450665254
1.1476053415421605397
1.1476217043300258602
1.1476579358789218421
1.1477120217656364698
1.1477828950284325593
1.1478646965415857384
1.1479489119137358255
1.1480204233404609493
1.1556694405330021347
1.1558428963006566192
1.1559871834386117317
1.1560882604212248115
1.1561671210802437759
1.1562578395351661431
1.1563852066461173251
1.1565433932415096763
1.1566987957567109735
1.1568096742810776156
1.1568455512033954946
1.1568160758914007857
1.1567583166433086372
1.1567124190469402212
1.1566974812632655478
1.1567083743002575247
1.1567183519280808124
1.1566938867191183249
1.1566126057484142908
1.1564699262590156792
1.1562880644662698604
1.1561035072099765664
1.1559663778694597713
1.1559039188733950532
1.1559098777208791642
1.1559499660693064449
1.1559866113680967725
1.147551086041243229
1.1474852267167543474
1.1474334248885356136
1.1473950215915735829
1.1473678140857574981
1.1473485382630699281
1.1473331413278720081
1.1473202711840828627
1.1473076312833982993
1.1473004628580856235
1.1473000745230914621
1.1473163616689476818
1.1473526840927383841
1.1474150940146987665
1.1475020168372409568
1.1476084301308766555
1.1477161101781816477
1.1557971950748937573
1.1560053109670458404
1.1562058755324882142
1.1563424879524231148
1.1564053858200928904
1.1564258030474230399
1.1564618510945963159
1.1565561555317287468
1.1567070823953109482
1.156863974155585062
1.1569602750611447384
1.1569543637053893992
1.1568591567294748135
1.1567317283846312304
1.1566438734695763113
1.1566330676133995681
1.1566785584556988908
1.1567160871928943155
1.156672341689485517
1.1565147032501603697
1.1562661354626626586
1.155992232243343798
1.1557718795316327398
1.1556604061429232022
1.1556720621693759021
1.1557717476541382595
1.1558924946340554119
1.1471959849130850539
1.1471636312086479492
1.1471397300044252621
1.1471228140666205331
1.1471099598925951213
1.1470973360542411346
1.1470832510726758358
1.1470650528406478585
1.1470478845103053711
1.1470335762769998666
1.1470333432194013135
1.1470510466596546273
1.1470955168948853142
1.1471686995341134896
1.1472710300256458993
1.1473894203948253878
1.1559642243422301178
1.1561363970147304769
1.1562909717600704518
1.1563971187383843553
1.1564457822867462156
1.1564639755624137596
1.1564956490585318605
1.1565769421687519536
1.1567067815445533085
1.1568497707952880571
1.1569478683618572568
1.1569594092603530111
1.1568889122928773805
1.1567857665348941776
1.1567136763567125168
1.1567044240717820891
1.156739210150248498
1.1567553981216176506
1.1566804266359478337
1.1564860146410491648
1.1561894743834115751
1.1558701250059977284
1.1556172535544915192
1.1554940669591748925
1.1555131707379193706
1.1556309939570199585
1.155773320845647989
1.1558736664694937435
1.1469685366992274922
1.1469839339715333093
1.146988663650651441
1.146977702829895307
1.1469486477526362744
1.1469026302055003175
1.1468423414090072043
1.1467775751953974694
1.146715879080972833
1.1466722429374043291
1.1466552003879475485
1.1466774409805593482
1.1467432087011291131
1.1468543538624154099
1.1469992901445016376
1.1561983200048220333
1.1562887143041837845
1.1563561331025182799
1.1563952049435120006
1.156419403222058051
1.1564548975471728998
1.1565296010732124543
1.1566506587104359305
1.1567968148269556217
1.15692329047857001
1.1569892867951798721
1.156982239731063844
1.1569242471036800257
1.1568508283138672077
1.1567910153347551461
1.1567424260757463994
1.1566747443876712609
1.1565464501972924083
1.1563288071899144871
1.156039237454826063
1.155735671831219058
1.1554940081428790588
1.1553765590915079375
1.155399229975546227
1.1555234176576345551
1.1556779627034465818
1.1557939761712179294
1.14688452798202567
1.1468552838866847843
1.1468038475679316335
1.1467330636914327968
1.1466490044716288743
1.1465590199700332885
1.1464748622826534952
1.1464052109511406741
1.1463626177415007223
1.1463542425821053872
1.1463888143124147945
1.1464658422138336302
1.1465849228800653048
1.1467299570635474115
1.1561784967134274282
1.1562259516083479571
1.1562743340736718611
1.1563248661103042725
1.1563916691826809924
1.1564925932080500903
1.1566399605120039062
1.1568188164338804036
1.1569909324079963309
1.1571130692537583418
1.1571520952557960982
1.1571021736996844886
1.1569810074866773153
1.1568235518084766245
1.1566607515230376002
1.156505432899580077
1.1563438575204949554
1.1561533405232709004
1.1559227323793181963
1.1556755521039969725
1.1554662637785626522
1.1553455254000617458
1.1553375581391980287
1.1554257084620138674
1.1555553259543180911
1.1556586842792864189
1.1468189990083133001
1.1467056210274984007
1.1465774576711056376
1.1464471431598921569
1.1463255680587458585
1.1462250071634541015
1.1461516150399173597
1.1461144772115683388
1.1461140938541947154
1.1461542374210238471
1.1462280126586836815
1.1463344851157597493
1.1464606380861004364
1.1560805209227618118
1.1561567262054599503
1.1562455126787396509
1.1563534912823980605
1.1564923221040892543
1.1566724765015818921
1.156882668055035035
1.1570912234399044483
1.1572516550322471396
1.1573136251317770462
1.1572490158868413701
1.1570689525045976254
1.1568188187139814005
1.1565638602588179662
1.1563514744748557561
1.1561939960293374785
1.1560612724854626432
1.1559127194560512297
1.1557390947424017735
1.1555625949161978383
1.1554355304175638608
1.1553932787242089386
1.1554424832644241139
1.1555446090004473092
1.1556374228681431937
1.1465744147554268739
1.1464025619429509817
1.1462392699556247511
1.1460986191883539842
1.1459926990506998923
1.1459253108737876836
1.1459004219236683664
1.1459120557417208364
1.1459585851397962042
1.1460309108193778016
1.1461297086997290773
1.1462386164070113015
1.1559390653266252702
1.1560577717146556243
1.156204159903469364
1.1563884619350837113
1.1566129217538909657
1.156870298490128679
1.1571266977334904169
1.1573255813015175253
1.1574039136808360606
1.1573235394050449543
1.1570945603448290484
1.1567811941738668224
1.1564746449412879326
1.1562487374729706335
1.1561235614436138341
1.1560574111246191276
1.1559874906581839582
1.1558718007307551279
1.1557167912575574409
1.1555678866331913213
1.1554768796919607787
1.1554648795228470437
1.1555137170087836918
1.1555682648698841763
1.1559248888844586567
1.1561152119775310876
1.1563495554927800679
1.1566230970503443842
1.1569213983338728635
1.1572006079793457634
1.1573986742974795572
1.1574519804345915208
1.1573239445361560573
1.1570382987659892926
1.1566779672074494201
1.1563514993980970047
1.1561391980161317417
1.1560547622699730574
1.1560513540743411198
1.1560521127990159851
1.1559991690748179227
1.1558870915630248266
1.1557507900831620606
1.1556435294960485383
1.1555952102137854176
1.1555964399433129586
1.1556075985632177083
1.1563486488436605093
1.1566694287865220137
1.1569967943016798984
1.1572781657605435424
1.1574469385114358744
1.1574487907555877086
1.1572630231611826801
1.1569336638352847313
1.1565534263888035404
1.1562291569316986983
1.1560298854145079073
1.155967264638970482
1.1559905694562300216
1.1560278124239471431
1.1560244284375613688
1.1559718027304264343
1.1558836073731284522
1.1558039134280047033
1.1557544119606637523
1.1557270519596833935
1.1557023883278150223
1.1573644644301974704
1.1573197708407787498
1.157109530691937227
1.1567916956485930768
1.1564544720062319705
1.1561794077387697044
1.1560121164741723465
1.1559536976342215109
1.1559628390441869517
1.1559901918770498774
1.1560014418472808195
1.155979636083799944
1.1559364437515999846
1.1558816708347194879
1.1558229123073293643
1.1557588241483640612
1.155682443852469321
1.1564370410135411671
1.1562419582802174745
1.1561153363298861674
1.1560481340342496637
1.1560232842860913571
1.1560168760979938618
1.1560220557517371098
1.1560295450938313788
1.1560309333655545139
1.156004273031430829
1.1559346935025500702
1.1558165715595287715
1.1556623485196690915
1.1561818032935857747
1.1560389376126818384
1.1559187188721498085
1.1558277217965340355
1.1557797557030551339
1.1557879428408215361
1.155850352772411993
1.1559333742888728835
1.1559865401345890135
1.1559651574362710402
1.1558575235862846853
1.1556837464335920629
1.1529040343018213122
1.1528280176899947662
1.1527431295108905296
1.1526585021481197124
1.1526234567432183109
1.1526867752415450585
1.152853697734885996
1.1530701025557756889
1.1532613727744780441
1.1533904823812657359
1.1534823673306415781
1.153598325323240692
1.1537837424440056111
1.1540317515218101452
1.1542768978998756424
1.1544362764882993844
1.1544566880668358788
1.1543454785216820113
1.1541764766502113915
1.154051864423075946
1.1530986554701101454
1.1529492879418103968
1.1528697776526704022
1.1528072225381249538
1.1527523294304469204
1.1527394688658569866
1.152809036019116995
1.1529566958585404368
1.1531253760179138723
1.1532431212472287196
1.1532885112254793736
1.1533102548259390741
1.153386376547919534
1.1535730948244691252
1.1538640628855096892
1.1541863247148098637
1.1544453677647816825
1.1545633704062892022
1.154523241962051916
1.1543832533267712748
1.154240610848981774
1.1541785307639980118
1.1539939029791839165
1.1534991884157950182
1.1531439406079506682
1.1529357736703702564
1.1528233316372851203
1.1527514876464313165
1.1527003994055253777
1.1527002334664162575
1.152789753437859277
1.1529531032849198446
1.1531223571674049655
1.1532183336933226059
1.153221020083441184
1.1531937610586853182
1.1532277898699259122
1.1533867819955292422
1.153671765136100813
1.1540126381704680636
1.154314421174579719
1.1544875020435672042
1.1545018263621038557
1.1544003820620782896
1.1542728124648620192
1.1542004307943816155
1.1542021125738943788
1.1542262437725330226
1.1540165832669939672
1.153539940412731557
1.15312340405924596
1.1528418961782325169
1.1526905087516909898
1.1525988713001535935
1.1525090264646737914
1.1524165453610026866
1.1523789914807105461
1.1524679604848675485
1.1526784199157236177
1.1529289834230225242
1.1531142298067305063
1.1531817962699453251
1.1531723033836338566
1.1531690654171709021
1.1532375152621219261
1.1533975407063210561
1.153610741561916786
1.1538124897096402321
1.1539293573205375854
1.1539347867766802658
1.1538608756573291991
1.1537847157810405818
1.1537712539580946558
1.1538203141574645549
1.1538647544772973053
1.153818433806452548
1.1531732412753603612
1.1530220028859849979
1.1527941633701157542
1.1525660143612039832
1.1523998476913650535
1.1522998983653891525
1.152220385365209987
1.1521319167465482458
1.1520678850463572651
1.1521078244238591726
1.1523228050018776703
1.1526808822487821793
1.1530476565933831523
1.1532710554224823163
1.1532747022219940192
1.1531059995887638081
1.1528863600344678719
1.1527312523892812024
1.1527091617560121239
1.1528219564748989345
1.1530166422612526667
1.1532049177809142737
1.1533246055204213754
1.1533670535735087714
1.1533815647045495556
1.1534232955127858844
1.1534964267292431295
1.1535498430480044529
1.153526790601992591
1.1534168530203434688
1.153410835353397168
1.1534873971238777113
1.1533972018470228793
1.1531843292012136093
1.1529600522734761991
1.1528111311417383877
1.1527413342823840114
1.1526840552757333658
1.1525835165968716378
1.1524681153534515055
1.1524298647752677649
1.1525641927779659568
1.152865399887729625
1.1532059120974123001
1.15343316764346282
1.1534693859580711361
1.1533554526249836236
1.1532059528243754354
1.1531255860142202163
1.1531684048541328558
1.1533330296457997566
1.1535648301879923849
1.1537780480646420145
1.1539139344670070741
1.1539703364641564765
1.1540028581217969261
1.1540707002699706063
1.1541688594737686824
1.1542339207188461181
1.1541974143603981329
1.1540450736775151874
1.1538261829648457368
1.1541400287479777198
1.1542478657694565936
1.1541694153159267611
1.15394567178623908
1.1536966940684669769
1.1535244008661249548
1.1534427457109657222
1.1533868369686244293
1.1532906503479025684
1.1531724137185790369
1.1531275456344676211
1.153247198421353259
1.153527005649052084
1.1538319481600864957
1.1540026302935766367
1.1539664454770135471
1.1537740343320330716
1.153548059646334778
1.1534010003096757391
1.153389182302184901
1.15351578579067926
1.1537263839698337353
1.1539336053888828992
1.1540680650184820255
1.1541202346102199527
1.1541423334603233553
1.1541892562604605388
1.154250567411431172
1.1542538322851123578
1.1541303350181089105
1.1538741565028232117
1.1535446126179831339
1.153225593737167376
1.1524125178665991509
1.1526357062047729585
1.1527894522631514374
1.1528233034561392589
1.1527560547596016338
1.1527048746067731777
1.1539725569607373057
1.1540413710916794798
1.1539101126973494438
1.1536295013193382797
1.1533316089937564186
1.1531252721054885413
1.1530240406174481205
1.152953542995964975
1.1528344984312244303
1.1526774508733639291
1.1525869550181362388
1.1526604700212677024
1.1528997662426656579
1.1531689456851479392
1.1533015475289609686
1.1532265963109478157
1.1529982552495572357
1.1527422759264649432
1.1525734741083704105
1.1525464310486233099
1.152662566658712251
1.1528652893448121386
1.1530655063386490156
1.1531856197593912672
1.1532143235455438735
1.1532077904921926859
1.153223976848821275
1.1532552970557821137
1.1532280361179423345
1.1530754723322544919
1.1527941584385290597
1.1524454798553489532
1.1521158122759147524
1.1518770738902370798
1.1513615574104358874
1.1516502611899566144
1.1518450191383775572
1.1519746207688770223
1.1519813557436675566
1.1518944070185843653
1.1518363274348737413
1.1521171540965791102
1.1521827475450934219
1.1520451686984185535
1.151754949510962911
1.1514483371445844995
1.1512374242666738589
1.151136249549727042
1.1510661657669394309
1.1509469555945543995
1.1507854635267622534
1.1506907026222139567
1.1507643764170276679
1.1510089371259648594
1.1512873966112009416
1.1514265577389930506
1.1513559446967642774
1.1511321605053399519
1.1508814685093373686
1.1507205770178510207
1.1507034235931190569
1.1508314110101194316
1.151047573078931352
1.1512641664519005502
1.1513982633731141281
1.151437973695340844
1.1514429547808382459
1.1514716976980217122
1.1515156722217489982
1.1514993773272494959
1.1513555361640179786
1.1510830061543571023
1.1507468912211955558
1.1504332235911822746
1.150214091482995471
1.1501353025854734735
1.1490963414155723754
1.1490227415360028118
1.1489392300409484449
1.1488527573008864291
1.1487703052801541137
1.1486971416064064577
1.1486366258984903599
1.1485883250103270381
1.1485480827781062718
1.1485096970184212051
1.1484691927074019979
1.154900458742955438
1.154971365630925062
1.1549159647924061023
1.1547964531674390631
1.1546954657632171326
1.1546635392562036859
1.1547013055372949974
1.1547755748048376123
1.1548636480328051679
1.154971780952946725
1.1551197086511408862
1.1553146882484286451
1.1555366958048181036
1.1557397474174480045
1.1558746818088450059
1.1559103765760569971
1.1558462050525999398
1.1557048020540134914
1.1555238402495093819
1.1553445643652300312
1.1552006040066338244
1.1551172026895546452
1.1551058070052790949
1.1551728424375464765
1.1553201844393399256
1.15554542805994509
1.1558359845712709024
1.1561657388633332921
1.1564875031937871253
1.1567509047549242585
1.1569019243076845704
1.1569105079192070207
1.1567791535858142904
1.1565425116288436946
1.1562652764390963789
1.1560194534203476202
1.1489412609667686294
1.1490214782165499852
1.1490897466644569569
1.1491440007927418154
1.1491829559721202791
1.1492043301189782678
1.1492057667765094298
1.1491857079839469247
1.1491441255922498765
1.14908319310864937
1.1490055524378373075
1.1489178852652452978
1.1488263848581803384
1.148740499083469091
1.1486672102971742238
1.1486118901910142842
1.1485759079165562824
1.1485555252183397013
1.1485429801456041865
1.1485274558255389454
1.1485048279952407846
1.15483136408401732
1.1549349098096133304
1.1549125815878764634
1.1548214979832356342
1.1547332052868795049
1.154697112147138105
1.1547124347682069523
1.1547612858799893854
1.154838604643100064
1.15496159782854102
1.1551482505948558188
1.1553884899595738833
1.1556399767575333826
1.1558413143687773506
1.1559466676763192616
1.1559421455419209845
1.1558494514781099127
1.1557066011508625447
1.1555482619453358861
1.1554014974193900223
1.1552805727366071142
1.1552020272686429614
1.1551804733608732612
1.1552295243598280639
1.1553647373846067659
1.1555841815838134856
1.1558756877694327247
1.1562063850381865127
1.1565267482151666556
1.1567791649218652772
1.1569093767848757093
1.156888244647302999
1.1567214048586926811
1.1564546007863567567
1.1561661413697033041
1.1559347122013186038
1.1488119670405276818
1.1489148448261261581
1.1490086484713204484
1.1490883525436521584
1.1491496184099019295
1.1491877320355026182
1.1491989875517105713
1.1491807323819127618
1.149132937509623531
1.1490593762259229127
1.1489656772704008869
1.148862654141439954
1.1487598826222775728
1.148669624829151692
1.1485984316013362339
1.1485511245519230972
1.148526891887145629
1.1485203674576365263
1.1485215512584610043
1.1485174388605425833
1.1485038685715107665
1.1549583794236404355
1.1549876171451247675
1.154957784384478936
1.1549123880354850158
1.1548760119080361264
1.1548528886717024378
1.1548495169997554655
1.1548900989081321011
1.1550045198732152851
1.1552030127577026519
1.1554549938359062189
1.1556991341495914671
1.1558727197515066276
1.155941975836871638
1.1559132072922564394
1.1558190866280013687
1.1557024380771712124
1.1555857585243076713
1.1554786952864064542
1.155381318969289639
1.155300031260057203
1.1552598567033178778
1.1552880726935776945
1.155409159041957512
1.155627940736284609
1.1559240725886033019
1.1562532190661505282
1.156559580111475638
1.1567833112079897173
1.156878466081300294
1.1568215889757151871
1.156628237074755372
1.1563563795478406515
1.1560838702175930681
1.1487008796291684476
1.1488043138859587167
1.1489033929601326633
1.14898998492061577
1.1490554886993100681
1.1490929398468729961
1.1490968331675404102
1.1490647242831864006
1.1489992533616140147
1.1489066417688549304
1.148799477127901536
1.148688388921616621
1.1485881350269202539
1.1485058116381299254
1.1484490466725523206
1.1484165481979826673
1.1484060245789153853
1.1484068587493891922
1.1484096302497757147
1.1484086483596593897
1.1550321741551248245
1.1551245010736017615
1.155180671318746688
1.1551915495052087479
1.1551545136680976267
1.1550844942641322888
1.1550216763511138574
1.1550241511879535405
1.1551270009325256272
1.1553200375351251328
1.1555511146896069175
1.155749840250841487
1.155863103457394736
1.1558773781767053279
1.1558225808287392322
1.1557436651444406017
1.155675891344595696
1.155628424440687585
1.1555865096441528816
1.1555353999178403779
1.1554726840966633716
1.1554240901597239155
1.1554313630540278268
1.155526465187429519
1.155719261378321816
1.1559841964845514184
1.1562718853490245863
1.1565254109808624783
1.1566946608323818158
1.156745478841554764
1.1566713847477401167
1.1564948029157302578
1.1562669021155698168
1.1560552306222453556
1.1484352055312911922
1.1485365730068015644
1.1486501669949080728
1.1487646653888032855
1.1488669361794079382
1.1489446054399634622
1.148987337444032697
1.1489891540277654691
1.1489495032580379075
1.1488721738872518241
1.1487686662217766465
1.1486501182197392801
1.1485334426898237137
1.1484283410445270679
1.148346914238923544
1.1482909168902446506
1.1482628101465319759
1.1482531529964123962
1.1482589016681199467
1.148269254109327342
1.1552307284064238235
1.1553715155385690938
1.1554427067814330155
1.1554112253179975589
1.1553085073750453127
1.1552083576853817704
1.1551883978120551788
1.1552763005004060837
1.1554397608793924856
1.1556150424506561603
1.1557387275573667296
1.155780506881535441
1.1557501160246026473
1.1556944792880119444
1.1556609240401085614
1.155668583543752348
1.1557072424887548934
1.1557423806124305088
1.1557432627657222568
1.155704684363472845
1.1556538094706967357
1.1556382362504777905
1.1556962268065151811
1.1558392500450693774
1.1560436992013214397
1.1562623486484482349
1.1564448302090655218
1.1565540585316700373
1.1565735743210112663
1.1565058482166852283
1.156373115216462466
1.1562132193601433183
1.1482487846306677071
1.1483456892195378352
1.1484619121858230528
1.1485836204978525643
1.1486956659412852488
1.1487828927136589652
1.1488334874891377169
1.1488405429742392094
1.1488022632159946568
1.1487259248991301686
1.1486208780553655018
1.1485041470562660226
1.1483876354469784165