/*--------------------------------*- C++ -*----------------------------------*\
  =========                 |
  \\      /  F ield         | OpenFOAM: The Open Source CFD Toolbox
   \\    /   O peration     | Website:  https://openfoam.org
    \\  /    A nd           | Version:  12
     \\/     M anipulation  |
\*---------------------------------------------------------------------------*/
FoamFile
{
    format      ascii;
    class       volScalarField;
    location    "0.014";
    object      k;
}
// * * * * * * * * * * * * * * * * * * * * * * * * * * * * * * * * * * * * * //

dimensions      [0 2 -2 0 0 0 0];

internalField   nonuniform List<scalar> 
75962
(
3.1622350757192601558e-05
4.5165330585899636756e-05
7.4430302319314673603e-05
9.7189118296314673117e-05
0.00010739360330107343899
0.00012065433492350371276
0.00015320777401426748663
0.00019666825018744684491
0.00022787828905928794211
0.00024805559239811370009
0.00026320863074734559368
0.00028659297750869986224
0.00033771449485088940413
0.00042047874222234023775
0.00050098649143968574347
0.00054971737984966758447
0.00056696620711910541458
0.0005738314152735221824
0.00058756014489532294547
0.00062649972161132915557
0.00072067004909337538474
0.00081932798792234474462
0.00088446938501902374816
0.00091450024240883589968
0.00093976804337732777663
0.00097379172556921864048
0.0010102707197996944194
0.0010530230056982044316
0.0011207093497461741941
0.0012231952595733119014
0.0013435645877807357584
0.001448063505667651716
0.0015129681775890133251
0.0015417325264559162724
0.0015582712747410430287
0.0015886706381299687142
0.0016621425651102412872
0.0017819614096584298832
0.0019122005825709480469
0.002024629116779851426
0.0021009655925143880251
0.0021491359322976990448
0.0021953597993576582162
0.0022589556347358749622
0.0023387832698591329642
0.0024205281648772493559
0.0024963903839399885498
0.0025777660055177507512
0.0026835962058128904999
0.0028157645661738318899
0.0029523472763634968884
0.0030674495977835356496
0.0031518686888792092626
0.0032208112082335368237
0.0033013507494702044182
0.0034107434113193326949
0.0035459686026149644759
0.0036876130363758525925
0.0038115320824622035863
0.003901869305124378972
0.00395632349718557947
0.0039844364735032071836
0.004003948932676947188
0.0040354670014935301731
0.0041063778695854726702
0.0042566562239832088713
0.0044394166572789316508
0.004641440849767520388
0.0048505817118844971741
0.0050418577461141759338
0.0051872455314984008967
0.005276285804691813533
0.0053258482352246073674
0.0053686999596033683352
0.0054324401078751855323
0.0055253828646279522577
0.0056419765070468913884
0.0057694561182986938211
0.005891685120017314467
0.0059929535213041505368
0.0060650167866353613469
0.0061113975729223729214
0.0061451023949752109007
0.0061860252065792297946
0.0062635292081215671739
0.0064401103730971380121
0.006736463361083648918
0.0070862050796404937869
0.0074391897842753188647
0.0077407971031923763008
0.0079524473785340197424
0.0080695282659986340007
0.008116126946034012829
0.0081242219574241027191
0.0081213068164541872551
0.0081083721857816391798
0.008101248911775269998
0.008101311070163217179
0.0081142807422876338935
0.0081732896033139840891
0.008311773841256902412
0.0084464382757696281762
0.0085831996093629191885
0.0087397141517653112452
0.0089295888091609071369
0.0091632123563051524895
0.0094451241825097651678
0.0097682242588732655364
0.010108289307043520286
0.01042830796463786909
0.01068566254536542498
0.010851434336025107125
0.010927352830368409001
0.010943630064790568074
0.010937886090047123366
0.010898977503559875019
0.010824929533031605461
0.010785994485835453602
0.010774409961175483372
0.010775782970237679503
0.010797672963338431074
0.010888145771638726989
0.011039403873848298993
0.011200270574022855308
0.011386159819739461938
0.011607234952728445743
0.011866054389297355648
0.0121566484129784734
0.012464876676802055105
0.012767805100586617287
0.013036202240474404485
0.013242157706699737851
0.013371736202248728567
0.013428382866121872999
0.013439663121954987038
0.013433118013389306125
0.013398566945622993746
0.013359755114120963615
0.013348565832608414242
0.013355449155039125775
0.013405759120842949961
0.013616928845810576457
0.014078314063012528981
0.014499654509379048331
0.014850907081172289373
0.015123172037043053351
0.015304683409978439568
0.015403822197665463165
0.015458479440692144899
0.01551782366425121483
0.015613154746627380329
0.015752926165497799921
0.015924864092998199799
0.016101239898907018094
0.016250488824422610473
0.016354295975408727343
0.016404381828946421051
0.016417703062753842558
0.016414646148405646897
0.016384830975846809142
0.016278068496204948362
0.016170070668967299887
0.016115334629328487148
0.016100910168379840848
0.016106716135409534368
0.016155521192788197676
0.01635992438846300967
0.016774519624532573114
0.017135783917374945023
0.017432691875797469427
0.017678046615878576647
0.017885852003435533802
0.018062546792435917736
0.018211512972201956972
0.018329184340045472784
0.018414685327724302638
0.018468296327741121066
0.018496472275845908528
0.01850568356636678527
0.018507260188029481945
0.018503623854360298079
0.018483309762692259892
0.018413607910248767224
0.01832925672374276227
0.018277679410510918462
0.018259735738945941791
0.018260693013468123902
0.018291259245714865805
0.023407065061279989232
0.023487231280529020927
0.023530646323980421164
0.023546378609478023358
0.023549211674444223141
0.023544803398613166345
0.023516905601684515853
0.023423091181605376621
0.023318493052914387315
0.023249920191070541642
0.02321522019729876235
0.02320480892063079767
0.023205207827449871039
0.023216714733657044245
0.023266334588229149044
0.023410889889534373942
0.023600253329738262592
0.023807156354107069512
0.024040793006816271044
0.024299164626598240141
0.024572161200770846479
0.02484017477987920941
0.025086589761991590769
0.02529599088874531429
0.025459590474496796714
0.025578000393027305187
0.025653545647365043336
0.025694709998610766599
0.02570911719440245255
0.025711859169458034513
0.025706100453602168804
0.025671628316864519154
0.025543476560254279456
0.025331586058088918778
0.025163357341195458083
0.025050720086088336391
0.024987796192029718134
0.024963682047712421747
0.024960336579174974975
0.024965797565184383311
0.024995821639145161808
0.025102932068936021498
0.025346387126135298123
0.025599643207399491729
0.025847583259440296
0.026089761992120447803
0.026321060938309839838
0.026536315799437458496
0.026727347714726696487
0.026889672261154688032
0.027019997304741173727
0.02711938588724906174
0.027187834578372187949
0.027229295471815136154
0.027249425966713359398
0.027255400957927035377
0.027255441245195400485
0.027250235049094354706
0.027226512461886974437
0.027153316881304997987
0.027058343676268036687
0.02697106757490771306
0.026888290947662471519
0.026807375236368301274
0.026727178912642136216
0.026648565291284429662
0.026580182026220235125
0.026528135282830551944
0.026497820691232437662
0.026489120759592872656
0.026491561148978205048
0.026516004631478899689
0.026622663929388837994
0.027001993945294705535
0.027768814405553711444
0.028467331269222902884
0.029045337596786912487
0.029499280705775510203
0.029843162739112055748
0.030098376883042732288
0.030283961428957673068
0.030409358393036701323
0.030483471322473764537
0.03051344784087168735
0.030517917215448709528
0.030508313574810347335
0.030451865629481676689
0.030237983100390150581
0.0296931776462618785
0.029152931775940742198
0.028720312814866252177
0.028403230947424314146
0.028196264282192125966
0.028082222849315226221
0.028037228703459218804
0.028029418186123630785
0.028036710390372629464
0.028083274449010757479
0.028261690770628004887
0.028773133539608565512
0.029357827708642533077
0.029848877015093595866
0.030236994135632418168
0.030519814955908983189
0.030710300153966463982
0.030825237902876913981
0.030886853885593024832
0.030915312667121143397
0.030925278609066682994
0.030926485752327263073
0.030925215567303269287
0.030919102097272513352
0.030897192901740498649
0.030826522354488732069
0.030600919927121918163
0.030191699905313989366
0.029799316630260933025
0.029449422161837820328
0.029152653506262227179
0.028913116438488869336
0.028734629269349561131
0.028611934685849334248
0.028543512584377081498
0.02851453277707062875
0.028509772824203308966
0.028518757174738021409
0.028575213910313805588
0.028797170256719375331
0.029418173922500644168
0.030097783059863148641
0.03066005104443847093
0.031097880020653737021
0.031413846828136762768
0.031626189933564412271
0.031755970582089593224
0.03182816184978857349
0.031863092150842792227
0.031877104031320303845
0.031880998212206974884
0.031880384703724763684
0.031872656192558371235
0.031847147091924606077
0.031773472067948567432
0.031551336130208940123
0.031145630953025124632
0.030734782197238352808
0.030337796327939738072
0.029970373589862663727
0.029649178210759512264
0.029386361217181331679
0.02919705635525744053
0.029077544622606331381
0.029024977955078794245
0.029013558463759549916
0.029022228572966404098
0.029085383134776796737
0.029337469472171300022
0.030025745382744377376
0.030748411651722287047
0.031340254149861614119
0.03179913421180434463
0.032136703278034500775
0.032374377922609519354
0.032534697399939763174
0.032638428359632182252
0.032702071069235415235
0.032737749002429587797
0.032754430773320845904
0.032757799982031682307
0.032756367632150694413
0.032751731272038328568
0.032741634998911306464
0.032717295139551447192
0.032651014691690384562
0.032455890983292830232
0.032022159457067905786
0.031554962481071188729
0.031097447097873303495
0.030671504148898399295
0.030303068234712349227
0.030009630757534166284
0.029805028405761990751
0.02968657264604522561
0.029638287515090490365
0.029631858785464031125
0.029644522476807221717
0.029718293596898110592
0.029998737013553974928
0.030707174719790467088
0.031421666298854039612
0.032026407637348222601
0.032516760256804708162
0.032898143825583342492
0.033180837613337538228
0.033382881027837839338
0.033520062496689519149
0.033610931859214245032
0.03366621864857668317
0.033696866443760589704
0.033712098656287090015
0.033716495125414018552
0.033715355129507906806
0.033707050790603522439
0.033670634932056305033
0.033537437249920101778
0.033093204160888636811
0.032339879620457687159
0.031651067741322300164
0.031067712897413758688
0.030610844008116484816
0.030288958316031754092
0.030095724554934710077
0.030004375334515734353
0.029982173744796364323
0.029986141891363757989
0.03002479005804406173
0.03018458123811809668
0.030706224738629498555
0.031434722549222887666
0.032065709709410035455
0.032589333943799078663
0.033007381921176727479
0.033322098650666778785
0.0335508288414618841
0.03370958072974891695
0.03382028209010808778
0.03389738933018607292
0.033958653121617672632
0.034010848067930400662
0.034059499591310403444
0.034101849889516575032
0.03413659833617611189
0.034159178141646998061
0.034170924171401093061
0.034174099443241193197
0.034169114458108128252
0.034131668927605329777
0.033975354074604821597
0.033426961892081490102
0.032451943863978607863
0.031595104177142230295
0.030922506637077833841
0.030458856798602246263
0.030195224864767011147
0.030090462059099844921
0.03007621701644563536
0.030106600805166222612
0.030283619653625439699
0.030957195239829152916
0.032279237002293861836
0.033453796603569070645
0.034394524375510313052
0.035111012031963900748
0.035622495667758991011
3.4819684544870698579e-05
5.1685337510152120721e-05
8.5590610407318195793e-05
0.0001109735319168648934
0.00012000985418775078726
0.00012817313967961041499
0.00014942527667904543782
0.00019976186617589515603
0.00024930274636216935352
0.00028151148223268284473
0.00029796609289175585112
0.00031333356904377407306
0.00034538920193895880986
0.00042138984971794312979
0.00050683935556870049043
0.00056418851579794263278
0.00058852408810436429056
0.00059754361654905526705
0.00061152532121795026652
0.00064739542204700242616
0.00074197068546841499301
0.00085544228542478676497
0.00094404987500272498011
0.00099788082212140961219
0.0010238472012933756694
0.0010381123390659262665
0.0010592583514068575935
0.0011067652222119797253
0.0012005846662640777458
0.001314040107977636207
0.0014251230789714009611
0.0015121716386067942696
0.0015642040817916320894
0.0015875078010558116813
0.0016015436805897841598
0.0016275467181279112006
0.0016929519853207373754
0.0018498664079791879
0.0020267667076048052031
0.0021749426659341962627
0.0022736933389931302495
0.0023234301265599916798
0.0023460119289464235331
0.0023727505171491523536
0.0024346770947801829425
0.0025819818548885116634
0.0027240337149666356449
0.0028170162439630466907
0.0028807128201126645274
0.0029513418447172042915
0.0030406264424038403904
0.0031344023191777078095
0.0032184210821774687783
0.0033005814343774401813
0.0034070893013122350093
0.0035577199137217809487
0.0037416035462134668473
0.0039202402819541303652
0.0040587335311442710589
0.0041511843078843738489
0.0042114541837749109796
0.0042544098131599063922
0.0042906959925291332861
0.0043333340978220060216
0.0043944305194300002648
0.0044838806696670622381
0.0046098285351714989727
0.0047806520243339244505
0.0049947538128871172072
0.005226592755677096809
0.0054304650823924901712
0.0055676373575486281381
0.0056337013324012025564
0.0056626780386237231257
0.0056995271831654110289
0.00577599075815480624
0.0058983203351331706457
0.0060481953634942834178
0.0062013794196741876819
0.0063398134671542420715
0.0064572909119216788734
0.0065591637737861868337
0.0066568513840928201369
0.006763449142595695171
0.0068925538442864871247
0.0070577989441085835221
0.0072682604135624866853
0.0075197489719014401141
0.0077870494044871797421
0.0080321847633864854737
0.0082213091851233849328
0.0083402456625819125502
0.0083974316947957820118
0.0084160119063387654748
0.0084166773415690013943
0.0084137943051168697511
0.0084115817849477816925
0.0084152579782613892018
0.0084414507288267503354
0.008543820122849920054
0.0088211461721127149005
0.0091255946194541987665
0.0093944402558616656174
0.0096251625686236373658
0.0098247026036052623882
0.010010327892667059482
0.01020321279685503478
0.010423019612405857309
0.010669865962108242632
0.010918602700133192215
0.011130919233433792664
0.011274939719085174533
0.011345017088960284227
0.011361521494625334908
0.011357672617699789835
0.011327694691139814781
0.011281313571522734798
0.011263568651364040674
0.011263468394615557683
0.011283350341349075024
0.011380309426210932777
0.011637635816137114828
0.011904368695699116612
0.012145218975681661491
0.01236413183637251334
0.012565405127867581084
0.012758668108734275842
0.012959759606478438165
0.013179616889278773784
0.013409657145979237552
0.013631147292481571656
0.013815546197939551631
0.013943407594310978578
0.014010235913043201164
0.014030682819453995161
0.014030283589740667055
0.01401948389728216969
0.013999234647344196633
0.013992814566582604738
0.013998404123554093054
0.01403529455616633892
0.014191608038439903691
0.01451566287511854049
0.014811706777608093372
0.015075043519062573949
0.015312537549677717602
0.015531241776061542603
0.015738439051576305627
0.015941230328077399259
0.016141520112255107466
0.01634015492370508027
0.016533249189598371587
0.016710098341354968215
0.016857365823422718054
0.016964171708169304559
0.017025545677251081172
0.017048775135853528467
0.01705116778816721454
0.017040287432993909272
0.016980066771995979552
0.016853883998845763104
0.016768828491495402916
0.016730411490852654249
0.016725389676562341101
0.016740615322366477619
0.016832288827213544996
0.017169347337282730992
0.017650535976974551788
0.018039839920772959836
0.0183487955188610663
0.018597133282614655703
0.018803876783768179448
0.018979011903719807813
0.01912770897839847703
0.019246331994561906992
0.019334239320554783698
0.019389928495725138741
0.019419875675336404491
0.019430123678425049311
0.019431050731777661095
0.019427697563373667877
0.019410308860901292344
0.019348149334291700474
0.019265165944821617539
0.019213415770593159776
0.019194173388812990622
0.01919472177206212743
0.019225075126403725484
0.019369382627873840685
0.024385721904019275197
0.024531710752149538807
0.024637014409250465596
0.02470110209345663041
0.024730311591558255119
0.024736962292169231009
0.024734483551457884382
0.024712029068841911278
0.024628219491468220093
0.024529376892726145049
0.024468952163371762709
0.024444572864251550015
0.024441641629609170416
0.02445351124982566432
0.024518583576359356119
0.024737640404645863668
0.025037894931982628
0.025317772574557865367
0.025589945182414738922
0.025859876463795724438
0.026125559462390830073
0.026374218622837182491
0.026592804664297794992
0.026769623996721000209
0.026898129597319877376
0.026981276732159407972
0.027027262708351245529
0.027048553019611464715
0.027055701232170732001
0.027057715472071971335
0.027056540263921090295
0.027046167090656506038
0.027005029295843134551
0.026870740931557120235
0.026678704986484010064
0.026524336438903849816
0.026419552329946298375
0.026361416033674197473
0.026340612724990230403
0.026338912108872011147
0.026348582932573819115
0.026397033751034908178
0.026568338191426742884
0.026889505372153205132
0.02720251041817614221
0.027498772076839050199
0.027774271156510953185
0.028021357672956222207
0.028232155389208882235
0.028400082430902820474
0.028524217622669763988
0.028608292396808458063
0.028657937109087792266
0.028682546136043915452
0.028690867340845849914
0.028692665170924325918
0.028691687616813444511
0.028686314287614589347
0.028665591509282491861
0.028598473649046329825
0.028491875926806395358
0.028386420992158635512
0.028283592973886367145
0.028183490446511003796
0.028085168635268359383
0.027990287781493369129
0.027900065081810327544
0.027823525716203924285
0.027766415581532827989
0.027733040423820350812
0.027723552666108115111
0.027725939146101455379
0.02774856705976163837
0.027848636365372436696
0.028209901611325333137
0.029023825193236086478
0.029787133826227742833
0.030419890225154875424
0.030919360416177734535
0.031299942014048294514
0.031582326678725188007
0.03178558691114729412
0.031919826007345518393
0.031997214809002035019
0.032027538336846482492
0.032032054998689156455
0.032021256705911549378
0.031957265388760529301
0.031713556729072105156
0.031125453554256492239
0.030565282157797676876
0.030122219179211880136
0.029806009867879658393
0.029609156476532682428
0.029510520005088081152
0.029479274863265785001
0.029477636952569573336
0.029497476045732849703
0.029596233909279606039
0.029952724272457098564
0.030594499046696307237
0.031158812060580156483
0.031615258308507414309
0.031958771933741914051
0.032196650912911344011
0.032347898791458287726
0.032432565775915134232
0.032475169739126015511
0.032492394624403196646
0.032496770717264408801
0.032496554855541932849
0.032494329790757843501
0.032486926659892931268
0.032464334615355236457
0.032395048443300093755
0.032177195258527351018
0.031762453055626811704
0.03135490152350386972
0.03098196107516016512
0.030657615719646830882
0.03038897756663074684
0.030184243267308567132
0.030041142078639088142
0.029958231272687829011
0.029922373988959728719
0.029914554948540172941
0.029921556699125440026
0.029971559154440788331
0.030174299021951744154
0.030761588901124858192
0.031425564789053672676
0.031982021435978467971
0.032430660412718845254
0.032777638710948638068
0.033039999754792839792
0.033232141956129682137
0.033372567475074062238
0.033468779712242865965
0.033529617807953153441
0.033561942674200276326
0.033574030199467204405
0.033575406365552153132
0.033571116342763593354
0.033549333123327078343
0.033473895444680538958
0.033228228887265343072
0.03273752090171549306
0.032249357224182428894
0.031796604031772812693
0.031399446710854442277
0.031072833322500072878
0.030833824223815708282
0.030681203356254432846
0.03060958598756174931
0.030591532090825036133
0.030597784953578791717
0.030654290536548587515
0.030888562209066154629
0.031556307456336016304
0.032282269221401219128
0.032876570264026384882
0.033342519920741477135
0.033691767178660209092
0.033945212429854952629
0.034126145089825754564
0.034250334441112396944
0.034333081690812852771
0.034384378034513850275
0.034411850510579961027
0.034422329426321417178
0.034422137516003301072
0.034419455990475453233
0.034412004396584615351
0.03439152494503724955
0.034332457772092303538
0.034155905352380319662
0.03371240868203121549
0.033198626602696068577
0.032695518042327210984
0.032224481138460971119
0.03181091193840532988
0.03147621195739595118
0.031235443509583286914
0.031089478595038737285
0.031022671460603615939
0.031008496930948852705
0.031014735615813797398
0.031060156775817780034
0.031241240820860861904
0.031812306042676020967
0.032572636008150253339
0.033235090229210006996
0.033792066110793918254
0.034243888914035396087
0.034601635220455166653
0.034877940568429459389
0.035091273369403153115
0.035253721602045554051
0.035377221384298912499
0.035464140398832409706
0.035519164749986197049
0.035548175153241025337
0.035556313548177724548
0.035554148854288362969
0.035536203659276927036
0.035457274971583067902
0.035170817617178960768
0.034411973237367096679
0.033611331958240724116
0.032943772069744130249
0.032428066957933043835
0.032068879355289459099
0.03185545159142762206
0.031754687999593377012
0.031729842696701919535
0.03173364045213981216
0.0317738673872437552
0.031940374596973568344
0.032455333953934101254
0.033104169514309236821
0.033667973871861010815
0.034142869136370455896
0.034530902749422040521
0.034835014811332477846
0.035063412471268338988
0.035230866316987990983
0.035353526155728204339
0.035445753011756286899
0.03552137090629776256
0.035589943228559836608
0.035654771485343322857
0.035714214417851379568
0.035764554200258272254
0.035801910180582055543
0.035822785861509741367
0.035831025335547744826
0.035830039591877652083
0.035808394065299842257
0.035703189014908202903
0.035315605577874283061
0.034357601252479136322
0.033418704686850202179
0.032669852112130436106
0.03214316804925195642
0.03183564673566829234
0.031707065312382251565
0.031684666694824267785
0.03170800532845651637
0.031856684348538381879
0.032437113290865730864
0.033890323288351370534
0.035302717232225555577
0.036418790198528977475
0.037232142759316709524
0.037767719187767327671
3.4234562748218071984e-05
5.0894181258086289895e-05
7.8948804415043233426e-05
9.7871274664037714646e-05
0.00011022488963010865541
0.00013259217823751140008
0.00015906343071862242156
0.00019001041613352521314
0.00022778541644491659825
0.00025883334357716360685
0.00027960527896097431928
0.00031166424942545231398
0.00037700449333529233338
0.00046418101307913882565
0.00053992401645874539377
0.0005822651291292395238
0.00059729830045256887029
0.00060646504075549103815
0.00062732424223340777034
0.0006915743934253273939
0.0008253975651364560363
0.00093364157857291573371
0.00099823867967200859488
0.0010271968645266297236
0.0010388660624801716956
0.0010510146654089964208
0.0010762897541769151678
0.001141978904420688605
0.0012756201083454089124
0.0014146489903272935987
0.0015255398174750791837
0.0015896788915486352329
0.0016192668501512673743
0.0016452432207517495716
0.0016881462830550361849
0.0017595998025835707119
0.0018657028951421209158
0.0020013138784275405664
0.0021455508876600400646
0.0022704342906258766568
0.0023538789342280588487
0.0023953975921724088294
0.0024171795375486173664
0.0024487960488017738656
0.0025238715195658877229
0.0026809539652081376161
0.0028327231645064467579
0.00295014178591866379
0.0030391097633283340428
0.00312021851605184114
0.0032054706608341198247
0.0032898914693244409382
0.0033724290615096195849
0.003465008926962649758
0.0035835996255979040218
0.0037302260862443563892
0.0038848118704654451168
0.0040232213200842980444
0.0041426103024534413274
0.0042592933390381716025
0.0043848142793361894951
0.0045092873173323286609
0.0046102115244799624083
0.0046735779399296297279
0.0047081793284510682629
0.0047417804560109574202
0.0048072168753887298265
0.0049624173407606985212
0.0052200127585367347288
0.005503149546856872
0.0057520346724913564915
0.0059222791449137909478
0.0060105627199312020026
0.006052501740223970722
0.0060963043110855950901
0.0061766875225727673263
0.0063005099324384816056
0.0064479908795987443335
0.0065870089917325364698
0.0066922719620242784519
0.0067604683100008292063
0.0068107211339839737047
0.0068723049141830253733
0.0069713991583941672253
0.007124346797191856949
0.0073364757735481919351
0.0076006718020123391691
0.0078939624031989698988
0.0081794930938858777247
0.0084187405950435743873
0.0085857436608175498327
0.0086766361561845615352
0.0087116685791332193478
0.0087167789211523294401
0.008714724247286236708
0.0087116982952937533496
0.0087138918942938105305
0.0087363109124069734945
0.0088360314523165360556
0.009152832774365132415
0.009523796428275218412
0.0098079557535830520082
0.01001413739217425769
0.010166491502909484612
0.010304268552550906179
0.010470744794145211976
0.010693612319327380419
0.010966073333680402546
0.011255690367849457978
0.011521877890846432893
0.01172293161270703335
0.011839677413160897695
0.011882748448428492524
0.011886519782219256286
0.011871031705461845829
0.01181704146667529251
0.011784144038016919342
0.011779664181572431156
0.011797397457192609557
0.011903608498219715034
0.012269419664115250798
0.01270907355423251707
0.013023409492145587851
0.01321082009775424379
0.013300153169956790283
0.013351559712628666837
0.013438260014348417035
0.013609749316012196424
0.013844209244394249311
0.014106289740900491286
0.014353409996593987155
0.014547125517689775756
0.014668505985593854879
0.014718969350960644377
0.014727235538382765431
0.014718721339489487451
0.0146748684592334349
0.014622779694796453689
0.014601937132919212692
0.014601612393391706288
0.014615678856144344658
0.01468889114650863241
0.014896404135487154724
0.015134617910956573578
0.015377520438396553859
0.015633120987526893941
0.015901055479114977603
0.016174695994251843401
0.01645159044371291221
0.016729353203214666207
0.017007891801006716492
0.017280990135507625499
0.017532813622787728897
0.017741180736255770384
0.017888582119810668425
0.017968902761383777344
0.017996124867833512145
0.017997330232178965909
0.017976886062839401298
0.017885982577899060125
0.0177882025448774031
0.017742799558268500942
0.017736223388613144014
0.01775390583036012826
0.017858392043497310631
0.018193812081846904433
0.018581230910527535977
0.018901172653748646302
0.019172383068009793416
0.019412813104257367613
0.019639893528487016583
0.019859985009273068562
0.020073126114606956033
0.020263851512226340595
0.02041932583696214748
0.020528060263084981635
0.020593598271067957428
0.020621578666540681807
0.020625695842648093109
0.020620548013979077273
0.020592759165672127469
0.020491593296593564599
0.020361206960908505292
0.020279187749589127482
0.020244165152552437426
0.020241261342148351293
0.020268020536947043558
0.020414791522836091969
0.020863288121752584375
0.025765643597841780821
0.025926594892395030123
0.026054086081389465218
0.026139104258317197305
0.02618352762910205328
0.026195575565407764468
0.026194787695601667171
0.02617914845342421068
0.026118277632100745517
0.026054299629568820201
0.026023147803569669084
0.026015945743608610841
0.026024068667339160521
0.026081225853171751544
0.026269110153440789618
0.02648729321582075219
0.026676961339167262754
0.026853424876853257408
0.027031282786014347586
0.027219052117832546328
0.027416739681251179467
0.027621251057359130776
0.02781903783573704686
0.028003058779884616031
0.028162798775632724019
0.028291017941868529251
0.028387343625265817199
0.028451071393569074552
0.028487507367667409125
0.028500976637091435945
0.028503471016514125846
0.028497141767587826772
0.028459256723276839945
0.028318905687408840038
0.028098159348443976085
0.027926450209149841775
0.027813480216521347527
0.02775250594690552991
0.027731441481306268182
0.027729854283007740468
0.027739401527565338973
0.02778743011801707366
0.027955703243813929265
0.028257718355652317738
0.028558708413339406462
0.028855703243943760933
0.029144554961576408375
0.029415651182594742402
0.029656826825171879458
0.029856853968608626504
0.03001124831058937098
0.030121459295373857051
0.030190188500316496312
0.030227017846335538231
0.030241026583157765845
0.030245197257433804883
0.030244865748450203841
0.030239677050791086144
0.030216745594386335005
0.030140119863147095403
0.029990601177298542579
0.029838287956638228499
0.029689818007155407975
0.029550706388039249539
0.029424291662280343401
0.029316662788782792831
0.029233529408631473562
0.029178339083050581354
0.029150729975400024863
0.029146334794577538618
0.029152047986240676308
0.029187473437479471289
0.029329219769598874334
0.029813282571500544782
0.030618078091319406858
0.031338426574640400324
0.031949522753681659781
0.032453161249727892346
0.032862630561014627428
0.033196882390644721905
0.033471316455958258218
0.033689082092065177065
0.033844813593566169807
0.033937560956836601567
0.033973740325994761236
0.033977895925506471086
0.033958813273896104601
0.03385058931336617366
0.033441756062454031095
0.032732805768752447351
0.03214793876861286176
0.031722391711733681496
0.031451894832505600252
0.031310911864904450441
0.031261840770293244929
0.031256538984455073393
0.031276725471916358434
0.031386645252628256331
0.031775415376560818548
0.032351660230096050685
0.032844746365946551891
0.033244055108379577668
0.033550392748619102534
0.033773349098817594116
0.033925165791083407296
0.034022652353716861806
0.034080760503423353225
0.034113918084386574137
0.034130922285888994072
0.034137461977519656386
0.03413789495267836871
0.034135755942348820768
0.034127404502490861493
0.034100534505331910051
0.03401447416006338903
0.033739045303977401036
0.03325785139940528462
0.032805388477156104121
0.032410795495770972074
0.032084526981394821676
0.031836213982454140969
0.031662993744657141892
0.031559682406774043628
0.03151312402179028832
0.031500651970456858275
0.031505178294996508126
0.031546622685800801422
0.031723107471650011102
0.032241709080394871656
0.032838066058632646438
0.033351721726332668461
0.03378398388125197771
0.034143287323991494686
0.0344416811028114625
0.034692243650153158085
0.034905369240354922056
0.035082411861228859906