/*--------------------------------*- C++ -*----------------------------------*\
  =========                 |
  \\      /  F ield         | OpenFOAM: The Open Source CFD Toolbox
   \\    /   O peration     | Website:  https://openfoam.org
    \\  /    A nd           | Version:  12
     \\/     M anipulation  |
\*---------------------------------------------------------------------------*/
FoamFile
{
    format      ascii;
    class       volScalarField;
    location    "0.014";
    object      k_0;
}
// * * * * * * * * * * * * * * * * * * * * * * * * * * * * * * * * * * * * * //

dimensions      [0 2 -2 0 0 0 0];

internalField   nonuniform List<scalar> 
75962
(
3.1583784499880949515e-05
4.5179560301538017656e-05
7.4460046535538703012e-05
9.7176900583070688821e-05
0.00010735862101154635653
0.00012063939459996100487
0.00015325418128588351495
0.00019669571667719852994
0.00022785946553490897711
0.00024800397828494302093
0.00026316110644792711608
0.00028659815303974168262
0.00033782863006252800793
0.00042061611020783814825
0.00050102488868447895773
0.00054962904832575696246
0.00056682567510826244693
0.00057370470710866629249
0.00058747965092958499052
0.00062656027645371806332
0.00072085052943700344587
0.00081941443339722660685
0.0008844218945727889275
0.00091438071151781310283
0.00093965999820080664973
0.00097370351162484147615
0.0010101967079258927003
0.0010530032872506530067
0.0011207863524744145906
0.0012233535673177137974
0.001343722093475937596
0.0014481193966237259317
0.001512875727908632572
0.0015415401487596589857
0.0015580861518767205945
0.0015885754987312553522
0.0016622492484671647864
0.0017821394820842992052
0.0019123546354979819358
0.0020246798649966170174
0.0021008972999481396841
0.0021490111394833677147
0.0021952649136631435627
0.0022589256702570089178
0.0023387828209251535633
0.002420507561643686547
0.0024963550611073665776
0.0025777803794603875928
0.0026837059796661075564
0.0028159313741306707043
0.0029524763512717455173
0.0030674717596824020542
0.0031517999257098475857
0.003220735017421028773
0.0033013469439470369965
0.003410831718545842637
0.0035461012729260965072
0.0036877036223162650008
0.0038115131835920351179
0.0039017321535954976354
0.0039561037414587605851
0.0039841811802294501213
0.0040037094674347595627
0.004035294349827464773
0.0041064052568671799079
0.004256877080790045717
0.0044397137063211158242
0.0046417924313048673085
0.0048509111012259653953
0.0050420521665159876226
0.0051872316623533289148
0.0052760934452014520216
0.0053255869120999305144
0.0053684785144645814914
0.0054323028512489445613
0.0055253130130300124115
0.0056419451487896531139
0.0057694392955572187942
0.0058916469544715863518
0.0059928488103115091362
0.0060648279772826272846
0.0061111459809877676994
0.0061448289612183676703
0.0061857980474629937692
0.0062634747222558434521
0.0064405277227707414048
0.0067371777076376728605
0.0070870429775408373338
0.0074399336964192470598
0.0077412535471819195892
0.0079525421701421451087
0.0080693145954834431116
0.0081157128898750059004
0.0081237123167210521096
0.0081207521466556895073
0.0081078006691849228288
0.0081007482112340368358
0.008100861196381502205
0.0081139514694255083366
0.0081732662306724223472
0.008311901625201458324
0.0084465129236501075571
0.0085832987973054365727
0.0087398917272459158978
0.008929888768742105104
0.0091636631466684662778
0.0094457224267972348525
0.0097689274675524222918
0.010109007997666211512
0.010428901099264736158
0.01068597359188840773
0.010851378633596184264
0.010926977167073631883
0.010943096269787127781
0.010937297879880318249
0.010898196104285265071
0.010824215718950517054
0.010785391301663846755
0.010773863638373381776
0.010775262548317199665
0.010797318396129709089
0.010888207193233466127
0.011039531311755822543
0.011200470842451903941
0.011386461988963439418
0.011607650173310697997
0.011866580068217042962
0.012157267339119787186
0.012465544753879341175
0.012768432666102632819
0.013036660005795300266
0.013242326310282310706
0.013371563480614100106
0.013427924946031217709
0.013439070099759725663
0.013432474869299245238
0.013397841210774271911
0.013359163701924225628
0.013348058959165290047
0.013354988099145675973
0.013405569516752313675
0.013617819458505967326
0.01407954264725896909
0.014500610491894173545
0.014851601327219621923
0.015123564761273324691
0.015304763436722268466
0.015403670186050561625
0.015458249390043511673
0.015517655012996569089
0.015613118101789830519
0.015753014988605564678
0.015925012970781936283
0.016101347214718852302
0.016250464703878388789
0.016354083785311491345
0.016403990950269009552
0.01641720960020132819
0.016414101519304627463
0.016384087088814024147
0.016277032846037327307
0.016169249721254171093
0.0161147061077724571
0.016100381792779588919
0.01610624922702756992
0.016155374310815314581
0.016360883018593858768
0.016775587006094588166
0.017136594106999133297
0.017433258489643412709
0.017678430099471204029
0.017886103167611890064
0.018062691097749598856
0.018211549627547427704
0.018329101054906208473
0.018414476982596048732
0.018467973090117936058
0.018496054795005583554
0.018505199921086543796
0.018506738758080214929
0.018503043194441935043
0.018482575609714609749
0.018412621840634284948
0.018328367535872594485
0.018276948087870354548
0.018259146166535719646
0.018260187496812012309
0.018291032205731423688
0.023407070289093424853
0.023487070191622241161
0.023530360072074204408
0.023546016092574024309
0.023548814256010477952
0.02354433948430208895
0.023516218075097402446
0.023422072739429231764
0.023317611386465094542
0.023249210802535939802
0.023214667036754184359
0.023204357678856171038
0.023204794018771873754
0.023216403377122853818
0.023266321353258366533
0.02341134503207292078
0.02360075267652984865
0.023807765112493141368
0.024041526685611085828
0.024299992685665953995
0.024573012701824954035
0.024840964755106869494
0.025087244873975310389
0.025296457036636060128
0.02545985304878502567
0.025578071073882397563
0.025653453160131772098
0.025694490042841650751
0.025708814966053483708
0.025711515911684138663
0.025705672859017723864
0.025670922889043837345
0.025542094763560205944
0.025330237809796825321
0.02516225816978906113
0.025049909322244583859
0.02498724608767634997
0.024963323435892439267
0.024960070588700849353
0.024965607330071706849
0.024995840423625518417
0.025103566765916355413
0.025347387568372091449
0.025600585431240843737
0.025848502741902062985
0.026090645817826482733
0.026321878502684071394
0.026537025036423016189
0.02672790753733561564
0.026890058076699353135
0.02702020614867950421
0.027119432165607276763
0.027187745611713227956
0.027229111412813297721
0.027249186764043687586
0.027255141551739608952
0.027255183293350720986
0.027249924154738792981
0.027226026811244100068
0.027152535197181550813
0.02705757057360450718
0.026970321623664649663
0.026887577452357220437
0.026806698430558481561
0.026726541136298249957
0.026647981143730542497
0.026579679642985569454
0.02652773129230217089
0.026497530610034968762
0.026488909175051734979
0.026491401227638804866
0.026516051654071823296
0.026623412718369852265
0.027005067092405587309
0.027772264227198435044
0.028470271204221471451
0.02904764380564024695
0.029500992284020088885
0.029844380899408294583
0.030099208191855211098
0.030284474511237592653
0.030409591494014374252
0.030483454951993387005
0.030513240192744525703
0.030517619666237866261
0.030507898725782418847
0.030451020440607882295
0.030235757738283054741
0.029689786987603775797
0.029150138376270517265
0.028718108882715229907
0.028401625777878931195
0.028195201153402977418
0.028081595655269100259
0.028036891265988714977
0.028029207589833293746
0.02803660249145267791
0.028083542181312592945
0.028263138157657130556
0.028776228619404410625
0.029360471805423171698
0.029851000644325564187
0.030238554066844093582
0.030520830804259296842
0.030710849666287794169
0.030825430467987902788
0.030886813234664748512
0.03091514426703807078
0.030925055045331512754
0.0309262527002224126
0.030924981385783565507
0.030918838494856944188
0.030896801329807831865
0.030825708393769829518
0.030598829184583703489
0.030189390431171428397
0.029797160864050684786
0.029447512219062121214
0.02915102439790706948
0.028911788155140543538
0.028733599574006195299
0.028611191228736929798
0.02854301826941115644
0.028514209697966048235
0.028509527457209849627
0.028518616506125221699
0.028575527369838420177
0.028799014819221004785
0.029421913342049930973
0.030100901317302340005
0.030662550235270646937
0.031099766184963371918
0.031415186646694154282
0.031627084366357624545
0.031756521568612791628
0.031828461079058366356
0.03186320688801760892
0.031877085826584064532
0.031880886485599384261
0.03188020892320390931
0.031872379068449488426
0.031846706914809001787
0.031772600789613657246
0.03154918823569446279
0.031143158067622547097
0.030732314458896015097
0.030335420948709078404
0.02996818178063099733
0.02964726343885474083
0.029384823330484512172
0.029195952239710311338
0.029076873167748939347
0.029024664527367315114
0.029013439779929827561
0.029022271744052603043
0.029086005712771423326
0.029339932827090648565
0.030030224381317992266
0.03075212393575668321
0.031343242204057125688
0.031801419514966323965
0.032138365613025160483
0.032375519592787629919
0.032535415965806356586
0.032638809843642757613
0.032702188505481788461
0.032737669231429684935
0.032754214252132145269
0.032757516453973484216
0.032756062705788568934
0.032751420024456016911
0.03274130941008406015
0.03271686871237199784
0.032650214539636367161
0.032453850471769754571
0.032019284310273780914
0.031552150645057890077
0.031094764034245075957
0.030669088705873516487
0.030301046527262967545
0.030008093105565684239
0.029804006815664894209
0.029686012143217591769
0.029638058112580981107
0.029631770922153594788
0.029644600877508385517
0.02971901450740042222
0.030001551644111227463
0.030711733731555852095
0.03142547904244683693
0.032029541003166371593
0.032519213555224607548
0.032899965686848345325
0.033182117527762455822
0.033383727872072076204
0.033520583945433113371
0.03361121716686608224
0.033666332729588403783
0.033696868765854745553
0.033712030221482058856
0.033716390898818456023
0.0337152380792882303
0.033706873217343003013
0.033670184127355860804
0.033536005557205678107
0.033089005739987270571
0.032335487474251439766
0.031647194834503324101
0.031064544704529968577
0.030608470328536249022
0.030287388824301143125
0.030094862918519392492
0.030004043757072954013
0.029982128820529994895
0.029986217458837321342
0.03002526586911868911
0.030186335036819656602
0.03071071923607250273
0.03143890048960108069
0.032069211021472122936
0.032592126008748750765
0.033009477978988982505
0.033323568505053129118
0.033551791719133208791
0.033710172379591493708
0.033820633501326781423
0.033897612685482400585
0.033958832981299300058
0.034011026632844380824
0.034059682758560125282
0.034102019444975525952
0.03413672733305556789
0.034159246912816014496
0.034170935102254405835
0.03417406829154597675
0.03416899664303837264
0.034131149861051923722
0.033973495015678194242
0.033421197322410466091
0.032445925068713132866
0.031590041301026813847
0.030918706630902216548
0.030456381093362155932
0.030193920849475371082
0.030089975674500054476
0.030076072540064419103
0.030106883497259654542
0.030285572412236227979
0.030964500717391294643
0.032287104612207462306
0.033460415990676103948
0.034399652935479252402
0.035114754370787724935
0.03562515316868868076
3.4829610398616310529e-05
5.1691754429633711171e-05
8.5628121200627564983e-05
0.0001109484916959533441
0.00011993866982936554687
0.00012811573653272463722
0.00014945388908033544286
0.00019984329272941064827
0.00024932938636581066698
0.00028148105750010681903
0.00029790675117937636838
0.00031329440560619894974
0.00034543048231225310192
0.00042154522750742240986
0.00050691668413781665239
0.00056413722164247838767
0.00058839358936621380738
0.00059740751325856552602
0.00061143534065350845647
0.00064742927791287536825
0.00074217575786503860343
0.00085557231820838290214
0.00094405441675336841233
0.00099778696996646138936
0.001023702651161599933
0.0010379619805185179467
0.001059149918743256067
0.0011067915061443332411
0.0012007055790429217289
0.0013141858988596321744
0.0014252246173771466933
0.0015121700974178387336
0.0015640813844183627454
0.0015873036948267536198
0.0016013417230948056528
0.0016274209806561967372
0.0016930562321535048281
0.0018502189067242057457
0.0020270474007368748104
0.0021750722939765979556
0.0022736378430609103726
0.0023232404026422613999
0.002345797463729784333
0.0023726041898207506434
0.0024347259448358263279
0.0025822140571068788982
0.002724115099699247599
0.0028169597712698582655
0.0028806245626721471882
0.0029513010019728059576
0.0030406205700782835792
0.0031343767184064353845
0.0032183659600812496854
0.0033005627041434119212
0.0034071949218409782259
0.0035579627185352222241
0.0037418824981556063694
0.0039204122786176912735
0.0040587306195868314701
0.0041510463798152185885
0.0042112546449807296278
0.0042541891190050907384
0.0042904792436856938401
0.0043331528714052819709
0.0043943140004563006548
0.0044838605172829891152
0.0046099499922163155244
0.0047809398924916826634
0.0049951505432638760099
0.0052269475248026926392
0.0054306145935594518637
0.0055675228708973265729
0.0056334036061485622676
0.0056623472488710789932
0.0056992778101618533915
0.0057758908794935705233
0.0058983333301260276044
0.006048266000632352736
0.006201447983452121511
0.0063398381582093271333
0.0064572618570017783005
0.0065590962675398430809
0.0066567728149285639028
0.0067633969608647545937
0.0068925838890064958925
0.0070579740632937659067
0.0072686088379188473416
0.0075202164476673169849
0.0077875029945136857792
0.0080324767342689774169
0.0082213499388302056087
0.0083400341982988804301
0.0083970348582606581245
0.0084155061872967038689
0.0084161362934567791189
0.0084132474425192352308
0.008411073640945726862
0.0084148137491944271366
0.00844118456403558301
0.008544046501724781098
0.0088219137511773831201
0.0091261881606572604203
0.0093948722778730443111
0.0096254450029381963955
0.0098248834231378420062
0.010010476812356202195
0.010203404670537782536
0.010423314415542115838
0.010670244419958006474
0.010918959964127524995
0.011131105939582672595
0.011274844216406402359
0.011344638430648259012
0.011360977564271975901
0.011357063845513487924
0.011326941520429066254
0.011280640617318081834
0.011262989364403052164
0.01126292564540409824
0.011282968575886911933
0.011380460114257121354
0.011638259929870465106
0.011904844013635710112
0.012145591056668314858
0.012364397399632045399
0.012565581578521865108
0.012758820249080916193
0.012959974374871783762
0.013179931376528819173
0.013410026067291701962
0.013631457709273290743
0.013815665160669130321
0.013943255370208790592
0.014009822524115499165
0.014030108744817771163
0.014029681037231860399
0.014018848737548309305
0.013998671057707091567
0.01399229650574814951
0.013997904248532073643
0.014034963670665541458
0.014192071958622595046
0.014516284954704132548
0.014812229834192900194
0.015075497876192792135
0.0153129420873659855
0.015531614079710162959
0.015738790594088600261
0.01594155962860289294
0.016141808383709269764
0.016340381782986516945
0.016533393118218261963
0.016710132874313603224
0.016857267308738096284
0.016963924741452196532
0.017025154695335734112
0.017048281733792029075
0.017050634696560977577
0.017039660835302630759
0.016979078145820419854
0.016852907814150906718
0.016768047969451083112
0.016729796877507210895
0.016724850050390864531
0.016740204589786020217
0.016832439334805535114
0.017170800135857203911
0.017651760529147221546
0.018040695179888505822
0.018349358531047545856
0.01859750172861818901
0.018804124243159307112
0.01897916845832338037
0.019127762275564622746
0.019246251167902402729
0.019334003451837927096
0.019389541836033984817
0.019419371185624263731
0.01942954717462024028
0.019430451862908256627
0.019427069405430062721
0.019409572145884471106
0.019347170078418671202
0.019264259410576058118
0.019212654783179912432
0.019193548799798475224
0.019194177228344662389
0.019224811006695218668
0.019369982529991829068
0.024385995582894396533
0.024531794370140164174
0.02463690728216371903
0.024700832272863949141
0.024729924576848874573
0.024736511957978442322
0.024733978997430260127
0.024711325239539384119
0.024627181630175753319
0.024528476509608883316
0.024468241349381001509
0.024444027276421233241
0.024441183531234287468
0.024453192108477586619
0.02451871054884170037
0.024738623841683026611
0.025038811620776067063
0.025318621614846856943
0.025590770171088773888
0.025860688790683688393
0.026126327937282416147
0.026374886544898491075
0.02659331353023146674
0.026769926801848892284
0.02689821430547953765
0.026981169912766521379
0.027027018473586697511
0.027048234516633525015
0.02705535790267273033
0.027057367952961562663
0.027056173459961890826
0.02704569805161850804
0.027004280630988263673
0.026869409578284118856
0.026677439743147141754
0.026523294614360693605
0.026418776068189545742
0.026360886169271648821
0.026340260003120313792
0.026338633739461908556
0.026348408554245993096
0.02639718157098094875
0.026569423591158082554
0.026890757868351256726
0.027203717224990965617
0.027499903820892481615
0.027775290854114637745
0.028022213708322592229
0.028232796765723652127
0.028400479464648079736
0.028524373312684894038
0.028608237391067437017
0.028657728431106966466
0.028682252980642117951
0.028690553522755259802
0.028692373283808914053
0.028691417182059038293
0.028686020495655675799
0.02866515710600214123
0.028597692441525698892
0.028491021938238485223
0.028385541896553248553
0.028282716167175561001
0.028182642322530478823
0.028084374744783386496
0.027989562067379389343
0.027899428611916542164
0.027822999801665318498
0.027766012433312160096
0.027732757092431115087
0.027723349437001727769
0.027725776103170882148
0.027748581220334161968
0.027849307137559394659
0.028212806310727690101
0.029027752640423388347
0.029790361891277303275
0.030422436435770434243
0.030921258337678329819
0.031301287301277763708
0.031583225640053634586
0.031786118449243540296
0.031920048454328241172
0.031997180823611484635
0.032027320323131776292
0.032031756270266324715
0.03202082925344073433
0.031956341682929677306
0.031711045765694577392
0.031121917125849177244
0.030562374541527315835
0.030119948603640398638
0.029804388438979711323
0.02960811488377008277
0.029509926119519008098
0.029478949066882906282
0.029477406483844940943
0.02949747030661047445
0.029596962395502034865
0.02995556312257528081
0.030597484576163458403
0.031161326322343911588
0.031617195548799721661
0.031960122142291720604
0.032197472904755518319
0.032348290975496421518
0.032432648631218280455
0.032475061376503334964
0.032492180549608513929
0.032496511870094772767
0.032496284939800841596
0.032494041967161102491
0.032486599120647420558
0.032463882503817875769
0.03239419372263525887
0.032175073234548851042
0.031760049323519633224
0.031352617265849716532
0.030979898397391528175
0.030655823832052182809
0.030387491471246187019
0.030183077779234328969
0.030040289522216885587
0.029957657868164355025
0.02992199937990253078
0.029914275229779570958
0.02992136970143076391
0.029971795920008360153
0.030175967160901762121
0.030765222203295448239
0.031428651847556124399
0.031984572477089294462
0.03243270533552969348
0.03277924197485673069
0.033041234241937368632
0.033233069523940672596
0.03337322510726339897
0.033469181732355850201
0.033529789134938328687
0.033561921902681479679
0.033573879400348352608
0.03357519946931551702
0.033570855072750517556
0.033548908595405185773
0.033472972324866338834
0.033225691750183437845
0.032734544361520158395
0.032246450054336760205
0.031793919102019188583
0.031397100831273866417
0.031070944157067223457
0.030832464044303516115
0.030680371685547526417
0.030609194464220845083
0.030591393261362471306
0.030597800940392390345
0.030654850815889464477
0.030890858528617351486
0.031560778283413609691
0.032285997233846286392
0.032879587461310519347
0.03334486197109642891
0.033693508814183481537
0.033946453719827088258
0.034126970124749217428
0.034250811864181406052
0.034333278166762827566
0.034384354813696726971
0.034411672032908131869
0.034422062220077286054
0.034421853286307403652
0.034419174715540505616
0.034411716361919933438
0.034391144549853140677
0.034331728318432397362
0.034154040497368115537
0.033709217831167245794
0.033195528023312277643
0.032692549705441067975
0.032221782300693745105
0.031808621403559493579
0.03147443745907981677
0.031234232261827393762
0.031088785791571278
0.031022371283176097129
0.031008392943081698745
0.03101474148548345397
0.031060576668371357723
0.031243025853701499039
0.031816764643551459502
0.03257673168371458261
0.033238566387445531158
0.033794901984680235374
0.034246124089319159023
0.034603346649766351939
0.03487922750409306466
0.035092231011215613279
0.03525442113751638129
0.035377700798157947493
0.035464416606770493567
0.035519267842975849048
0.03554813983795630794
0.035556200631968390424
0.035554003174881623761
0.035535906083603241434
0.035456362036136494786
0.035167764828425353285
0.034406648266359272925
0.033606852433649324341
0.032940160943397148174
0.032425393914275096874
0.03206712725195453445
0.031854491404323150017
0.031754311557507561292
0.031729785704185477224
0.03173371701045776816
0.031774371669970255527
0.031942211543810571095
0.032459503485418365887
0.033107904438850574436
0.033671130432190284065
0.034145429948456956781
0.034532881294078512924
0.03483645244338791358
0.035064394485259456347
0.035231508440006019389
0.03535394291951354101
0.035446049426018907957
0.035521632886470526358
0.035590216964551758816
0.035655063421533461643
0.035714503409762031472
0.035764805491323922726
0.035802087825624051565
0.035822877130448869953
0.035831043983090837823
0.035830004366044727881
0.035808080049762165686
0.035701912199063309816
0.035311197852436589095
0.034350827467683781036
0.033413151705659956126
0.032665614515410675012
0.032140355992627066273
0.031834128783760379244
0.031706478127248222121
0.031684496875130231663
0.031708197861561392139
0.031858316326369144622
0.032443510538601949555
0.033900301168836466381
0.03531065778229117158
0.036424774272727493407
0.037236242377746538168
0.037770299508168889147
3.4169132855610936711e-05
5.0918431266200312227e-05
7.8959525681715104638e-05
9.7842792620223771041e-05
0.00011019204586682851497
0.00013258799620026833735
0.00015907247834126323036
0.00019002970427993472473
0.00022779255886183334711
0.00025880971631053484869
0.00027958025288470604456
0.00031169966689568187829
0.00037712570273514082206
0.00046430511875881867734
0.00053995490251982692677
0.00058216578553709451282
0.00059713968234080322048
0.00060632935388282643233
0.00062726658189148282781
0.00069175175830201492827
0.00082558948612045188892
0.00093369310243114091424
0.0009981541503129133866
0.0010270345633306308605
0.0010386905539390019725
0.0010508607595974509431
0.0010761936676204665337
0.0011421011070090155478
0.001275841219403890019
0.0014148243536654953999
0.0015255850376457357961
0.0015895852671223918273
0.0016191008313744777777
0.0016450872543939492037
0.0016880630042286303132
0.0017596301404101484436
0.0018658412590790269224
0.0020015041486741518527
0.0021457102638544785222
0.0022704752047777677568
0.0023537666816942580915
0.0023951882481001462478
0.0024169731799247662699
0.0024486703559251860388
0.0025239840402029988659
0.0026811799438453995208
0.0028328500016091334376
0.0029501480399029902935
0.0030390477133973537935
0.0031201498023993123714
0.0032054088985367470456
0.0032898241487984152161
0.0033723737694973513791
0.0034650151211771608624
0.0035837030271802165597
0.0037303954178251634219
0.0038849599629785357829
0.0040232877824630973104
0.0041426121020117275678
0.0042592948709067931373
0.0043848454517719445689
0.0045092988977204302367
0.0046101230690807435547
0.004673362860177834692
0.0047078947596196915951
0.0047415330299944973697
0.0048071345039691990714
0.0049627696257565842575
0.005220552372015518916
0.0055036583659857224449
0.0057523059571341142449
0.0059222382941462375569
0.006010301142153846865
0.0060521776741921193971
0.0060960556438953532321
0.006176581704670891515
0.0063005217005731922394
0.0064480263556517753223
0.0065869685539209224881
0.0066921116263299199392
0.0067602160278721181233
0.0068104575999958436028
0.0068721217153831859817
0.0069713674022010580639
0.0071245076697994524223
0.0073368369213094586367
0.0076011846946629057359
0.0078945158348264696246
0.0081799428810750435953
0.0084189602017312441945
0.0085856724381364307036
0.0086763086624703951444
0.0087111812864532432027
0.0087162330259694074941
0.0087141652637138279636
0.0087111593633597637215
0.0087133917162296979642
0.0087359747908542732114
0.0088362152945867539905
0.0091538563498300782456
0.0095245227206039555223
0.0098083480006513242
0.010014264811974626576
0.010166490806294017912
0.010304299922167040049
0.010470933302003012852
0.010693984087317018328
0.010966550089529297426
0.011256167456813601785
0.01152222885895857335
0.011723027257926420253
0.011839461676069404361
0.011882275646804206851
0.01188592284167511344
0.011870287222685783207
0.011816213356919545024
0.011783478822168848635
0.011779088929336111596
0.0117969908460277325
0.011903828067153657613
0.012270735099049891181
0.012709990874705642122
0.013023834620000626985
0.013210799740667257193
0.013299850503579358982
0.01335122662207538502
0.013438141769622101093
0.013609924547879036216
0.013844590847261242436
0.014106736302617446654
0.014353751042859040632
0.014547221297414420285
0.014668291986413084863
0.014718492930622916956
0.014726634615749901319
0.014718042033413425429
0.014674049122960797567
0.014622095529636738864
0.014601359852463505554
0.014601036555065042069
0.014615160458586327202
0.014688764297466233924
0.014896776140101234895
0.015134988505590299054
0.015377970997760467484
0.015633652459694422771
0.015901635270617799772
0.016175290204083373619
0.016452168339816542614
0.01672989454500795059
0.017008381894137451079
0.017281396922783864162
0.017533079650632284185
0.01774124403038604067
0.017888408869213150848
0.017968517788961052561
0.017995609064787525255
0.017996777194785186504
0.017976163104443648039
0.017884926294034011324
0.017787331886502274342
0.01774211249924683223
0.017735632498673672974
0.017753475971813988121
0.017858605059787802799
0.018194976631486892149
0.018582082141637323164
0.018901761780412876246
0.019172801718172757107
0.019413159009633883245
0.019640242612228419467
0.019860360107761640402
0.020073482749390993835
0.02026409575141661229
0.020419364123541838829
0.020527847755977744054
0.020593150456462448739
0.02062095371110848202
0.020625002901181882509
0.020619826155782991495
0.020591899835203941044
0.020490382233896341224
0.020360137171295967368
0.02027832372779308015
0.020243476579707302826
0.020240663862706682885
0.02026767467389546315
0.020415366193255419375
0.020865014711159791949
0.0257659274576156061
0.025926721755725641583
0.026054015544270243271
0.026138843776969310218
0.026183119730241524725
0.026195083375568729844
0.026194261485412130563
0.026178474466137753585
0.026117373610593960093
0.026053527272813369053
0.026022523389829504276
0.026015427380280228137
0.02602368234662592178
0.026081287919640948336
0.026269807873520140823
0.026487836157513329483
0.026677404194712765056
0.026853827650207950234
0.027031697723153964158
0.027219505224561527101
0.027417237084670888908
0.027621762844016413407
0.027819517011929632833
0.028003456436838585625
0.028163064118208739478
0.02829113107554902945
0.028387310206858105965
0.028450912019878416698
0.028487247914700426776
0.028500646609179801361
0.028503103171028672247
0.028496686902971170297
0.028458504524046947248
0.028317452269651096491
0.028096782493915253148
0.027925351372671328859
0.027812681184756323644
0.027751967419739953513
0.027731071917796116383
0.027729547058448673208
0.027739189280754274897
0.027787537581349431443
0.027956702143230979102
0.028258886499987118102
0.0285598964994831922
0.028856888022138992705
0.029145684714224368711
0.02941665150403932269
0.029657621454074942907
0.029857391400969126444
0.030011522701997517953
0.030121496860154299557
0.030190043970925544564
0.030226763848534107804
0.030240735643373584801
0.030244919861982903775
0.030244610209862313188
0.030239383641939721753
0.030216278527007593008
0.030139171375950925963
0.029989484937004450005
0.029837131245267628499
0.029688679505149372789
0.029549644110775392242
0.029423356327365861318
0.029315897684433912807
0.02923295314163669445
0.029177943487884990675
0.029150483565448373491
0.029146161357246378604
0.029151934504325540537
0.02918760937429292282
0.02933025039246865695
0.029816792490181560221
0.030621657310922176937
0.03134149585574187713
0.031952020484102790221
0.032455127002041825324
0.03286415109909898713
0.033198051862711172588
0.033472192160118076354
0.033689670033112184555
0.033845104709472655091
0.033937568046938176858
0.033973535493802477225
0.033977602379456940673
0.033958305929654916677
0.033849249369031608747
0.033438044330527869064
0.032729124725346031566
0.032144987872783428728
0.031720259474224764273
0.031450510467804004833
0.031310117484549641886
0.031261414543133643484
0.031256254945962097525
0.031276679965269789385
0.031387443632497576129
0.031778143286389774758
0.032354249550757260834
0.032846902571632856371
0.033245746256319493039
0.033551632651712695599
0.033774179594169409513
0.033925650417383407254
0.034022866227081761947
0.034080777995016076076
0.034113802174701897407
0.03413071301694180909
0.034137187608824288987
0.034137588420148613777
0.034135415262559809513
0.034127004272009424379
0.034099976839417442398
0.034013398924795879008
0.033736469424372750314
0.033255102567387652412
0.032802894616696040564
0.032408653784818206023
0.032082780566459030702
0.031834870586723885977
0.031662024737274481467
0.031559036977538562629
0.031512707586244859126
0.031500351313318714075
0.031504954493978859498
0.031546771361695154223
0.031724527510440220235
0.032244919210156729183
0.032840841675074360084
0.033354091965906287887
0.03378598608078146881
0.034144985399661341441
0.034443139959250669568
0.034693509373183599453
0.034906448492979622045