/*--------------------------------*- C++ -*----------------------------------*\
  =========                 |
  \\      /  F ield         | OpenFOAM: The Open Source CFD Toolbox
   \\    /   O peration     | Website:  https://openfoam.org
    \\  /    A nd           | Version:  12
     \\/     M anipulation  |
\*---------------------------------------------------------------------------*/
FoamFile
{
    format      ascii;
    class       volScalarField;
    location    "0.014";
    object      pMean;
}
// * * * * * * * * * * * * * * * * * * * * * * * * * * * * * * * * * * * * * //

dimensions      [1 -1 -2 0 0 0 0];

internalField   nonuniform List<scalar> 
75962
(
99712.321135496444185
99712.919777176241041
99712.664036046451656
99712.50638581502426
99712.457075163925765
99712.324175016285153
99712.121204856855911
99711.872205051709898
99711.591890829018666
99711.281249804407707
99710.9318283052271
99710.552997907696408
99710.149094024862279
99709.706849162408616
99709.23196339837159
99708.76227283886692
99708.311499441202614
99707.862520940019749
99707.396438170020701
99706.906493365691858
99706.396554393068072
99705.875325094020809
99705.363882563266088
99704.87602748752397
99704.402606784948148
99703.929705289308913
99703.463793188086129
99703.012413908785675
99702.569593295149389
99702.129677139659179
99701.691445841628592
99701.249873300170293
99700.802716533260536
99700.358326993096853
99699.925350921839708
99699.501259145414224
99699.080531634492218
99698.664377796289045
99698.254555841966067
99697.852433937470778
99697.457517620379804
99697.068198331879103
99696.681408360294881
99696.294625074908254
99695.906955396116246
99695.521145663326024
99695.142682781195617
99694.776021570505691
99694.420610519300681
99694.068541066139005
99693.711520112337894
99693.348919794050744
99692.985893219462014
99692.626002638498903
99692.269874589430401
99691.916032782814
99691.562801488311379
99691.211538648349233
99690.868451703252504
99690.540214488341007
99690.226405486479052
99689.918747380914283
99689.607314546359703
99689.287743166234577
99688.964462744595949
99688.645557852563797
99688.334449317539111
99688.02713849527936
99687.717240532467258
99687.402525597572094
99687.087087317748228
99686.775923668552423
99686.469890958440374
99686.164751196309226
99685.856863583394443
99685.549109547006083
99685.2488894979615
99684.961751876224298
99684.687159515946405
99684.419582737158635
99684.153693704880425
99683.886053082693252
99683.614498189446749
99683.340398199434276
99683.067330678459257
99682.799331107744365
99682.536571006581653
99682.275112787203398
99682.01062191305391
99681.743214267742587
99681.476235190290026
99681.211836593443877
99680.950299958960386
99680.692570168321254
99680.442096535043675
99680.201807765348349
99679.970567789016059
99679.743291749473428
99679.514436259385548
99679.28096475978964
99679.043078774091555
99678.802589336322853
99678.561075578487362
99678.317873852007324
99678.071666230694973
99677.822323805521592
99677.572585282250657
99677.326889367090189
99677.08707993918506
99676.850946420570835
99676.613496339865378
99676.371223153400933
99676.123975235546823
99675.873886400295305
99675.62250022860826
99675.370202080564923
99675.117218240964576
99674.865140837122453
99674.616632864315761
99674.374242787380354
99674.138737792236498
99673.908085360468249
99673.679149419986061
99673.449122604521108
99673.216386123676784
99672.981983049030532
99672.748386042600032
99672.517493089981144
99672.288980803161394
99672.060222406944376
99671.827575647839694
99671.588913348925416
99671.345208705068217
99671.100426866556518
99670.859038495880668
99670.623431592714041
99670.392255896964343
99670.16201948968228
99669.930081737533328
99669.69705022481503
99669.466624954700819
99669.243530158753856
99669.030374032750842
99668.826296869505313
99668.628453523037024
99668.433548212837195
99668.23873369381181
99668.041621540221968
99667.840118649633951
99667.633388026413741
99667.421825296376483
99667.207463173355791
99666.992667384954984
99666.778858092307928
99666.566300795399002
99666.354149634673377
99666.141236869982095
99665.927162834006594
99665.712398490635678
99665.497221507728682
99665.28182268650562
99665.066625592022319
99664.852337287433329
99664.640010184084531
99664.43128257508215
99664.227309139809222
99664.02827187514049
99663.83357278542826
99663.642303747095866
99663.453332459452213
99663.265486534757656
99663.07762747797824
99662.888811569107929
99662.69822448247578
99662.50531688517367
99662.309577031555818
99662.1106677838834
99661.90877653703501
99661.704557890087017
99661.499152702177525
99661.293736204039305
99661.089794644314679
99660.888934844100731
99660.692352792306338
99660.500830717923236
99660.314583991843392
99660.132714308041614
99659.953675329801627
99652.944924891315168
99652.768945354546304
99652.593981201862334
99652.418958544934867
99652.242899093776941
99652.065489910630276
99651.887410455965437
99651.709910509773181
99651.534373310758383
99651.361597868250101
99651.191543513938086
99651.023491976869991
99650.856571697222535
99650.690169675086509
99650.524008817985305
99650.357983012858313
99650.192068205651594
99650.026244955268339
99649.860362109728158
99649.694403542453074
99649.528433610947104
99649.362345160683617
99649.195977476119879
99649.029117434445652
99648.8615875288815
99648.693210595549317
99648.523792271444108
99648.352963885627105
99648.180204960983247
99648.005382751434809
99647.829128193683573
99647.652747794854804
99647.477916010684567
99647.306248610693729
99647.138706917961827
99646.975244426444988
99646.814863718376728
99646.655936025810661
99646.496729478560155
99646.335931185574736
99646.172892226808472
99646.007542055027443
99645.840208657158655
99645.671167145526852
99645.500474356595078
99645.327857038646471
99645.153034207847668
99644.976139532693196
99644.797710852348246
99644.618704125226941
99644.440238766183029
99644.263349317916436
99644.088604543154361
99643.915869294156437
99643.744360377269913
99643.572794038540451
99643.399900075237383
99643.224997199824429
99643.048142740764888
99642.870174687937833
99642.692312443454284
99642.515521940091276
99642.340137143051834
99642.165784057680867
99641.991728496635915
99641.817119580940926
99641.641301927098539
99641.463962022186024
99641.285183320069336
99641.104840490268543
99640.922969115432352
99640.739450746768853
99640.554331530001946
99640.367811076313956
99640.180324376167846
99639.992492405261146
99639.804836251903907
99639.617742653703317
99639.431262777914526
99639.245175322503201
99639.059219212678727
99638.87326622272667
99638.687342981836991
99638.501503890787717
99638.315857475347002
99638.130471427895827
99637.945430119158118
99637.760905968389125
99637.577198045430123
99637.394643954758067
99637.213375736406306
99637.033462203718955
99636.854780639812816
99636.677157872327371
99636.500359176046913
99636.324107044565608
99636.148102879989892
99635.971968365382054
99635.795274496587808
99635.617525789886713
99635.438280629343353
99635.257354578454397
99635.074741486765561
99634.89076916121121
99634.706053978923592
99634.521210790248006
99634.336767728847917
99634.153052232402842
99633.970076319892542
99633.787529266061028
99633.604995514411712
99633.42208534241945
99633.238561747741187
99633.054264521240839
99632.869038751974585
99632.682824604897178
99632.495584937889362
99632.30740370710555
99632.118536140507786
99631.929406601775554
99631.740507300113677
99631.55228969885502
99631.365044534308254
99631.178975669507054
99630.994200545130298
99630.810834249554318
99630.629017307408503
99630.448899709270336
99630.270659681089455
99630.094355342531344
99629.919668634960544
99629.745810452252044
99629.571544849488419
99629.395456335420022
99629.216138032672461
99629.032736601075158
99628.845096394172288
99628.653839841877925
99628.460049033135874
99628.264979113111622
99628.069726293688291
99627.874899498012383
99627.680632537580095
99627.486715832739719
99627.29290514755121
99627.099247500664205
99626.906241505159414
99626.714626422399306
99626.525157498879707
99626.338340262518614
99626.154244480916532
99625.97238346618542
99625.791964243209804
99625.612023226771271
99625.431696784828091
99625.250307773632812
99625.067340714653255
99624.882291858972167
99624.694646171104978
99624.503831815425656
99624.30922313524934
99624.110422288358677
99623.907354102761019
99623.700496742123505
99623.490736766209011
99623.279291700164322
99623.067511097746319
99622.856607566165621
99622.647409982324461
99622.440266642443021
99622.235064822845743
99622.031338971282821
99621.828447295629303
99621.625737238806323
99621.42265595846402
99621.218844855378848
99621.01394513163541
99620.807730225482373
99620.600079802505206
99620.391028137237299
99620.180751114603481
99619.969468602721463
99619.757490034244256
99619.545157964879763
99619.33267981071549
99619.120090062453528
99618.907274797486025
99618.694147934322245
99618.480677131898119
99618.266902740229852
99618.052950267418055
99617.839012296914007
99617.625361951504601
99617.412288559324224
99617.199995613234933
99616.988583247715724
99616.778075196081772
99616.568437923153397
99616.359592610358959
99616.151393076797831
99615.943661604265799
99615.736236980723334
99615.528935872978764
99615.321536396135343
99615.113750642092782
99614.905299916936201
99614.695999342191499
99614.485845066650654
99614.27498751571693
99614.063690607101307
99613.852307200577343
99613.641195792239159
99613.430573114892468
99613.220457750823698
99613.010695751931053
99612.801043194485828
99612.591266282644938
99612.38134677708149
99612.171531903280993
99611.962383396501536
99611.75471888842003
99611.549458711451734
99611.347535553592024
99611.149786602021777
99610.956778480642242
99610.768831907815184
99610.585958814102923
99610.40801680921868
99610.234812859634985
99610.066123201671871
99609.901722273396445
99609.741472016656189
99609.585329857567558
99609.433346762409201
99609.285693855243153
99609.142630044327234
99609.004593326462782
99608.87214725157537
99608.745979101804551
99608.626867766724899
99608.515629049987183
99608.41319063679839
99608.320387893836596
99608.238024784091976
99608.166784690576605
99608.107340389949968
99608.060312420857372
99608.026233921438688
99608.00553329793911
99607.998606484718039
99608.005839971869136
99608.027649364696117
99608.064477191102924
99608.116815832850989
99713.341180640592938
99713.518097140433383
99712.501512669856311
99712.414010031192447
99712.431668584831641
99712.28340956363536
99712.088019755319692
99711.865162859845441
99711.595546734897653
99711.274234378914116
99710.911549930635374
99710.531746081804158
99710.135769831860671
99709.703481919394108
99709.23629989339679
99708.769922676787246
99708.320324868778698
99707.867830499133561
99707.399190944706788
99706.915939273691038
99706.41501276283816
99705.898793139262125
99705.389163844738505
99704.908581186668016
99704.44682312796067
99703.9843061806896
99703.52561857434921
99703.078447382635204
99702.63855920235801
99702.200405457275338
99701.761743646871764
99701.318186399352271
99700.868029765464598
99700.419631843426032
99699.981731851483346
99699.553110095308512
99699.128232011949876
99698.706672109561623
99698.292765483653056
99697.889914350540494
99697.499952815924189
99697.120097233928391
99696.743385728361318
99696.360696098679909
99695.969677100525587
99695.576607333379798
99695.191891296140966
99694.820186121054576
99694.45792369323317
99694.098798355087638
99693.738352625165135
99693.376800536338123
99693.017202322153025
99692.662739169987617
99692.314051361216116
99691.96807156255818
99691.621128907543607
99691.273797316622222
99690.932668451656355
99690.604943721613381
99690.29097088726121
99689.982769211477716
99689.670863330073189
99689.349982606552658
99689.022681332426146
99688.697763319098158
99688.381043003566447
99688.069520449193078
99687.755936487141298
99687.437260649065138
99687.117380215990124
99686.802548102612491
99686.495388653012924
99686.192675466285436
99685.889488332686597
99685.587533386904397
99685.292427133899764
99685.007902073892183
99684.733372824586695
99684.464440424620989
99684.196707631563186
99683.92754962433537
99683.656700239283964
99683.385650043273927
99683.116538276211941
99682.851337280924781
99682.589183189207688
99682.3262748169509
99682.060197876897291
99681.791362972362549
99681.523139672688558
99681.258042910776567
99680.997455965116387
99680.742834516117
99680.496463155432139
99680.259010155496071
99680.028506302842288
99679.800300683826208
99679.570031252136687
99679.335169834215776
99679.096003108497825
99678.854958046082174
99678.614924278634135
99678.376318053575233
99678.136512755358126
99677.893075169355143
99677.647195099503733
99677.403320187149802
99677.164373159583192
99676.928638210170902
99676.690923417976592
99676.446416437931475
99676.194803181322641
99675.939165410847636
99675.683079123278731
99675.42887934378814
99675.177977667568484
99674.930763346768799
99674.687328466417966
99674.447721990276477
99674.211711252835812
99673.978290758604999
99673.745528791376273
99673.511634499693173
99673.275954812197597
99673.03991952551587
99672.806244173450978
99672.576768456099671
99672.350755656807451
99672.12499210286478
99671.895365195086924
99671.659303522057598
99671.417800451366929
99671.174527991795912
99670.933796653756872
99670.698153639910743
99670.466290070136893
99670.234836023111711
99670.000840797918499
99669.764898151988746
99669.531318630091846
99669.305193654858158
99669.089364989966271
99668.882972953171702
99668.682602493383456
99668.484477730919025
99668.285600404036813
99668.083599926831084
99667.876813271053834
99667.664977913416806
99667.449684580322355
99667.233533171340241
99667.018766682565911
99666.806499537837226
99666.596409190024133
99666.386947488877922
99666.17648071522126
99665.963898703135783
99665.74890945480729
99665.532055411196779
99665.314565229331492
99665.097949176182738
99664.88361687460565
99664.672623307822505
99664.465694825325045
99664.263287908790517
99664.065400189283537
99663.871485066629248
99663.681064966178383
99663.493438843128388
99663.307310245989356
99663.120977262718952
99662.932707854211912
99662.740684061820502
99662.543871786620002
99662.342753595410613
99662.138884282161598
99661.934304905676981
99661.730579729526653
99661.528339209660771
99661.327428663396859
99661.127927716297563
99660.930252289486816
99660.735237418513861
99660.543907090133871
99660.35668317238742
99660.173187831314863
99659.992358183764736
99659.813095822726609
99653.180448933941079
99653.001796401993488
99652.824590397314751
99652.648770304469508
99652.473688850746839
99652.298459914003615
99652.122464344924083
99651.946148859191453
99651.77066585663124
99651.597359394931118
99651.427177818492055
99651.259959321512724
99651.094821433362085
99650.930889104696689
99650.767294084900641
99650.603388787902077
99650.438848281017272
99650.273653016236494
99650.10815712591284
99649.942556897745817
99649.776869622277445
99649.611102425449644
99649.445221896836301
99649.27906876092311
99649.112516335211694
99648.94546081261069
99648.777828279547975
99648.609437561797677
99648.439794676931342
99648.268246973791975
99648.094661085619009
99647.919524924232974
99647.744032680449891
99647.569797917516553
99647.398310783391935
99647.230477627686923
99647.066145922144642
99646.90425586499623
99646.743333963197074
99646.581990785416565
99646.419348916853778
99646.255092086532386
99646.089286194706801
99645.922111816355027
99645.753467879025266
99645.582976275924011
99645.410108911208226
99645.234594648500206
99645.056642376468517
99644.877060588551103
99644.69708091559005
99644.518032275300357
99644.341080645855982
99644.166676002467284
99643.994354598151403
99643.822945675143274
99643.65101218727068
99643.477293083837139
99643.301151584164472
99643.122906184769818
99642.943679527990753
99642.765025959612103
99642.588152848024038
99642.41348150059639
99642.240675188644673
99642.068798607331701
99641.896726183476858
99641.723427963763243
99641.548241093041725
99641.370765189625672
99641.19104496955697
99641.00916705065174
99640.825318147995858
99640.639836390459095
99640.453148537737434
99640.265632258917321
99640.077746362265316
99639.889965995913371
99639.702688930279692
99639.516175956974621
99639.330533986518276
99639.145689762983238
99638.96143690214376
99638.777521884912858
99638.593616486090468
99638.409443155949702
99638.224828214355512
99638.039899913215777
99637.855025449520326
99637.670704625095823
99637.487536214743159
99637.305859029656858
99637.125871058175107
99636.947683691731072
99636.771207469864748
99636.596233048650902
99636.422368318162626
99636.249151300085941
99636.076032253768062
99635.902436323318398
99635.727768259544973
99635.551441663075821
99635.37305499483773
99635.192528520346968
99635.010146975400858
99634.826433916445239
99634.642054942974937
99634.457684308654279
99634.273730845088721
99634.090391921738046
99633.907546037138673
99633.724970695810043
99633.542511607869528
99633.360107810760383
99633.177686452399939
99632.995020305243088
99632.811859015360824
99632.62798237487732
99632.443227522686357
99632.257715282365098
99632.071717437982443
99631.885734094292275
99631.700281233512214
99631.515839233310544
99631.332819848292274
99631.151455003287992
99630.971814087242819
99630.793941104682744
99630.617925735801691
99630.443766939642956
99630.271289631724358
99630.099947751237778
99629.928825939961825
99629.756752103654435
99629.582468846871052
99629.404889677549363
99629.22341878991574
99629.038174576271558
99628.849905625960673
99628.659660595469177
99628.468598310821108
99628.277588359560468
99628.087028359092074
99627.896886213653488
99627.706902552919928
99627.516968689989881
99627.327378878049785
99627.138825023852405
99626.952193446530146
99626.768342273688177
99626.587807741685538
99626.410472128627589
99626.235703254569671
99626.062549481721362
99625.88997407243005
99625.717120559071191
99625.543318499956513
99625.368137611192651
99625.191125693294453
99625.011808836308774
99624.829575412470149
99624.643770533220959
99624.453938121296233
99624.259970343700843
99624.062298546428792
99623.861940867995145
99623.660294190151035
99623.458734498577542
99623.258387538022362
99623.059916797137703
99622.863519178805291
99622.668921905889874
99622.475544949702453
99622.282703110889997
99622.089756717105047
99621.896343334636185
99621.702285843886784
99621.507418583641993
99621.311682046623901
99621.115032305504428
99620.917582031484926
99620.719437318053679
99620.520708146301331
99620.321561508331797
99620.122170625720173
99619.92266866643331
99619.72313079838932
99619.523544904499431
99619.323966941883555
99619.124470112859854
99618.92513990077714
99618.726068201271119
99618.527428560846602
99618.329446812625974
99618.13230373802071
99617.936162527723354
99617.74106555263279
99617.547011364251375
99617.353996872116113
99617.162049944963655
99616.971196291182423
99616.781411764633958
99616.592587394436123
99616.404580678034108
99616.217155052087037
99616.03005466684408
99615.843048721624655
99615.655961128213676
99615.468744277823134
99615.28154503404221
99615.094673528845306
99614.908498924138257
99614.723400759932701
99614.539538052602438
99614.356871143318131
99614.175182982333354
99613.994149203776033
99613.813548336722306
99613.633340116153704
99613.453708123997785
99613.275167906074785
99613.098533539247001
99612.924726674551493
99612.754669990972616
99612.589214447929407
99612.429058884648839
99612.274656886889716
99612.126169568757177
99611.98354019477847
99611.846501571693807
99611.714721446420299
99611.587866253015818
99611.465677683969261
99611.348072813576437
99611.235104779378162
99611.1269747569022
99611.02400814901921
99610.926640909659909
99610.835445975433686
99610.751131841680035
99610.674511445293319
99610.606483402996673
99610.547929141466739
99610.499681082670577
99610.462461877395981
99610.436935004370753
99610.423740214610007
99610.423423993808683
99610.436473892565118
99610.4633096804464
99610.504327445582021
99610.559913745179074
99610.630461626846227
99610.71633574119187
99610.817921678681159
99710.626144146881416
99711.852378823008621
99711.737808207355556
99711.737572988495231
99711.82663601731474
99711.794630358373979
99711.651894718525
99711.464696717230254
99711.266258119503618
99711.026097138805198
99710.711754989737528
99710.351064369067899
99709.969003163336311
99709.55961982520239
99709.119256067380775
99708.673902703318163
99708.239854165425641
99707.794830491402536
99707.329529684808222
99706.859915656968951
99706.383506029349519
99705.88846544160333
99705.390485630006879
99704.914595866401214
99704.454546407432645
99703.992937320785131
99703.534787471406162
99703.094959260459291
99702.67397240785067
99702.259801764841541
99701.839761758470559
99701.40616749493347
99700.958733941093669
99700.505113679450005
99700.055242111411644
99699.613400393893244
99699.179862240533112
99698.75445338600548
99698.337071331261541
99697.927550611188053
99697.528986442470341
99697.144808838827885
99696.770527260683593
99696.394957962882472
99696.01152003131574
99695.623330840389826
99695.238681219809223
99694.862018590967637
99694.493697980477009
99694.13256640113832
99693.778600505989743
99693.43098197002837
99693.086313786756364
99692.741976836477988
99692.397626195626799
99692.052738039172255
99691.705683702894021
99691.356735043693334
99691.011320610283292
99690.676461207825923
99690.355114302146831
99690.042415920644999
99689.73009056468436
99689.411117663286859
99689.085293310577981
99688.759218557257554
99688.440249478080659
99688.128833070732071
99687.81798016965331
99687.502295371552464
99687.183774135555723
99686.868500258307904
99686.560767916584155
99686.259001576370792
99685.95986172441917
99685.661277968552895
99685.36511627661821
99685.074383349594427
99684.791146825402393
99684.514632499674917
99684.242349530250067
99683.971940578863723
99683.703159171738662
99683.436812849744456
99683.173666928429157
99682.913702650010237
99682.655680320691317
99682.397213076270418
99682.136831404583063
99681.874542424411629
99681.612028150950209
99681.351045078670722
99681.093631526760873
99680.841474071261473
99680.595172316374374
99680.354635580282775
99680.118185651459498
99679.883299799243105
99679.646820054593263
99679.406963650530088
99679.164722316330881
99678.922765218478162
99678.683531632574159
99678.447279121377505
99678.210452790255658
99677.969919209775981
99677.726526174155879
99677.484918228568858
99677.249013720647781
99677.01713892139378
99676.782991653046338
99676.53988555468095
99676.286346902081277
99676.026465051167179
99675.766328239697032
99675.510897820233367
99675.262086330083548
99675.019139098716551
99674.780049062188482
99674.542517851004959
99674.305260417721001
99674.068084931728663
99673.830753191592521
99673.592491587798577
99673.353167107299669
99673.113954687883961
99672.877973025766551
99672.647722145717125
99672.422579592865077
99672.199513044572086
99671.974377783582895
99671.743937209859723
99671.507617753071827
99671.2676807125099
99671.02762817684561
99670.78953802587057
99670.553424458776135
99670.317891712184064
99670.081350468419259
99669.844644285811228
99669.611754061625106
99669.386701207084116
99669.170748087359243
99668.962159478396643
99668.757073715896695
99668.552500836347463
99668.346325744772912
99668.137610962221515
99667.925539247022243
99667.710389402447618
99667.493563738345983
99667.276939241171931
99667.062156587897334
99666.849853319174144
99666.639636626423453
99666.430223230810952
99666.219824097643141
99666.006634912642767
99665.790043200686341
99665.571060585964005
99665.351949636067729
99665.135230970161501
99664.922864912150544
99664.715365595227922
99664.512368639349006
99664.313361073247506
99664.117747561394935
99663.925432995514711
99663.73673189044348
99663.551244263842818
99663.367608328233473
99663.183262082166038
99662.995364563845214
99662.801405270918622
99662.600430919177597
99662.393962524423841
99662.185291757632513
99661.978231832719757
99661.775243829833926
99661.576450096414192
99661.380462240325869
99661.185909334788448
99660.991931522934465
99660.798925437426078
99660.607617070098058
99660.418649503495544
99660.232143001121585
99660.048128104826901
99659.866737887234194
99653.24799555305799
99653.066803872716264
99652.887532974273199
99652.710845877081738
99652.536478802328929
99652.363433816863107
99652.190752368420362
99652.018258474650793
99651.846604390040739
99651.676729047147091
99651.509490638389252
99651.345023748683161
99651.182699394426891
99651.021350426744903
99650.859712295219651
99650.696839507450932
99650.532368989544921
99650.36657996053691
99650.199959518387914
99650.033166194727528
99649.866779046613374
99649.700987133968738
99649.535530070919776
99649.369871597795282
99649.203736826893874
99649.037059757552925
99648.869838720114785
99648.701762469936511
99648.532353908012738
99648.361217242665589
99648.188317974811071
99648.014137382357148
99647.839756682238658
99647.666687772565638
99647.4961539622891
99647.32861495729594
99647.163632129886537
99647.000139325435157
99646.836805946266395
99646.672720619055326
99646.507522925036028
99646.341447671424248
99646.174780766479671
99646.007503093394917
99645.839023630906013
99645.66861056923517
99645.495564809534699
99645.319597349051037
99645.14108959940495
99644.960931009714841
99644.78053288650699
99644.601382942069904
99644.424592426032177
99644.250476054483443
99644.078402251048828
99643.907003819258534
99643.734696594619891
99643.560197939223144
99643.383030248718569
99643.20375004602829
99643.023708553635515
99642.844549149755039
99642.667628570226952
99642.493563235388137
99642.322082830607542
99642.152150907699252
99641.982272630470106
99641.811136844902649
99641.637745591782732
99641.46166898527008
99641.283010582672432
99641.101921285997378
99640.918694296924514
99640.733675348426914
99640.547134485270362
99640.359418279855163
99640.171079439314781
99639.982842421202804
99639.795214284255053
99639.608713429639465
99639.423681710482924
99639.240229456627276
99639.057962857172242
99638.876231436777744
99638.69433556565491
99638.511698042639182
99638.328043517642072
99638.143620125862071
99637.958990290513611
99637.774863809943781
99637.592031022053561
99637.411001195723657
99637.232010056497529
99637.055051054616342
99636.87984506378416
99636.706184598253458
99636.533937210653676
99636.36279444048705
99636.192198494652985
99636.021397066957434
99635.849509062827565
99635.675798873009626
99635.499784906089189
99635.32131966407178
99635.140614564894349
99634.958111923071556
99634.774484655616106
99634.59040585301409
99634.406390993113746
99634.222771184271551
99634.039741659711581
99633.857292413798859
99633.675412548749591
99633.494245208086795
99633.313792964807362
99633.133906866671168
99632.954267346140114
99632.774425491807051
99632.594030193664366
99632.412913452251814
99632.231104509584839
99632.048990594790666
99631.867114644061076
99631.686073467513779
99631.506356802012306
99631.328238336674985
99631.151948246435495
99630.977599760357407
99630.805197285939357
99630.63446734174795
99630.464933456329163
99630.29594356319285
99630.126706454815576
99629.956240445157164
99629.783443021136918
99629.607581614007358
99629.428298015438486
99629.245801924247644
99629.060904376296094
99628.874646581534762
99628.688026815623743
99628.501723154811771
99628.315977450358332
99628.130763735680375
99627.945935210766038
99627.761472542522824
99627.577692454797216
99627.395207121007843
99627.214836285900674
99627.037350989674451
99626.863173280682531
99626.692093106845277
99626.523503476506448
99626.356608170550317
99626.190565057157073
99626.024634937450173
99625.858174933789996
99625.690725500826375
99625.521857362022274
99625.351061168592423
99625.177674422448035
99625.001021958785714
99624.820645190309733
99624.636493910555146
99624.449065014836378
99624.259389728627866
99624.068856143770972
99623.878819152960205
99623.69030326938082
99623.503805574393482
99623.319271187327104
99623.136215346370591
99622.953964632499265
99622.771823710630997
99622.589303668442881
99622.406164272688329
99622.222323667709134
99622.037831300971447
99621.852770101322676
99621.66727610011003
99621.481484539501253
99621.295399455339066
99621.10903468709148
99620.922557020152453
99620.736078040921711
99620.549699761410011
99620.363509393660934
99620.1775687510235
99619.991939349885797
99619.806792762043187
99619.62228289298946
99619.438554398817359
99619.255737962390413
99619.073954533188953
99618.893276286078617
99618.713770903894329
99618.535493073868565
99618.358470258608577
99618.182798645939329
99618.008560919814045
99617.835820166539634
99617.664612598935491
99617.494923950638622
99617.32669936234015
99617.159707980579697
99616.99371321212675
99616.828510821360396
99616.664012042325339
99616.500239618660999
99616.337388822750654
99616.175786456558853
99616.015776852989802
99615.857598652961315
99615.701325142290443
99615.546836847512168
99615.393890168954385
99615.242165536546963
99615.091417858624482
99614.941535767662572
99614.792654161836253
99614.645224258987582
99614.500041294028051
99614.358067187320557
99614.220288510550745
99614.087592695126659
99613.960692871318315
99613.840134368743747
99613.7261672969762
99613.618791584332939
99613.517760067814379
99613.422682700678706
99613.333217517923913
99613.249057576045743
99613.169988896363066
99613.095943127540522
99613.027135766635183
99612.964012788143009
99612.907171063721762
99612.857241848061676
99612.814929244603263
99612.780913293536287
99612.755958026915323
99612.740896773015265
99612.736533836447052
99612.74361678668356
99612.762799383766833
99612.794664904242381
99612.839679547367268
99612.898228662539623
99612.970658933802042
99613.057345225475729
99613.158673846133752
99613.275042643203051
99613.406827924991376
99613.554446646623546
99613.718348062946461
99711.423952559285681
99712.400054469559109
99712.144144122052239
99711.951052127231378
99711.930454996254412
99711.919631434881012
99711.79190195085539
99711.58273907750845
99711.352681567368563