/*--------------------------------*- C++ -*----------------------------------*\
  =========                 |
  \\      /  F ield         | OpenFOAM: The Open Source CFD Toolbox
   \\    /   O peration     | Website:  https://openfoam.org
    \\  /    A nd           | Version:  12
     \\/     M anipulation  |
\*---------------------------------------------------------------------------*/
FoamFile
{
    format      ascii;
    class       volScalarField;
    location    "0.014";
    object      rho;
}
// * * * * * * * * * * * * * * * * * * * * * * * * * * * * * * * * * * * * * //

dimensions      [1 -3 0 0 0 0 0];

internalField   nonuniform List<scalar> 
75962
(
1.1561821196023684966
1.1557496561101554544
1.1578879441377387671
1.1581420900503147653
1.1585250946776251002
1.1586497355541967025
1.1579873891477678871
1.1577121588224690285
1.1578057094971825336
1.1580142783758613501
1.1580583029357893743
1.1581098708923287521
1.1588720014347240195
1.1599150950265362248
1.1600139116150531837
1.1592610285145785731
1.1586911911873412073
1.1588462349238053406
1.1593113938689070253
1.1598400363216754272
1.16032061865705316
1.1602694067373302556
1.1594595232884294944
1.1585699870521353194
1.1583976954283026206
1.158621749530926559
1.1587803958732465492
1.1590595655359898775
1.1595147820825202345
1.1599009412269531971
1.1602765992410464246
1.1607679590317301344
1.1610544543739058643
1.1608610836173816061
1.1605207785346660643
1.1604699969949248128
1.160722317818482674
1.1610258653076079849
1.161212324932666462
1.1611875840582863706
1.1609797317171355324
1.1607426314907451914
1.1606651474880171904
1.1608397192603807646
1.1612209845039827005
1.1616112921873038566
1.1618166825287152832
1.1618513700741426309
1.1619221923847633526
1.1621706757839893598
1.1624343736844671149
1.1625003883134332749
1.1623864995270243305
1.1622249953698482461
1.16213946576258631
1.1621530782965563411
1.1621710352987926207
1.1619593913157766352
1.1613969679589428718
1.1606786039602496885
1.1601926756045999323
1.1602120323613469566
1.1607051743210317074
1.1613529338807382363
1.1617812928377511117
1.1618727703301137133
1.1618025980389652396
1.1617730800182060058
1.1617856827058552494
1.1617154076352289582
1.1615309646494078599
1.1613813295605697196
1.1614680898022915478
1.1618192391538326724
1.1621899479444550707
1.1622612718476426075
1.1619242110852581185
1.1613669440267921917
1.1608711107706481958
1.1605882530046811585
1.1605287009786462438
1.1606482617845297334
1.1608603796013812204
1.1610040077981413909
1.1609839066858151924
1.1608504195608662091
1.1607771076336952376
1.160885869746955068
1.1611001355443359984
1.1612667475640661152
1.1613463203883991337
1.1614000862203988085
1.1614247720639760963
1.161316923448346472
1.1610221670654723436
1.1606357222730219192
1.1603239270844842856
1.160230069842056011
1.1603360327625558135
1.1605580365491670047
1.1608066160392358501
1.1610433074526087527
1.1612816364556557414
1.1615702602820114908
1.1618856205424681338
1.1621318189913025787
1.1622119694271246804
1.1621565508224949159
1.1621264719663000342
1.1622730542106043394
1.1626011674074998581
1.1629732072388250241
1.1632380224525746826
1.1633604571506603875
1.1633963778798814825
1.1633937548323445288
1.1633375952087650074
1.1631837961694064809
1.1629283031254087355
1.1626249985451975189
1.1623566247154080155
1.1622064065287831536
1.1622028771081993614
1.1623122552260003459
1.1624399374088820736
1.1624995281299388417
1.162472914196889473
1.1624227686286774386
1.1624532162041152361
1.1626361102286182359
1.1629542786428959111
1.1632940639567501684
1.1635145146129375338
1.1635413178846072402
1.1634068418552911961
1.1632287832577099529
1.1631363132968577379
1.163169195577448578
1.1632354173078460757
1.1631833853569426562
1.1629133627603163159
1.1624689840280917341
1.1619783337869835638
1.1615832440734328301
1.161359206841987568
1.1613119469745789569
1.1614246520445830058
1.1616720207123223396
1.1620043540512503544
1.1623501939725502385
1.1626299093846714783
1.1628009270807937448
1.1628838800753589222
1.1629322781930244712
1.1630012316082134483
1.1631018677190549937
1.1632060386446638756
1.1632714086562156997
1.1632801127805367791
1.1632402672188619785
1.1631729750508803534
1.1630881592565740501
1.1629801148252560949
1.1628361009043715057
1.1626543572836942619
1.1624474852333863684
1.1622396557645866544
1.1620473477657828898
1.1618810932569068051
1.1617570760037336797
1.1616893353513746412
1.1616899371904123583
1.1617616944511137689
1.1618912624481179119
1.1620549037978764595
1.1622243019570714928
1.1623672598387988497
1.1624594358988968867
1.162489260613528419
1.1624581216763461011
1.1623747892594391562
1.1622513637770011119
1.1620958031070443006
1.1619183914063431207
1.1617307822652958027
1.1615419290884323456
1.1613576193139090176
1.1611827608445903781
1.1586246652206888541
1.1585061977989750126
1.1584420629999454544
1.1584566280507906377
1.1585331302238408568
1.1586200346728670052
1.158651915969865831
1.1585840835655067949
1.1584133781209287051
1.1581656096779611165
1.1578796743418620085
1.1575866137890142848
1.1572998856894225472
1.1570291043284759436
1.1567903732656059645
1.1566029958687216173
1.1564853932830700955
1.1564426614471619015
1.1564609865158481661
1.1565134725850358954
1.1565718252169467917
1.1566120941617923368
1.156619249998393828
1.1565932882002283311
1.1565450447824243696
1.1564972533701973756
1.1564781225256031139
1.1565072651466110631
1.1565841093438153919
1.1566830643926657718
1.1567588772835200039
1.156763256837588516
1.1566659094530862273
1.156468936448102891
1.1562032906463222126
1.1559184805946021157
1.1556628876842025555
1.1554723660468284585
1.1553592063926736433
1.1553184528407220988
1.155335599171561034
1.1553997431863456402
1.1555020416445589415
1.1556378259694306543
1.155799091367793352
1.1559688958954386084
1.1561201577638964277
1.1562217522699618222
1.1562433846141340066
1.1561699884273557437
1.1560075068089772365
1.1557825730370505646
1.1555405991885425721
1.1553318952221112159
1.1551968700325205841
1.1551527351174968317
1.1551868182962374831
1.1552619551264358133
1.155328573609757159
1.1553459737891966785
1.1552976765524194391
1.1551940170035961408
1.1550674229473911758
1.1549496205031450913
1.1548639045585351592
1.1548142391044444732
1.1547977346236844021
1.1547971103888980959
1.1548152747951587749
1.1548424986107432844
1.1548762007748569758
1.1549090154091683491
1.1549281245762008652
1.1549180148681994496
1.1548675287665701727
1.1547842257737950256
1.1546867798047546483
1.1546023293433600454
1.1545579722282186541
1.1545705295047252736
1.154644334879630696
1.1547710151445664817
1.1549321915171741892
1.1551039148891026898
1.1552611115525681651
1.1553794012846523298
1.155435538910360771
1.1554136714009437537
1.1553061621947222637
1.1551187657814114829
1.1548702998780242535
1.1545921898428537222
1.1543188493024627572
1.1540834768405159316
1.1539099116614854879
1.1538098248856125672
1.1537846052586062662
1.1538252702904430169
1.1539167381696284753
1.1540378803294877308
1.1541642298307648318
1.1542675769766048699
1.1543242440181196162
1.1543212681158692146
1.1542631194267454209
1.1541693791521878687
1.1540705156264032816
1.1540005791763001675
1.1539826651903219989
1.1540238712244341723
1.1541139571120679896
1.1542280722304152363
1.1543378551071379334
1.1544179292548772953
1.1544480770319545115
1.1544178116141163848
1.1543236818436717339
1.1541729999480101476
1.1539781388636223269
1.1537587525067798389
1.1535359007434446976
1.153328191144651127
1.1531487241704576618
1.1529981769049466589
1.1528671602489493075
1.1527372194188816312
1.1525872324040244976
1.1524027422572866719
1.1521867463323920422
1.1519597281720426185
1.1517565362091164438
1.1516224108201300602
1.1515938306930648682
1.1516883352487703451
1.1518992574310344956
1.152191520271717895
1.1525137820254491849
1.1528133686291723858
1.1530485982476670337
1.1532011020279233637
1.153274431958119628
1.1532859244180513336
1.1532548741398471748
1.1531933139755961015
1.1531021157392129517
1.1529737391815884084
1.1527991303547397983
1.152575635975495727
1.1523126166129877834
1.1520286084701474305
1.1517443288469890739
1.1514763055137551273
1.1512354074865223108
1.1510204819059894898
1.1508261867850422266
1.1506494739879806755
1.1504945967223001446
1.1503744748596083092
1.1503069171611297605
1.1503070014768912444
1.1503784708255129221
1.1505083463283944933
1.1506670310694353532
1.1508172040397894875
1.1509228341833266374
1.1509597958390409556
1.1509215404270891625
1.1508191956342057605
1.1506760221183758297
1.1505181726583970647
1.1503675599885512248
1.1502390248596789935
1.1501388248112383028
1.1500655652399085493
1.1500151783051593135
1.1499829425638758984
1.1499636876355581183
1.1499520505696043671
1.149942021958689109
1.1499261253898991342
1.1498984832529510758
1.1498551760233679531
1.149795441613220337
1.1497230158792659527
1.1496428140497623183
1.1495623761123052731
1.1494870250991977567
1.1494214532031654663
1.1493664669722056804
1.1493195051239470938
1.1492766860233420978
1.1492344749699159312
1.1491929498087141148
1.1491548202036219184
1.1491260264717877426
1.1491135124181526272
1.1491227056875041868
1.1491549810895382855
1.1492089939565290901
1.1492822910055129348
1.1493710012716860103
1.149471508708322709
1.149581066092955739
1.1496955931859915712
1.1498095501219702808
1.1499167909373526619
1.1500093212509920892
1.1500791135184877945
1.1501207281183183362
1.1501327651400348184
1.1501204725078799651
1.1500936729562194483
1.1500667467626375373
1.1500538059301859128
1.150066085557931439
1.1501063753096996134
1.150167830630501653
1.1502365162623053862
1.1502941347649116022
1.1503229694382346437
1.1503119219763575654
1.1502584205211887625
1.1501681423581924246
1.1500539770296909214
1.1499345083416341318
1.1498280850859692315
1.149749595829266724
1.1497105810516969893
1.1497166993099396937
1.1497705485956437599
1.1498708661933718655
1.1500117277156656215
1.1501849591243482607
1.1503781931203567179
1.1505762463506572502
1.1507621270544263758
1.1509178913624935614
1.1510258248096296718
1.1510726902166452668
1.1510490718225352413
1.1509563130631996763
1.1508025685444651653
1.1506031021071174703
1.1503769783011097427
1.1501449633204214873
1.149922527853218801
1.1497239308034683525
1.1495586014940537556
1.1494328987432920197
1.1493488967034197756
1.1493100610507205328
1.1493183910404689563
1.1493744492243569422
1.1494768989251238356
1.1586701411142756868
1.159314961056091553
1.1597734462815936229
1.1593586413485281739
1.158622428940665916
1.1565498707724506389
1.1554607019175473503
1.1561450310920546869
1.1571919103857577493
1.1583194825151192919
1.1589799605461259535
1.1591395848986647543
1.1596089990367324241
1.1604314453114372707
1.1604748156548587712
1.1595702552383000405
1.1589602839961090641
1.1592151931677467935
1.1596502545488722724
1.1600965811449353016
1.1606846405405741862
1.1606807628864763693
1.1596654438062083958
1.1585514179517135691
1.1583513669049254613
1.1586582934127267475
1.1588363830180814507
1.1589844029695823835
1.1592652201815087931
1.1595804458232459311
1.1600141205512062292
1.1606375322816533391
1.1610917391669961507
1.1610630275547086931
1.1608461353597967491
1.1608272777562198552
1.161022221735332538
1.1612467983435927898
1.1613608181991039725
1.1612513301469520322
1.1608965174174881163
1.1604660437177807264
1.1603179246327062213
1.1606364131182076438
1.1612420515502521745
1.161758328063714929
1.1620015002133654569
1.1620650061613277959
1.1621137255698663626
1.1621941855178365977
1.1622096870534348589
1.1620889919712293903
1.1619018552652897736
1.1617433830718402188
1.1617173554089801346
1.1618557535592750618
1.1620336048767834214
1.1619728987194115621
1.1615309351336504662
1.1608661281139733834
1.1603675037220537725
1.1603244848939373579
1.1607550790990379674
1.1614166356876278741
1.1619377487954933859
1.1621252605731859919
1.1620931652609591822
1.1620540190607633324
1.1620575120264609037
1.1619759027264460194
1.1617334133368217852
1.1614728654709709499
1.1614391488095048288
1.1616997770207846408
1.1620569153926683104
1.1621965589041933775
1.1619987090541208374
1.1615849301653593528
1.1611715583441395427
1.1609088678478498569
1.1608215828716008655
1.1608645888218505071
1.1609615572455316279
1.161025122534684817
1.1610108452288314673
1.1609506701016101271
1.1609541822588342885
1.1610740182347443206
1.1612481875328146685
1.161381175100355545
1.1614426667979493857
1.1614755637448872516
1.1614782074897262998
1.1613846725787173586
1.1611628888213518795
1.1608728878815497421
1.1606321194947184505
1.1605470704990459296
1.1606237297399868424
1.1608024253013924376
1.1609870168755822561
1.1611216807645996507
1.1612392304578418312
1.1614393837670335952
1.1617400727661153503
1.1620381526174807796
1.1621849011121492268
1.1621596381489847083
1.1621142357403646539
1.1622435242873261352
1.1626070214704471439
1.1630718792013043927
1.1634383417530398397
1.1635992084597359675
1.1635669942749027328
1.1634081005245211493
1.163180453879291365
1.1629131346879182374
1.1626515368604430911
1.1624216079098839138
1.1622551960415086203
1.1621875455765640073
1.1622307309153623311
1.1623486031800884799
1.1624605155853322547
1.1624746483769015093
1.1623804499429672976
1.1622553412110681048
1.1622239092427142371
1.1623671149203689268
1.1626714261337522949
1.1630237165732295601
1.1632750502895736755
1.1633406648271953365
1.1632565162044294915
1.1631369897888270692
1.1631028709475512706
1.163189294889348302
1.1632961158600900742
1.1632677088471365945
1.1630090802461112709
1.1625633527891623409
1.1620810031956623209
1.1617103356991720364
1.1615320021647532744
1.161542514023668593
1.1617183832113737729
1.1620122087113511355
1.162362473829774645
1.1626816862892495053
1.1628820074969161702
1.1629445333016004138
1.1629160487044349903
1.1628730643302076508
1.1628776770047077882
1.1629482147700516137
1.1630602975396979737
1.1631706492589244384
1.1632440601866469443
1.1632514436538168301
1.163195669901574858
1.1630867643426934244
1.1629514465544978918
1.1628087829625115557
1.1626631004466381203
1.1625189480748305826
1.1623677620603198868
1.1622016759334610203
1.1620275090703113818
1.1618746777980100138
1.1617871675465034631
1.1618094401333136645
1.1619525645116310919
1.1621845782010236103
1.1624404103094456708
1.1626413780471238635
1.1627268978720106674
1.1626857930970206922
1.1625568137699480165
1.1623992315187958724
1.1622591684901908415
1.1621517448998168742
1.1620617367161372169
1.1619724084078864035
1.1618685160628074993
1.1617528279694457893
1.1616231276879962486
1.1614725756108283949
1.161294675590165193
1.1590477401803527258
1.1588957294278234844
1.1587168702047063729
1.1585666953134703405
1.1584871726218393118
1.1584851999626171182
1.1585184111775144178
1.1585285074168896191
1.1584624849295332982
1.1583094517035088522
1.158085617079600782
1.1578238302757262179
1.1575533539721931664
1.1572896084377750636
1.1570496892964485802
1.156845518285420038
1.1566903856876342704
1.1565929260672245249
1.1565527902284791217
1.156560806667036978
1.1565984199854633108
1.156645371685959045
1.1566839850155787861
1.1566950580405770399
1.1566683708450720136
1.1566070758608668623
1.1565321078618453488
1.156477545580887778
1.1564725176863637213
1.1565238306666765222
1.1566097801369050746
1.1566866547621932337
1.1567111945505110793
1.1566546372204473681
1.1565170469093892791
1.156322555319431844
1.1561108926921357387
1.1559170830435006039
1.1557610931350019712
1.1556493635486864147
1.1555784856354833767
1.1555465999290224222
1.1555611660088205284
1.1556303024197374096
1.1557574223663933388
1.155933047674506664
1.1561305184974595139
1.1563112429362139011
1.1564338942703424884
1.1564651120124762596
1.156389587405932895
1.1562162717337440831
1.15597983188495812
1.1557325143142072044
1.1555285901390652814
1.1554079772538980997
1.1553846651585142347
1.1554406615099281908
1.1555310465956847299
1.1556013925703068068
1.1556070409069154614
1.1555322559572218655
1.1553912958199596961
1.1552211669623493329
1.1550642185366390979
1.1549518725256195939
1.15490123757231955
1.1549041869393348314
1.1549571011226282824
1.1550362389312516243
1.1551249851447040751
1.155211091053878425
1.1552789581661175866
1.1553138408147090033
1.1553058741091646322
1.1552505832604083036
1.1551563763267953533
1.1550403361754710829
1.154924919848336673
1.1548331439766070794
1.1547844237089410768
1.154793046044455096
1.1548633749588075315
1.1549882029274665118
1.1551505470216809623
1.1553224329983711183
1.1554709222011887437
1.155562551629840673
1.1555690139821221951
1.1554762121198018932
1.155289231903629199
1.1550284508915025228
1.154728293653805915
1.1544288192117149183
1.1541661665055553687
1.1539684270117664955
1.1538505361005095828
1.1538152150204610269
1.1538558419220728002
1.1539562633357467458
1.1540952106022683843
1.1542443493718095304
1.1543745776018701221
1.1544583456949208955
1.154480500573231927
1.1544428662647541195
1.1543622311384775792
1.1542680106678173679
1.1541926825593489259
1.154159491088308398
1.1541747082601132579
1.1542300451253690863
1.1543066839545115254
1.1543797879702042408
1.1544268697274204794
1.154430420154890502
1.1543821931816780069
1.1542802172675747929
1.1541280186638656069
1.1539364495314023973
1.153721149235160226
1.1535015741457146365
1.1532963974289915932
1.1531164848613371099
1.152964658699367595
1.1528323383269214464
1.152700856012677022
1.1525503071917184705
1.1523697175242151314
1.1521624396842178317
1.1519503526827989948
1.1517657126582065974
1.1516476683621019728
1.1516303314469922281
1.1517258514950841075
1.1519237923804357404
1.1521916371555187553
1.1524818698758023672
1.1527479467866430518
1.1529579909392169146
1.1530983913171901634
1.1531721609755762881
1.1531916188648796417
1.1531682104768841146
1.1531070602479140952
1.1530049133798789818
1.152853256332492915
1.1526480108492582755
1.1523939022277831512
1.1521069258590401763
1.1518121113031398739
1.1515327339627468017
1.1512837719157644756
1.1510702378719863681
1.1508848273407821239
1.150715884724043292
1.1505565640559256568
1.1504108306305838028
1.1502923673565685903
1.1502233658875982147
1.1502232540628971602
1.1502957850871236012
1.1504279865071542766
1.1505873767320831114
1.1507338007660055101
1.1508302108302184141
1.1508530700325005913
1.1507994928640581378
1.1506853555328389049
1.1505374531384044978
1.1503842698574577863
1.1502487707300699249
1.1501429174659401067
1.150067642754066588
1.1500168409859155005
1.149982861900989084
1.1499580377783247265
1.1499374196047054131
1.1499176858384738686
1.1498960312660502225
1.1498707840285362636
1.1498401791765791025
1.1498028626803109553
1.1497598477580350806
1.1497125532263332559
1.1496640165167537617
1.1496161572713596843
1.1495696301479201296
1.1495236464874742932
1.1494772128394898925
1.1494286564228464176
1.1493775547696341022
1.1493245233823270457
1.1492731858773603815
1.149229892558083721
1.1492001281510511035
1.1491897410763616261
1.1492013648833432349
1.14923358633092354
1.1492820718345528874
1.1493414385556808277
1.1494081501426638425
1.1494806939048707317
1.1495585523159210783
1.1496414139023980461
1.149726562929455298
1.1498078877074955351
1.1498786427213900652
1.1499306991161155622
1.1499577079888183562
1.1499583441484819701
1.1499377448233945032
1.1499079053469603018
1.1498839735034385168
1.149882333553607916
1.1499138748183344028
1.1499801722312237295
1.1500733502759994398
1.1501778372641644488
1.1502735719567698247
1.150340103590609564
1.1503618957547434576
1.1503332975736031418
1.1502576369016204172
1.1501470509920568297
1.15001913188485827
1.1498931069069366906
1.149788207405325835
1.1497184901516033229
1.1496930975900319094
1.1497171753079917789
1.1497904368184552748
1.149909304026119683
1.1500655358020266394
1.1502469482161974401
1.1504383104425373041
1.1506210836974857248
1.1507759924190701373
1.1508873180698975247
1.150941923379699805
1.1509327575459797899
1.1508602384055259815
1.1507327654596219979
1.1505644119484599308
1.1503729740006103377
1.1501752587238818215
1.1499871395105893956
1.1498208931354352291
1.1496832416811255673
1.1495792986245305656
1.1495128487113484006
1.1494863749352679516
1.1495026745690559711
1.1495625194017395909
1.1496657563020995507
1.1590600971580615752
1.16060060526474218
1.1602008095322251524
1.1593875513963316504
1.1578178693483784922
1.1565569158394530813
1.1570526625546078137
1.1573916774673065344
1.1574160827316120059
1.1586364623430618348
1.1600516280703987437
1.1602323680865964661
1.160048474292936227
1.1603510487763659675
1.1604427511906871828
1.1598991453978124699
1.1596798469122482356
1.1600350994687222972
1.160273239849461957
1.1602965906751203651
1.1605911575097325183
1.1607497115032603396
1.1600044003659357728
1.1589874187738224975
1.1587349751649158591
1.1590445293780733405
1.1591553548662807405
1.1590314725927901573
1.1590728380008359366
1.1594152533944523942
1.1599743012647125706
1.160650040978479014
1.1611864744464204247
1.1613538727895122982
1.1612621577950674734
1.1612052285113738659
1.1612754508880052118
1.161437800553817512
1.1615259521351473104
1.1613377033690999163
1.1608168607622364465
1.160233266869575397
1.1600534775535347176
1.160459478150698942
1.1611914023194860324
1.16182221101687988
1.1621492685807264245
1.1622342093922095607
1.162156463944093332
1.1619432190624101597
1.161661830354204783
1.1614005336344532804
1.1612488337985347187
1.1612208838527235955
1.1613198869059757623
1.1615450580456918583
1.1618050245671427412
1.1618881947697698998
1.16160837376284376
1.161057960039483028
1.1605734241553116171
1.1604585611967626058
1.1608232929470261308
1.161494002977407014
1.1621003658028543626
1.1623487357724482383
1.1622551807952203884
1.1620646801285878791
1.1619584366147459598
1.161895494798885542
1.1617465936115993763
1.1615610968223131216
1.1615096202377881429
1.1616904867741042473
1.1620124663107220808
1.1622288789717640789
1.1622088676201145496
1.1619625425674404706
1.1616224545976663318
1.1613477787558443843
1.1612053385299847541
1.1611714848242713494
1.1611800595145895798
1.1611877051438614927
1.1611601150077801581
1.1611227701872073315
1.1611236486231872878
1.1611909300592482275
1.16131554136181947
1.1614523742819844454
1.1615537278323233572
1.1615929862536873429
1.1615579259854016403
1.1614482997540858111
1.1612843288863419211
1.1611050288753628212
1.1609771191430839909
1.1609351452296150509
1.1610075525723535517
1.1611693715945108352
1.1613347742663882034
1.1614297091008238816
1.1614820633084497192
1.1615985684239868991
1.1618394594005756471
1.1621109543645333773
1.1622536914340699798
1.16221329859243383
1.1621327561055700972
1.1622416160875397306
1.162628657557945866
1.1631478208800540841
1.1635514966249562718
1.1636752442268498697
1.1635197819026126265
1.1632068511948354672
1.1628710906318757701
1.1626067919380065341
1.1624485775799400233
1.1623752650277898724
1.1623502225077941841
1.1623515191338256169
1.1623991816114693787
1.1624812934267829689
1.1625475258152644376
1.1625261153885650955
1.1623823948099285541
1.1621968818823456004
1.1620956316784827322
1.1621564213636343954
1.1623751147687277907
1.1626766857297488045
1.1629396966867342478
1.1630817487298121815
1.1631094805484243349
1.1630977129018513772
1.1631287160166501327
1.1632226900546547288
1.1633014945695647757
1.1632445362396157673
1.1629907702848265583
1.1625974081283227957
1.1622113436448835433
1.1619532477216265587
1.161869621582165335
1.1619474441410539978
1.1621415365275584719
1.1624062661147973596
1.1626877456937678712
1.1629102819403778213
1.1630235092310510225
1.1630223612444021697
1.1629479865401108896
1.1628667486625838823
1.162829459028545287
1.1628617946994623811
1.1629618859439811995
1.1631010907885872552
1.163222955510639256
1.1632643842061243245
1.1632009144674935186
1.163047641849088043
1.1628585787048775213
1.1626876266138823635
1.162555209465593542
1.1624448535745672828
1.1623237161425605812
1.162164717040114148
1.1619774614637969901
1.161811106269745375
1.1617419627823202255
1.1618282741162788696
1.1620785748040882712
1.1624330916064729013
1.1627746036714343703
1.1629822573039201306
1.1629905466319225837
1.1628146563990264806
1.1625411718108387138
1.1622754227254186166
1.1620959952489338107
1.1620172277867997224
1.1620080997733028827
1.1620241093709806623
1.1620239349329561929
1.1619992616816146036
1.161926979181539199
1.1617802932599474719
1.1615480350066575976
1.1593759745972453956
1.1592279046156290789
1.1590140072249559555
1.158801589892613837
1.1586503672154429001
1.1585822145824387075
1.1585678096094971234
1.1585496513905462201
1.158469944553963682
1.1583013010956244582
1.1580507228479479664
1.1577519588000051431
1.1574484426336941745
1.1571772724434901125
1.1569665827813795378
1.1568272680596742852
1.1567562073640105247
1.1567356754521378459
1.1567475343275401833
1.1567714857662989569
1.1567970908382949613
1.1568168245703494001
1.1568227617694875065
1.1568036084061119606
1.15674683077462781
1.1566581815581702397
1.1565647241854370986
1.1565048474884176422
1.1565076494340753577
1.1565749923672163924
1.1566793575062230826
1.156771407516040906
1.1568044942466784164
1.1567515061925619513
1.1566161835268535807
1.1564256452086503213
1.156221235349316645
1.1560342287544067563
1.155885229664820768
1.1557776791668368244
1.1557123544694618555
1.1556959336915011427
1.1557363297418008496
1.1558444247440442521
1.156018494466224622
1.1562370166822268924
1.1564611806982276754
1.1566427154840572822
1.1567387715137156246
1.1567214976338104915
1.156587367994419413
1.1563646447753983537
1.1561039913721693484
1.1558629834325810926
1.1556941670136708922
1.1556296480176317942
1.1556674593065379142
1.1557728261064565967
1.155887393475335756
1.155951692428928812
1.1559255977994717934
1.1558008292175030451
1.1556022474088172292
1.1553779525981002774
1.1551793151762275169
1.1550489156219891917
1.155004185091971447
1.1550446448634763552
1.1551466184491383515
1.1552809332202100823
1.1554188091785200232
1.155536108107656057
1.1556159583631653298
1.1556466823701700974
1.1556259419815029243
1.1555625370930400209
1.1554598683881138754
1.1553334759858751024
1.1552019930110275503
1.1550843001215633787
1.1550041962809387552
1.1549829649304783619
1.1550316674814673501
1.1551462865288815163
1.1553057606056091888
1.1554744293114251885
1.155610281161967956
1.1556756517740167656
1.1556449544208060587
1.1555129013020513096
1.1552927982362553028
1.1550160214840818895
1.154721234668809382
1.1544451141218829981
1.1542158995282176814
1.1540519233254973308
1.1539594097547953844
1.1539362925172897967
1.1539754190542872436
1.1540629551010892495
1.1541836411474060142
1.1543181548178380602
1.1544437254929893477
1.1545384911727971655
1.154587946854719549
1.1545907371220900384
1.1545595086888691405
1.1545152626513257577
1.154477690585148153
1.1544606393758098939
1.1544659682124083222
1.1544824460431002411
1.1544942354471374735
1.1544833237751042088
1.1544376837868159935
1.1543544071490030589
1.1542354412785913453
1.1540886745772449551
1.1539225651569877673
1.1537450089064233971
1.1535650524041360931
1.1533910377465383945
1.1532296812796143382
1.1530822596238152755
1.1529458358302180354
1.1528116864715081125
1.1526667776505024055
1.1525002131181174558
1.1523118651609047802
1.1521104846039027514
1.1519181815754098164
1.1517668881614113729
1.1516874824134886168
1.1517034190622461587
1.1518219449445714631
1.1520278737470683872
1.1522862313193946715
1.1525524917105705036
1.1527868421538645105
1.1529629841604664975
1.1530707844977117205
1.1531148770307757534
1.1531071428037138471
1.1530590840902326111
1.1529745953390166946
1.1528513001186386777
1.1526849925182043322
1.1524736115119922353
1.1522238997936284921
1.1519515285463941545
1.151677431167955401
1.1514208766239395487
1.151192167271143374
1.1509917656793506868
1.1508120442617737478
1.1506426712306625504
1.1504790952495256295
1.1503282388269568948
1.1502069265328296321
1.1501388426116379016
1.1501397304929210641
1.150212844760090336
1.1503413732678620107
1.1504920389698485295
1.1506254971493323769
1.1507066787743178704
1.150715242321583176
1.1506527476460766124
1.1505375384625742274
1.1503980226133085907
1.1502624395340628194
1.1501522350984079157
1.1500756103070723935
1.1500284962881428541
1.1500014160793030626
1.1499833006002408986
1.1499666207452468036
1.1499472463089015495
1.1499244887608004451
1.1499001098815329058
1.1498750934443127125
1.1498507200776517667
1.1498256368370551872
1.1497994670419993124
1.1497718298184422814
1.1497436846614437211
1.1497145226904217363
1.1496835768018682788
1.1496486806454402352
1.1496089959484008247
1.1495645743345641598
1.1495158134827301311
1.1494664173653872385
1.1494196538629639637
1.1493806823855245991
1.1493547910189123584
1.1493455233331537624
1.1493544249967846405
1.1493807846257908523
1.1494204001342895882
1.1494682592943994415
1.1495201322544388312
1.149573804500227725
1.1496284043436635347
1.1496827663274102882
1.1497350741895124848
1.1497805052874887632
1.1498129127923695236
1.1498271457911721782
1.1498207061133602913
1.1497958428474439607
1.1497591785248577612
1.1497248988622703614
1.1497093350351363927
1.1497267980509915386
1.1497851832085985713
1.1498832623858510349
1.1500114866803097247
1.1501519614038739903
1.1502828346522726566
1.1503829802567333562
1.1504359197724627339
1.1504329591217259399
1.1503761174910098752
1.1502765779601968887
1.1501504650590095302
1.1500177340315456131
1.1498987004162286585
1.1498101028960152625
1.149763779817410736
1.149765205786347666
1.1498142014464809435
1.1499072538538199773
1.1500355193420623845
1.1501879075123360163
1.1503512130986259798
1.150510929342383637
1.1506514137797636543
1.1507579845632207594
1.1508194647029872382
1.1508282456497658242
1.1507841021113265345
1.1506930786433453573
1.1505675662278140869
1.1504209239127598519
1.1502701375380526283
1.1501285944223160751
1.1500061735964148824
1.1499085439624143756
1.1498373671431001419
1.1497927276426687104
1.1497745877766132327
1.1497840562941421538
1.1498241572564324997
1.1498974743231504814
1.1500054855666845821
1.1575860344019348602
1.1570702028058683641
1.1593401161497427498
1.1600355869316003599
1.1580825434707129329
1.1569457353012244649
1.157134715420258475
1.1571072898174239452