/*--------------------------------*- C++ -*----------------------------------*\
  =========                 |
  \\      /  F ield         | OpenFOAM: The Open Source CFD Toolbox
   \\    /   O peration     | Website:  https://openfoam.org
    \\  /    A nd           | Version:  12
     \\/     M anipulation  |
\*---------------------------------------------------------------------------*/
FoamFile
{
    format      ascii;
    class       volScalarField;
    location    "0.0062";
    object      alphat;
}
// * * * * * * * * * * * * * * * * * * * * * * * * * * * * * * * * * * * * * //

dimensions      [1 -1 -1 0 0 0 0];

internalField   nonuniform List<scalar> 
106891
(
8.3155738805780133384e-06
8.3086104627059634205e-06
8.300657877320438894e-06
8.2941601499432595973e-06
8.2866315600332643828e-06
8.2804424697979890581e-06
8.2729079717379768534e-06
8.2666067320125268122e-06
8.25888957153880295e-06
8.2523801041223308303e-06
8.2434707207681780136e-06
1.1439061877838427913e-05
1.1462261350122720797e-05
1.1477215448079294266e-05
1.1486126743393546061e-05
1.1492128765019567836e-05
1.1498856702966253669e-05
1.1509384059062573882e-05
1.1525604551686667923e-05
1.154764735835212286e-05
1.1573936410695938358e-05
1.1602439291664449477e-05
1.1630676420945441972e-05
1.1656939100927785787e-05
1.1679978767481582843e-05
1.1698785999919252931e-05
1.1713347300285580755e-05
1.1724007368437076144e-05
1.173214269865751564e-05
1.1739737085075740175e-05
1.1748749854445273848e-05
1.1760389745755508127e-05
1.1775701038399253562e-05
1.1795316005927486568e-05
1.18188668365829679e-05
1.1846309314763492726e-05
1.1876906252748408636e-05
1.1909512536251435605e-05
1.1941939135749108468e-05
1.1972526725325182299e-05
1.1999324467063253417e-05
1.2020991363873029115e-05
1.2037087268530714739e-05
1.2048093382484356125e-05
1.2054115185656004837e-05
1.2055479602329053179e-05
1.2053157874457867403e-05
1.2047732891151478988e-05
1.2040468399102649799e-05
8.8219071486908589896e-06
8.812748288944236927e-06
8.8050575440593354293e-06
8.7958359050527598177e-06
8.7881261618936690026e-06
8.7789112684718123141e-06
8.7710847439636380456e-06
8.761818463104564808e-06
8.7539627755604788683e-06
8.7447934160837651526e-06
8.7372397620933472609e-06
8.7284235250615350819e-06
8.7213197349493727911e-06
8.7129164070906409481e-06
8.7061911989321286425e-06
8.6980359406377089976e-06
8.6914274998334967588e-06
8.6832523323291915508e-06
8.6764915674611656785e-06
8.6669145743134493184e-06
1.20820464337690482e-05
1.209505269784904155e-05
1.2098263264928323972e-05
1.2096499294978243767e-05
1.2095307496419738846e-05
1.2099377696580502304e-05
1.2111396859678496611e-05
1.2131856120575945887e-05
1.2158739801690844317e-05
1.2189549684725733758e-05
1.2221150290054508977e-05
1.2251424505880851142e-05
1.227867520516508123e-05
1.2301503599105824814e-05
1.2319699682113752589e-05
1.233359583498880073e-05
1.2344404877573329215e-05
1.2354398613907626066e-05
1.2365402065933206257e-05
1.2379055913586631558e-05
1.2396300957697781704e-05
1.2418014463511538442e-05
1.2443825400254132754e-05
1.2473592291590885505e-05
1.250666040364713622e-05
1.254184651137711239e-05
1.2576936489663588837e-05
1.2609905947350260659e-05
1.2638824336294784609e-05
1.2662222448105983074e-05
1.2679506372450218482e-05
1.2691195006700590716e-05
1.2697817371999884506e-05
1.269966719140548635e-05
1.2697735355679186617e-05
1.2692956510262706698e-05
9.2799806821982515538e-06
9.2701185026519417461e-06
9.2619845394463223441e-06
9.2519948882176008398e-06
9.24371244343031353e-06
9.2336205632944559071e-06
9.2251442979665002238e-06
9.2149365698622834071e-06
9.2063894446566274532e-06
9.1962354587744445729e-06
9.1880123768349804692e-06
9.1782145235890384818e-06
9.1704981301918278764e-06
9.1611959709159789374e-06
9.1539358765987589606e-06
9.1450509598324584678e-06
9.1380025815297584929e-06
9.1292172619183493314e-06
9.1221043030356587335e-06
9.1117822427212234699e-06
1.2686420635281763593e-05
1.2698007918519561903e-05
1.2707853837608025724e-05
1.2718747858073827867e-05
1.2733976463620986356e-05
1.2755905234598085153e-05
1.278507580414548606e-05
1.2820330556161526833e-05
1.2858325723094283681e-05
1.2895530608220063918e-05
1.2929214962468765483e-05
1.2957652311153500959e-05
1.2980407421194842119e-05
1.2997576950462319374e-05
1.3010157965931124952e-05
1.3018914704663212358e-05
1.3025451787367370654e-05
1.303198002299639754e-05
1.3040033481039567758e-05
1.3051146838865754218e-05
1.3066239602616796497e-05
1.3085261919870797652e-05
1.3108604590695926585e-05
1.3135782194238440702e-05
1.3166500155317573711e-05
1.3199077130693515232e-05
1.3231707235492416646e-05
1.3262579787749887084e-05
1.3289898113531450335e-05
1.3312504811836882741e-05
1.3330062018902010191e-05
1.334344418564999497e-05
1.3352830561410092359e-05
1.3359162855877241923e-05
1.3362052344114762234e-05
1.3362615238839818958e-05
9.7508193573197156655e-06
9.7422702675990171682e-06
9.7315643445054944056e-06
9.7227711210245962081e-06
9.7118810408751865982e-06
9.7027727012456646013e-06
9.6915877339828258408e-06
9.6822842380805073347e-06
9.6710568527925181256e-06
9.6620923889829505188e-06
9.6512306851435435519e-06
9.6428494644860962142e-06
9.6326289794988830163e-06
9.6248167373385029442e-06
9.6150942659165264024e-06
9.6074928581521356436e-06
9.5978527449826655149e-06
9.5901831927579870299e-06
9.5788936788504744769e-06
1.33507975653825638e-05
1.3372242532396662324e-05
1.3395892882567129374e-05
1.3423365905717155242e-05
1.3455743020025796779e-05
1.3492372970626880378e-05
1.3531668836526710076e-05
1.3571005953543187889e-05
1.3607669395317142911e-05
1.3639422169730193717e-05
1.3664870500086344373e-05
1.3684049641656473989e-05
1.3696883132858709618e-05
1.3704272857741004249e-05
1.370794562542237498e-05
1.3709479502687317432e-05
1.3711141313467771556e-05
1.3714882593731050032e-05
1.3722384794259227453e-05
1.373519371547807935e-05
1.3754336124525681279e-05
1.3780441731094777156e-05
1.3812853203523874733e-05
1.3851102323714343007e-05
1.3893598475403499314e-05
1.3938266385910176242e-05
1.3982050798191832593e-05
1.4022631274258761739e-05
1.4057852921118253755e-05
1.4086356332482142083e-05
1.4107665618502100854e-05
1.4122407015196063797e-05
1.4130292512198965491e-05
1.4132978579406304287e-05
1.026709286871613363e-05
1.02557989951319711e-05
1.0246846342068771088e-05
1.0235511110254164461e-05
1.0226282387745707888e-05
1.0214637753076800101e-05
1.0204906128188159588e-05
1.0192777349084251772e-05
1.0182754370085898894e-05
1.0170438333139510662e-05
1.0160720145459193177e-05
1.0148765548036323416e-05
1.0139645064414477225e-05
1.0128398649522826804e-05
1.011990746794512737e-05
1.0109177797405066775e-05
1.0100909713077134324e-05
1.0090185622038159801e-05
1.0081774247248893056e-05
1.0069256677219659955e-05
1.4068949439166206046e-05
1.4071704415454182365e-05
1.4075238772133661771e-05
1.4084344993458992789e-05
1.4102313943230408981e-05
1.4130458983222002713e-05
1.4167088857175274815e-05
1.4208860563155529448e-05
1.4252024108707858529e-05
1.4293079490738004063e-05
1.4329896320735473629e-05
1.4360270683161414861e-05
1.4384172928365264655e-05
1.4401780856306518273e-05
1.4413903517945091538e-05
1.4422584435317605339e-05
1.4429428533046804846e-05
1.4436666438086116784e-05
1.4446439099022499665e-05
1.4460178863984123683e-05
1.447934908672291211e-05
1.4504460230069725788e-05
1.4535442123966126e-05
1.457118018538094708e-05
1.4610295671833493735e-05
1.4651008709151739317e-05
1.4691578573679707693e-05
1.4729589802665346533e-05
1.4763708690063963443e-05
1.4792529385528249144e-05
1.4816390861395250053e-05
1.483402477863956289e-05
1.4846344982283808092e-05
1.0786504902919769546e-05
1.0777123263676330307e-05
1.0765146606589326918e-05
1.07554486998130679e-05
1.0743030253271500151e-05
1.073268805418086423e-05
1.0719624066594970856e-05
1.0708917105510792818e-05
1.0695557202332935725e-05
1.0685115804995347285e-05
1.0672081573852704501e-05
1.0662205347624086443e-05
1.0649876787261236034e-05
1.0640536073606020638e-05
1.0628555881115376604e-05
1.0619382696653464996e-05
1.0607351038410301833e-05
1.0598096820054610879e-05
1.0584247055333538217e-05
1.476831014232301206e-05
1.4779403096185196674e-05
1.4797616882528629489e-05
1.4825195400470155162e-05
1.4861570405351567212e-05
1.4904503700102543989e-05
1.4950087443976063696e-05
1.4995055158356384008e-05
1.503652840181329981e-05
1.5072861143328695693e-05
1.5103135245753362249e-05
1.5127184581713413138e-05
1.5145764122317057968e-05
1.515960548038960303e-05
1.5170447256332091922e-05
1.51800242540361713e-05
1.5189885722106772438e-05
1.5201992360347015546e-05
1.5217988591633519277e-05
1.523875696848558649e-05
1.5264711514997888445e-05
1.5295547143357874747e-05
1.5330493478717803106e-05
1.5368125162110120091e-05
1.5407139991034948746e-05
1.5446408641525891776e-05
1.548402787488131703e-05
1.5519049409502129564e-05
1.5549335456616938364e-05
1.5575270952369992737e-05
1.5595113934185645825e-05
1.5609695503736480869e-05
1.13447733810484182e-05
1.1334893691104306791e-05
1.1322196094637775374e-05
1.1311981963406255819e-05
1.1298697571035693654e-05
1.1287695060172780131e-05
1.1273640539850534299e-05
1.1262242578125545117e-05
1.1247860076196996928e-05
1.1236756723672249776e-05
1.1222698100084616498e-05
1.121205964639548405e-05
1.1198550791137917005e-05
1.1188245440080591336e-05
1.1174916595255650315e-05
1.1164707922673739067e-05
1.1151237446164246201e-05
1.1141025948751403176e-05
1.112574554963505025e-05
1.5550780750494368334e-05
1.5579357172471626611e-05
1.5617144563807776276e-05
1.5662194180306511797e-05
1.571098916869784895e-05
1.5759836947130052333e-05
1.5805431059760381073e-05
1.5846017755240214011e-05
1.5880366371738160959e-05
1.5908324454497388536e-05
1.5930078227393724695e-05
1.5946777294921667931e-05
1.5959918022468201501e-05
1.597064109595352672e-05
1.5980915603973697955e-05
1.5992332179817197183e-05
1.6006264279242047373e-05
1.6023883507454644517e-05
1.6046114153287854381e-05
1.6072693919881829845e-05
1.6102838057553705116e-05
1.6136279480639646337e-05
1.6171993594420340707e-05
1.6209444891274722933e-05
1.6246762574906764868e-05
1.6284288523125315209e-05
1.6319935166594821366e-05
1.6352672394030626766e-05
1.6381163248367800817e-05
1.6405394799426802923e-05
1.192297429151049325e-05
1.1909401834824667404e-05
1.1898607464509399542e-05
1.1884477372207115614e-05
1.187289412288294707e-05
1.1857962452663189072e-05
1.1845949958934500653e-05
1.1830627266806105461e-05
1.1818803685792915117e-05
1.1803662768927671118e-05
1.1792199188494450782e-05
1.1777519285100025137e-05
1.1766290650895587492e-05
1.1751790166613400914e-05
1.1740645304443840072e-05
1.1725885742958503318e-05
1.1714762568508340688e-05
1.1698348504523339367e-05
1.6408598518400147504e-05
1.6447070104810323826e-05
1.6489473328066334612e-05
1.6534009653826916528e-05
1.657880706979494265e-05
1.6622585965308055411e-05
1.6663693489195254439e-05
1.6700507462722460433e-05
1.67319468712223861e-05
1.6756764981895476603e-05
1.6774737624568781554e-05
1.6787554096691181777e-05
1.6796653358500639722e-05
1.6804934631403433087e-05
1.6814634598490318842e-05
1.6826917497989348074e-05
1.6842831384901311076e-05
1.6863473545727774574e-05
1.6888275872693001153e-05
1.691719689813673565e-05
1.6949242655862139471e-05
1.6985546502805849955e-05
1.7024096127287744942e-05
1.7065072081332476674e-05
1.7106733014538341692e-05
1.7148302531494429826e-05
1.7187408325554134452e-05
1.7222709470807917093e-05
1.255872782491072798e-05
1.2544653712981386086e-05
1.2533289685062508161e-05
1.251893614516972406e-05
1.2507009829175897231e-05
1.249200820830056045e-05
1.2479641005034266193e-05
1.2464104351344578112e-05
1.2451697403992211579e-05
1.243597546592273341e-05
1.2423695344668430333e-05
1.240826519185430462e-05
1.2396150866455285571e-05
1.2380902266820054819e-05
1.2369064097545198232e-05
1.235362031161131497e-05
1.2341921136585077802e-05
1.232567529587375965e-05
1.728761817715518539e-05
1.7322895348583547517e-05
1.7362410874529163763e-05
1.7404019992343878684e-05
1.7446174362782864163e-05
1.7487173235424683309e-05
1.7525680316375898756e-05
1.7560940201477566816e-05
1.7591210959730127863e-05
1.7615814096322658845e-05
1.7635319303715666381e-05
1.7651127172292869442e-05
1.7665632665497638755e-05
1.768103115156198076e-05
1.7698779836825424263e-05
1.7720279982641705385e-05
1.7746145953785433697e-05
1.7775423407031276679e-05
1.7808344684179184864e-05
1.7843787010533259166e-05
1.7882669879936934071e-05
1.7922939884871109229e-05
1.7964713811232564271e-05
1.8006044537022805667e-05
1.8046083169889652403e-05
1.8082651591422579598e-05
1.8114952193259058145e-05
1.3142988800515152965e-05
1.3125953688311704648e-05
1.3111651744163744642e-05
1.309434607357313117e-05
1.3079949204557051313e-05
1.3062364193512156454e-05
1.3047100703234246639e-05
1.3029382401280227441e-05
1.3013263666808554469e-05
1.2995157689752992642e-05
1.2979224999578963025e-05
1.2960800625615205646e-05
1.2945386443463125241e-05
1.2927235218151124377e-05
1.2911951514545547964e-05
1.289402007298802803e-05
1.2878673985971828014e-05
1.7957693456278291837e-05
1.7975031363343593207e-05
1.800572084644684869e-05
1.8049287834519188683e-05
1.8102418202438394881e-05
1.8158944210902733805e-05
1.8213248827465966105e-05
1.8260489373470906491e-05
1.8297867060908376888e-05
1.8324616665827518641e-05
1.8341111813796268575e-05
1.8349845473456524654e-05
1.8354316504355348442e-05
1.8357797708948461296e-05
1.8364121693935096303e-05
1.8375845040623806103e-05
1.8394669602939248463e-05
1.8420524660814779791e-05
1.8452867769313626063e-05
1.8489422762498310056e-05
1.8529643842155112078e-05
1.8571035166395717306e-05
1.8613502651711479031e-05
1.8655029207469847347e-05
1.869446683872817442e-05
1.8729877531280750703e-05
1.8760332478636415718e-05
1.3463644611249162662e-05
1.3447856926792075175e-05
1.3424998960823082919e-05
1.3409246182334778235e-05
1.3386139862119922513e-05
1.336978422700695747e-05
1.3345899327792591792e-05
1.3328841835188796449e-05
1.3304155420268663705e-05
1.3286763997809870378e-05
1.3261705590171731447e-05
1.3244662527791158972e-05
1.3219780162804401646e-05
1.320303509316011017e-05
1.3174385988071448937e-05
1.3167670459376140898e-05
1.4051988889618301996e-05
1.4042912332917624775e-05
1.4035132183967578498e-05
1.4031513331491448103e-05
1.4040324162334054804e-05
1.4086706587483109076e-05
1.416599232230048777e-05
1.4235516436595709191e-05
1.4290189303646745066e-05
1.4328472420894967834e-05
1.4351247049074626795e-05
1.4362147435761665908e-05
1.4365058202766212139e-05
1.4364419665274157176e-05
1.4364569975573132673e-05
1.4369437792578684324e-05
1.4381826446731203414e-05
1.4402856630167291762e-05
1.4431387395476289725e-05
1.4465944722778067611e-05
1.4503579556918100169e-05
1.4542872461968423011e-05
1.4581366842694423502e-05
1.4618407954364782714e-05
1.4651905086047618799e-05
1.4680937911396321107e-05
1.4704098846117684014e-05
1.4721280792946511647e-05
1.0457117388075878249e-05
1.0439615045105063649e-05
1.0427385072251459894e-05
1.0409737201359480144e-05
1.0397118748431015872e-05
1.0378952688461281831e-05
1.0365783261312613687e-05
1.0347042650924963067e-05
1.0333664042714864103e-05
1.0314667673548950669e-05
1.0301559208274755483e-05
1.0282717642278880595e-05
1.0269878494404963745e-05
1.0248376622800892631e-05
1.0245843427129208415e-05
1.3339525445186779882e-05
1.3357902904038298583e-05
1.3387880368592444604e-05
1.342768272036842057e-05
1.3473327303702039404e-05
1.3519827215683617283e-05
1.3561913064905366914e-05
1.3595561086631808212e-05
1.3618916863972138902e-05
1.3632882918370133523e-05
1.3638744879203188194e-05
1.3639111457866762828e-05
1.3636945754364833601e-05
1.3635582347180776275e-05
1.3638440803019671109e-05
1.3648160248471358425e-05
1.3665759305967424878e-05
1.3690631951678647259e-05
1.3721761789176591809e-05
1.3756987563553676267e-05
1.3795065062417175545e-05
1.3834061086059143978e-05
1.3873237261988702557e-05
1.3910236342978840739e-05
1.3943980694356011637e-05
1.3972152683011906973e-05
1.3993609799111601482e-05
9.9588770601313102897e-06
9.9479294367594147216e-06
9.9325137491217076104e-06
9.9212344278052628203e-06
9.9053808987076833381e-06
9.8936087442652974745e-06
9.8771779509300471674e-06
9.8651273166132368052e-06
9.8484750387218170206e-06
9.8366260353577956912e-06
9.8201317504637484053e-06
9.8085521134867007133e-06
9.7905618118709027337e-06
9.7828132376970888579e-06
1.2875774593075730765e-05
1.2905853963278770763e-05
1.2940628987369004441e-05
1.2977677636309762534e-05
1.3013736584104845903e-05
1.3045754354177987783e-05
1.3071858881866592176e-05
1.3091163371197794393e-05
1.3104227019783834662e-05
1.3112535603227014894e-05
1.3117515768841272916e-05
1.3120932254329739262e-05
1.3125146666514110461e-05
1.3132516378402794616e-05
1.3144950539855288741e-05
1.3163272177055362929e-05
1.3186800276482369429e-05
1.3214221362331347252e-05
1.3244035264169977251e-05
1.3275341907506891891e-05
1.3306964529610370462e-05
1.3338703134793983713e-05
1.3368782187631906574e-05
1.33964268726935161e-05
1.3419611236276474003e-05
1.3437509339202599888e-05
9.5848607024974551236e-06
9.5699363341070720973e-06
9.5589687056051776833e-06
9.5436415154338700973e-06
9.5322297541517333721e-06
9.5164546218250946807e-06
9.5048553062440078695e-06
9.4889217094658661971e-06
9.4774955563151698127e-06
9.4616929215637025685e-06
9.4505183370525714233e-06
9.4335940893613771106e-06
9.4255189930062421871e-06
1.2417417553893865762e-05
1.2447515288742305178e-05
1.2478328198790620166e-05
1.2507628984739628753e-05
1.2533937450581259925e-05
1.2556250509243780636e-05
1.2574456289890298326e-05
1.2588642103871055649e-05
1.2599568786357498399e-05
1.2607446724271230396e-05
1.2613552317097838617e-05
1.2620020911827490651e-05
1.2628934284713992628e-05
1.2642074704437099688e-05
1.2660326020604634656e-05
1.2682998656466983395e-05
1.2708903882588620018e-05
1.2736959458918850629e-05
1.2766528002479325159e-05
1.2796837037116040567e-05
1.2827941303875514472e-05
1.2858209745886777501e-05
1.2886793355410334678e-05
1.2911482687095448277e-05
1.2931118248993122281e-05
9.2076161991041424309e-06
9.1968344471065659537e-06
9.1818057848939676059e-06
9.1706355172489132358e-06
9.1552614279439184617e-06
9.143979467765847577e-06
9.1284746085532380221e-06
9.1173436934797339804e-06
9.1019638080418191354e-06
9.0910791386097413309e-06
9.0745954194294608597e-06
9.0667853363695938431e-06
1.2008389364026639232e-05
1.2036258661742211913e-05
1.2062406953172224707e-05
1.2085851003517663355e-05
1.2106339424241479246e-05
1.212399732685741855e-05
1.213883706191390642e-05
1.2150188754398891336e-05
1.2158632134130884203e-05
1.2165123189742725021e-05
1.2171555344519171342e-05
1.2180464422004183922e-05
1.2193779390255731981e-05
1.221193375477081964e-05
1.2234646152987865996e-05
1.2260836353664568118e-05
1.2289092390207897808e-05
1.2318924025745636461e-05
1.23495237676955966e-05
1.2380876135881511266e-05
1.2411193610464083605e-05
1.2439628356790824931e-05
1.2463621244556736086e-05
1.2481888900077894687e-05
1.1591751650497377187e-05
1.1614562310982520538e-05
1.1635366657919003728e-05
1.1653929021260582547e-05
1.1670221002626389589e-05
1.168393882500937811e-05
1.1694923723014118573e-05
1.1702890322875913857e-05
1.1709113985906658624e-05
1.1715336771336807369e-05
1.1723872255765518244e-05
1.1736561459988343933e-05
1.1754045717429799088e-05
1.1775406400382149372e-05
1.1799595366026239377e-05
1.182518878413670419e-05
1.1851545348434554706e-05
1.1877951975243790898e-05
1.190463258566444002e-05
1.1930307369385936044e-05
1.1954294575807107581e-05
1.1974673325235603486e-05
1.1990401895079941486e-05
1.1259267830928669466e-05
1.1276803198070513087e-05
1.1289773829479389869e-05
1.1299027082369419371e-05
1.1305222647818600885e-05
1.1309185246025651675e-05
1.1311682310142641238e-05
1.1314605191470935853e-05
1.1319639192423629852e-05
1.1328258872354134647e-05
1.1341001977259969869e-05
1.135724484428633855e-05
1.1375650002991288473e-05
1.1395036092245647402e-05
1.1415206334690927202e-05
1.1435531300293302594e-05
1.1456841478230249019e-05
1.1478272141546295087e-05
1.1499449064409443511e-05
1.1518778199680021715e-05
1.1534923158392077814e-05
1.0891347425887536155e-05
1.0889591106370562118e-05
1.0884977338971577843e-05
1.0879793712418218767e-05
1.0876623722819463345e-05
1.0877429235365647703e-05
1.0883519707085725326e-05
1.0894690688853385011e-05
1.0909987555389157859e-05
1.0927693398927923303e-05
1.0947521233580882543e-05
1.0968292760001602243e-05
1.0990163055265449705e-05
1.1012106669822215239e-05
1.1033547513145370537e-05
1.1052756327831972648e-05
1.1068715249934686615e-05
1.0485385896901468466e-05
1.048605856072813312e-05
1.0491950938836933131e-05
1.050285403826442525e-05
1.0517938675451406224e-05
1.0536102366306775131e-05
1.055652550198787391e-05
1.0578046602221435215e-05
1.0600796401088914079e-05
1.062355720336354749e-05
1.0645469205529444688e-05
1.0665054383609659565e-05
1.0680911295669877367e-05
1.0075239078156576785e-05
1.0084090098601724598e-05
1.0098618976343735692e-05
1.0117826281420158699e-05
1.0140043788503240408e-05
1.0163684647854083319e-05
1.0187325618970339167e-05
1.020992196821488075e-05
1.0230306889331928512e-05
1.0247882442819991641e-05
1.0260827608674036066e-05
1.0269088010773110676e-05
5.2022544946411916953e-06
5.5479891357649649273e-06
5.8383155404832692598e-06
6.0198029817823789877e-06
6.1026617963797569953e-06
6.119039469638846766e-06
6.1074324280180846458e-06
6.0720817172596210201e-06
5.9415822379291390721e-06
5.6953743365506050888e-06
5.5084928642421008836e-06
5.3960719617693525391e-06
5.3469199286754400346e-06
5.336266575028581891e-06
5.3396771670648367331e-06
5.3730180717490778918e-06
5.5098763247670828327e-06
5.6909949286013150851e-06
5.798123552801310435e-06
5.8425400797077398416e-06
6.9592704040731982737e-06
7.0561616078291999936e-06
7.3738461330110249592e-06
7.80584599387390523e-06
8.1059742988720811119e-06
8.2704481460853813409e-06
8.3270235560968179471e-06
8.323773591095922516e-06
8.2958663660615714834e-06
8.1968265850632363083e-06
7.8913788065190346215e-06
7.5592468924906792359e-06
7.3458613093851378204e-06
7.2434265779997310987e-06
7.2164179475801930512e-06
7.2193841803903276776e-06
7.2567222590900725058e-06
7.4195285529558911743e-06
7.6553297759832124569e-06
7.792138014375502776e-06
7.8435538735169116245e-06
7.8471916519400976341e-06
1.2177471372798570593e-05
1.2237741119081238433e-05
1.2444718599149491006e-05
1.2810777859341692734e-05
1.3100757024949261309e-05
1.326972109307782152e-05
1.3332269397163423229e-05
1.3333198561717194504e-05
1.3305903400395519069e-05
1.3236896784535591253e-05
1.3040486688683432674e-05
1.2676752772040096533e-05
1.237762374980941404e-05
1.2194601670847449282e-05
1.2121056533055222799e-05
1.2111935922189505515e-05
1.2125801691672259035e-05
1.2194484820755009891e-05
1.2404559310688065816e-05
1.2604166988659772235e-05
1.2704760731784309162e-05
1.2729071215630348475e-05
1.2718772698421170142e-05
1.2687738882407532853e-05
1.2586315287287830439e-05
1.2364409702011781788e-05
2.7992437832565046234e-05
2.8356177783878335115e-05
2.8727797547741778242e-05
2.9052783390735130578e-05
2.9273449998767587458e-05
2.9378981096748576682e-05
2.9401436742245730106e-05
2.9373368472056050541e-05
2.9285587895487264442e-05
2.9020291208907831362e-05
2.8562348781047244882e-05
2.8201163146418266792e-05
2.7989522580220144307e-05
2.7910168906077579431e-05
2.789564677773127992e-05
2.7941511041411156335e-05
2.8153481463857544717e-05
2.857341654593720053e-05
2.8881661690326497017e-05
2.9033414883382888984e-05
2.906323484647809952e-05
2.9039316240145233528e-05
2.8959464257575242657e-05
2.8710368737780511217e-05
2.8347148976158301805e-05
2.8091483415053395236e-05
2.7955891898519363668e-05
2.7902627690603752972e-05
6.4120372628932378748e-05
6.4341087074891702906e-05
6.4491242649585770862e-05
6.4560913686472501611e-05
6.4564301328714801846e-05
6.4507931462355987931e-05
6.4391667688263077587e-05
6.4122079129951919897e-05
6.3723868116460661236e-05
6.3370370908396984563e-05
6.3097519874436179738e-05
6.2929582841037308015e-05
6.2863729221827857867e-05
6.2840986582144364118e-05
6.2876675552091005218e-05
6.3065823898421295821e-05
6.3324129956343326738e-05
6.3494984698921007305e-05
6.356272444118809433e-05
6.3544526281815856507e-05
6.3490497663499538745e-05
6.336470136946817139e-05
6.3059973382594504865e-05
6.2716171453875267801e-05
6.2439012175472520202e-05
6.2236766999302793515e-05
6.2114126637437863101e-05
6.2046536444892381513e-05
6.200904986533460801e-05
6.1992401028816747637e-05
0.00010151466269172855007
0.00010138173549505511567
0.00010120323854005622429
0.00010097150570415547798
0.00010068802299751571181
0.00010036103685567116742
0.00010000527027157398992
9.9642434446714625356e-05
9.9302352399611857258e-05
9.901270826092272272e-05
9.8791069031913022048e-05
9.8634428402149927303e-05
9.852400682165280137e-05
9.8429159009162190005e-05
9.8322210299006193991e-05
9.8187613063985563892e-05
9.8019898983361532338e-05
9.7821773657161999725e-05
9.7598701921714758607e-05
9.7358542646313963351e-05
9.7114294149748631667e-05
9.6883797273031110214e-05
9.6684188111328269962e-05
9.6522431495822330681e-05
9.6392271650766681501e-05
9.6277594981950359002e-05
9.6163553907232480144e-05
9.6042795330026920755e-05
9.5912196926244326373e-05
9.5770419778103905496e-05
9.5612978149362117886e-05
9.5440358767761221122e-05
0.0001236105349522132954
0.00012335148612976437827
0.00012308459845477491513
0.00012281182029447119735
0.00012253386980206343727
0.00012224877449656300571
0.00012195413859458786475
0.00012165242059140647668
0.0001213538566171041156
0.00012107301717319052031
0.00012081873812886836483
0.00012058636051844131328
0.00012035985025897187627
0.00012012224750117936789
0.0001198668328158805017
0.00011960152668542036987
0.00011934151400428159645
0.00011909923639949853411
0.00011887643536236894987
0.00011866715788611347892
0.00011846733041979368791
0.00011828020410702754319
0.00011811216118130946626
0.00011796062554929777485
0.00011781177934450130166
0.00011765005529483167472
0.00011746960097358514238
0.00011727812169006919247
0.00011708660020283313678
0.00011690059471831361294
0.00011671578437406004373
0.00011652744367681157583
0.0001163327891717237211
0.00016156631419204030937
0.00016068296047571596001
0.00015980029158459263376
0.00015890989179150421498
0.0001580135867889800969
0.00015715607690161364184
0.00013570965272282961415
0.00013547754452626078287
0.00013524192418088863861
0.00013500281960435289827
0.00013475689536822949162
0.00013449790642662757308
0.00013421940961976295105
0.00013392266462654850846
0.0001336204839252697681
0.00013333285321732573367
0.00013307245138015531502
0.0001328354060811377487
0.00013260263312733143416
0.00013235586231385038656
0.00013209027887877967901
0.00013181738707455592182
0.00013155584680704147677
0.0001313185766466075041
0.00013110475361902070067
0.00013090452023900792512
0.00013071224222494751566
0.0001305318796109826852
0.000130370383564303976
0.00013022406675877916068
0.00013007566088557755016
0.00012990711284286486876
0.00012971379951923472235
0.00012950716759676091051
0.00012930263126048854622
0.00012910636949963830438
0.00012891341431941376935
0.00012871570656219522987
0.00012851183268097727359
0.00012830525064057982294
0.00015551190432113915396
0.00015479621424051076203
0.00015406322859101416489
0.00015332136513000575728
0.00015257505841871721948
0.00015184798258853696835
0.00015119310058795611021
0.00013286741987883553089
0.00013268280689528828484
0.00013248959597252237506
0.0001322877351912477809
0.00013207422316794650754
0.00013184631060816443069
0.00013160461702493855764
0.00013135898714108955798
0.00013112767460833895132
0.00013092859297721281425
0.0001307664421549681441
0.00013062633043053653559
0.0001304834856439978665
0.00013032298683313760278
0.00013014902735403795653
0.00012998128962920325793
0.00012984027449669373008
0.00012973293389626571023
0.000129649475320756162
0.00012957477749598667657
0.00012950235129501015208
0.00012943597962478822706
0.00012937677972232232838
0.0001293134375281876575
0.00012922342611322069645
0.00012909356210622890525
0.00012892981723219308957
0.00012875143180596002154
0.00012857508455838776579
0.00012840418254204412872
0.00012823134761534471147
0.00012805011912108286618
0.00012786275540489693632
0.00012767741566306213389
0.0001275019151751105508
7.844273348104648219e-08
7.8671113843142633903e-08
7.9050739186741519509e-08
7.9369945384517542488e-08
7.9667303924892886035e-08
7.9903178784931755326e-08
8.0240406299770425614e-08
8.0419854878078386848e-08
8.0777998680682971944e-08
8.0938411986774274227e-08
8.1160855311717929718e-08
6.9461691184775094024e-07
6.9143432022641152839e-07
6.887659005487221801e-07
6.8669275365519533465e-07
6.8523814627293012069e-07
6.8430798902758333881e-07
6.8373710344232593182e-07
6.8330707606294664782e-07
6.8284252544636205684e-07
6.8220674191951546469e-07
6.8146976283456299156e-07
6.8077880302252121405e-07
6.8021245377130908056e-07
6.7974193829625666838e-07
6.7936449277008959181e-07
6.7896427917258052492e-07
6.7850580925497920102e-07
6.7792278005722559655e-07
6.770236224237567861e-07
6.7522587944131409024e-07
6.7258377268384297356e-07
6.7000876397533298968e-07
6.6754652605916817929e-07
6.6520451118967286468e-07
6.629954267962291539e-07
6.6093156388253520322e-07
6.5905690000204209508e-07
6.5745372549515726348e-07
6.5611242384484126765e-07
6.5497586176873711275e-07
6.5400802150942603492e-07
6.5320618792906898434e-07
6.5254331146569838212e-07
6.5195206138963835511e-07
6.5130466187978187038e-07
6.5045361962257170767e-07
8.1048570203435981199e-08
8.1103353850434239553e-08
8.1177996906007867103e-08
8.13152619605745815e-08
8.1416722751006520515e-08
8.1462671505018331851e-08
8.1581148816873097018e-08
8.1640028185976543242e-08
8.1798613305676524567e-08
8.1986930669804897653e-08
8.2307412942383653989e-08
8.254896549329974519e-08
8.289979527516915349e-08
8.3247308144641645459e-08
8.3501688707482001411e-08
8.3746698064096960183e-08
8.4046191020738121051e-08
8.418673099395393342e-08
8.4542285917285163532e-08
8.4677736132708193012e-08
8.4869101079196733117e-08
7.0320471926761208145e-07
7.0143102534141967215e-07
6.9967998505754919295e-07
6.9817552683380217901e-07