/*--------------------------------*- C++ -*----------------------------------*\
  =========                 |
  \\      /  F ield         | OpenFOAM: The Open Source CFD Toolbox
   \\    /   O peration     | Website:  https://openfoam.org
    \\  /    A nd           | Version:  12
     \\/     M anipulation  |
\*---------------------------------------------------------------------------*/
FoamFile
{
    format      ascii;
    class       volScalarField;
    location    "0.0062";
    object      k;
}
// * * * * * * * * * * * * * * * * * * * * * * * * * * * * * * * * * * * * * //

dimensions      [0 2 -2 0 0 0 0];

internalField   nonuniform List<scalar> 
106891
(
0.015778219472301603654
0.015771859707002320455
0.01576117752054104898
0.015755451456629172152
0.015745298552175702317
0.015740024056433241789
0.015729629198870807155
0.015724290756151938081
0.015714171824559516888
0.015709200962619671027
0.015696145124652578079
0.018628244463384534269
0.018735833005877135932
0.018816754243015838127
0.018878453337284151897
0.018930568769064532592
0.018983517235198837936
0.019045886828270488372
0.01912359942515972494
0.019218322797332744456
0.01932690946913823149
0.019444387192131436237
0.0195631734913877392
0.019677059096566387048
0.019780966479348245646
0.019871006856308475602
0.01994733001190894528
0.020011671056351192782
0.020068873848715231001
0.02012534411564426487
0.020187291166497298156
0.020258710432093478271
0.020343421196184954119
0.020443944560383873338
0.020558657121296401021
0.020686352982145665008
0.020823449282293422097
0.020965812595059352824
0.021106977348548213586
0.021242937371188739398
0.021368284117771842168
0.021478534752290587978
0.02157098031734743307
0.021645679307230488581
0.021701783181238797071
0.021739908068708069244
0.021763601091975989799
0.021775374797726201187
0.021780381541543419183
0.016675938037192614832
0.016661610304220388773
0.016653095434691084914
0.016639067588153696325
0.016631049091504424009
0.016617651457145367344
0.016609794688237623783
0.016596678875951832027
0.016588885625015044323
0.016575891186794911719
0.016568590659159845857
0.016555922270678830738
0.016549143913978919124
0.016536803629436810925
0.016530436435514488103
0.016518396835565527653
0.016512357911783889786
0.016500821002709015889
0.016495142679159569693
0.016479923629905211813
0.019772508679984108354
0.019848294900596842594
0.019892516309285575293
0.019920744470104410906
0.019949875105111414958
0.019993771941976452161
0.020060727589016016936
0.02015334655643950118
0.020266796793672957333
0.020394338496047974968
0.020525994189945932777
0.020654006980347444644
0.020771769552242629053
0.020874409993426861626
0.02096201798381263845
0.021036740489485287325
0.021103207092138774603
0.021168865204210331188
0.021239410180443653309
0.021320152787508896836
0.021414340209216019967
0.021525037249248438198
0.021650399638912114914
0.021788607375968417623
0.021936123997877452624
0.022088523555712155644
0.022239273527692178523
0.022383454672368789662
0.022516175126303550336
0.022632959522034989258
0.022730825773800863304
0.022809789858506325511
0.022870158340724550811
0.022912122162822953081
0.022939074240044817626
0.022954682224555655878
0.017528750634148639043
0.017512781103758222334
0.017503621418419872124
0.017487782223874159121
0.017478760798288615202
0.017463265346805326161
0.017454188958018798661
0.017438787186534854268
0.017429696962545818822
0.01741432916403610337
0.01740584744838666667
0.017390783133589892556
0.017382958957908815206
0.01736842490217609114
0.017361151468597756098
0.017347357933707445443
0.017340491263394441218
0.017327324659088073899
0.01732081766453070007
0.01730324695258792303
0.020707626708178609315
0.020778188751677514889
0.020844136021736354991
0.020914835471677536982
0.021000029237780389046
0.02110602159455851265
0.021233779534601336658
0.021380093487867925933
0.021535360490604445877
0.021688881535994009725
0.021831432889405043979
0.021956128343148372667
0.022060395174124277501
0.022144373183249708992
0.022212434638530082626
0.022268667584144946625
0.02231961894261510343
0.022373189587776853154
0.022434511481028294316
0.022508535515682194517
0.02259811801178042423
0.022702556975479380036
0.022822196590955037832
0.022953925681946991955
0.023095364147274848737
0.023240355841476083992
0.0233837034967157055
0.023521232783832696223
0.023648752367983128658
0.023763129091095958056
0.02386254957394077017
0.023948497069252502184
0.024019888790275507884
0.024079202876752366091
0.024124768481690393729
0.024160891219311177169
0.018407285950704010968
0.018397432538097675814
0.018379751126269799899
0.01836971893486839813
0.018352260871316590507
0.018341991824237298403
0.018324225573553860197
0.018313698309449760737
0.018295764520917513068
0.01828598951999550401
0.01826837680808704803
0.018259438112078436173
0.01824274228950315338
0.018234606377288655604
0.018218820093883467126
0.018210975618559378103
0.018195660061589829376
0.018188019313351368872
0.018167634042639452946
0.021811331676279330921
0.021916923336226325908
0.022032255722857611163
0.022161314346019599791
0.022305904398690457047
0.022462854920457488855
0.022627294032889242598
0.022791741952093120399
0.022947934635853740881
0.023087950256637207458
0.023205687551436343652
0.023300010562254239166
0.023370346381972776501
0.023420581990422399687
0.023458167268820061951
0.023490196104217500594
0.023525696242051922363
0.023571907236984001449
0.023634430478134217657
0.023717892079685456985
0.023824674296395259576
0.023955680670790412828
0.024107314168383547903
0.02427698036986340388
0.024459052596963078152
0.024647253147581212052
0.024832698784194060654
0.025009066863878617881
0.025169629531780944587
0.02530909239653251
0.025424362521114751007
0.02551615586742319447
0.025582487258355064014
0.025629078127645019136
0.019365684824293120936
0.019346137224745995481
0.019335490417376435812
0.019316143565078710415
0.019305236182593471517
0.019285846056290828487
0.019274321503937551919
0.019254288023157262177
0.019242496105102792348
0.019222023381174863782
0.019211036196534712894
0.019190938390538671982
0.019180806427282544313
0.019161763558486259035
0.019152512827007365376
0.01913433187394017812
0.019125334727422414749
0.019107302496917357576
0.019098194107595684726
0.019074409967747070482
0.023002040612196263808
0.023049869122542494121
0.023102727374541911359
0.023174091587447331192
0.023272928839496092451
0.023403194904675263949
0.023560446508020065765
0.02373529068849538487
0.023916007461286664659
0.024090330773976525308
0.024249475400264151187
0.024384414536485835012
0.024494370552428635507
0.024580365453051280372
0.024646483492087929712
0.024701701241732963027
0.024753525323277066755
0.02481084565752835619
0.024881166258516058953
0.024968520212706266787
0.025076504099609514542
0.025205457049166529043
0.025354064296994608535
0.025517808844948877689
0.025691682641920090407
0.025869818835801059592
0.026047063594647146267
0.026216103729805290135
0.026373024362778770685
0.026512882988034343346
0.026636297235255356614
0.026737905289481174453
0.026820383450046635099
0.020331599603591314629
0.020320020286154913403
0.020298925003687778162
0.020287015415540021052
0.020265645267144749564
0.020252926171759163404
0.020230642258474838824
0.020217671469842067589
0.020194762403019001634
0.020182620493904825099
0.020160097200621805713
0.020148829579015176128
0.020127477448043506331
0.020116810150283784275
0.020095709479097008388
0.020085038522480520157
0.020063779570537752794
0.020053107937465092236
0.020025779586566372359
0.024110902640049957507
0.024192094764482988123
0.024296374754409912067
0.024429202252293693437
0.024588932346693792574
0.024769870443456340481
0.024960949784387342909
0.025151577357981791394
0.025330991766309231966
0.025491941302390713764
0.025629620817879329026
0.025742567809918539407
0.025833604034529365073
0.025906675825794863582
0.025969779429812784449
0.026030811888537841448
0.026096504097003311168
0.026174017796823607906
0.026268402099860598681
0.026381578056124725673
0.026513917483186450613
0.026663703759656313952
0.026827845474386054214
0.027000840570136633995
0.027177601855240242357
0.027354046602438977093
0.027523921647102336796
0.027684617514324123128
0.027829200450406588879
0.027959369465987430475
0.028068693117575416879
0.028159729954381582107
0.021367054456812688279
0.021354388830205434102
0.021331324598654260311
0.021318286207327515058
0.021294642839255320532
0.021280606820955186298
0.021255924001860659889
0.021241772377698076718
0.021216485803862754345
0.02120334963266448311
0.021178524715583384869
0.021166044153193234317
0.021142063549677889145
0.021129733941950525761
0.021105663352266837429
0.021093216284181759423
0.021068638910806399694
0.021056331398800507554
0.021025363278844150933
0.02544251121249129291
0.025582194058059351538
0.025749562576737921454
0.025939008981294028183
0.026140979921632258309
0.026345016123645408762
0.026540485988184914917
0.026719944673420498865
0.026877188243387820088
0.027010525873121658813
0.027120063051953691158
0.027209458011949894801
0.027284688010701732552
0.027351454266026722223
0.027417857767874018182
0.027490169410418405921
0.027573481713212926597
0.027671933846856726358
0.027788524670267638478
0.027922271156387096225
0.028070437014238031059
0.028231722033192341997
0.028401489889723421922
0.028576461684790100543
0.028749029945561686838
0.028920321150647972097
0.029083839846117166134
0.029237193143854867117
0.029376583693054781482
0.029502071626055881987
0.022446304310489481604
0.022420989156833194544
0.022406675835007518888
0.022380717992936682154
0.022365406847887854547
0.022338477066938058208
0.022323250365232003706
0.022295873816769753301
0.022281649863159117692
0.022254511120175322209
0.022240759640556904964
0.022214273053488144127
0.022200423241026223664
0.022173991631462528634
0.022160096722865275237
0.022132784351695133918
0.022119135704213435667
0.022085870091719663616
0.026957764470861338146
0.027128437970996781281
0.027309512886000808507
0.027497121063331339541
0.027687202339400956291
0.02787642299885560726
0.028057931780240432523
0.028224874714566975525
0.028372376614914197185
0.02849666754955211892
0.028597741611268327061
0.028681100091506529087
0.028751053865218190869
0.02881678784664689838
0.028885714553723698672
0.028962876524361011454
0.029053248666950737961
0.029161493409483412592
0.029286704354237715758
0.029429367870429965631
0.029585697140669209998
0.029758269024138431225
0.029938265082221398455
0.030124952354156870477
0.030312086112051848941
0.030497884786934850027
0.030675199714492229486
0.030840343562088236296
0.023658310447990993364
0.023632807968229391227
0.023617644600381404452
0.023591737022413818842
0.02357577244526785909
0.02354916769283856709
0.023533387459217909587
0.023506331845758815513
0.023491461855018450078
0.023464047256015269777
0.02344939299076932715
0.023422338110430519775
0.023407356009550735892
0.023380169286831939401
0.023365563812037731112
0.023337471157581682335
0.023323451263610541634
0.02329257932593039454
0.028465511839154303969
0.028623393384797211902
0.028793978123538239988
0.02897226980580818248
0.029154189973687849591
0.029334342990946147417
0.029507286648074677882
0.029670150251435073452
0.029817970126534074082
0.029949231751397135254
0.030065146173858550011
0.030167844221488774453
0.030263086836720031608
0.030357384530165093528
0.030455800427639834888
0.030564361535232831973
0.030687843570930614656
0.030825256177605755287
0.030978745064146395033
0.031144400858939314675
0.031324399669416295999
0.0315100336406748463
0.031700491627160459762
0.031888475244932719399
0.032071533549262259966
0.032242982960997423891
0.032400402024631326514
0.024643659707251720781
0.024608978125470280102
0.024584492582249841547
0.024549074143069938431
0.024525269331882780521
0.024490430624131677428
0.024465241568429801911
0.024431667206396685127
0.024404521039047069597
0.024370065017084562714
0.02434346331916931519
0.024307068042122435131
0.024281470386569241338
0.024245069734179777038
0.024219359923766625026
0.024183547250601410833
0.024157657177323894199
0.02913178180990097163
0.029231206220030000326
0.029372452749835086666
0.029553979683591337368
0.029766204323290784001
0.029990678225892485054
0.030210242159712092508
0.030409820982034641706
0.030581042885742096976
0.03072083881568333022
0.030829289222550224081
0.030912987544781739963
0.030981237735226790919
0.031042787395255393157
0.031109129381331503822
0.031188644399532696599
0.031288101285369164517
0.031409378611409528859
0.031553382625791645544
0.031714775026777844436
0.031892816040009874801
0.03207842537164327934
0.032269672279733541131
0.032457998072074480123
0.032638795356518444934
0.032805725300135230027
0.032956354167270621169
0.024596177554882019123
0.024567854211269016251
0.02451360912533229186
0.024485734596261608115
0.024431817099188034292
0.024403554697791190325
0.024348816894132506439
0.024319720107609684584
0.024263220257845257571
0.024233279648919497928
0.024175063135575752121
0.024145616669291197071
0.024086990815787055059
0.02405782396957469732
0.023985021936143335192
0.023992129262040362558
0.023539203317989251113
0.023541327326761039146
0.02354677562327237364
0.02356452819979349203
0.023622218935675148854
0.023805803360803130808
0.024104153408138428993
0.024374699330052082558
0.024600212325266362229
0.024773869619389154995
0.024896242641073901281
0.024977591013853668589
0.025029828996845891048
0.025067500880989294909
0.025105041596900801171
0.025155576379279485227
0.025228955702473472578
0.025330330666274922247
0.025457971816624597183
0.025609089566451637143
0.025774652424237508297
0.025949398692718478321
0.026123153321497383922
0.026292049054494632393
0.026447842645893348407
0.026587514199878686111
0.026706892210289875228
0.026806513068693693658
0.019601794235583093473
0.01955995442920402394
0.019538031722470466239
0.01949629699729594004
0.019474098496828993327
0.019431880099274798784
0.019408988699598964112
0.019365676308622313539
0.019342544984421790322
0.019298282263377309481
0.019275817846782426074
0.019231489544472575581
0.019209420600005553542
0.019154659423352565772
0.019170637360890207396
0.022076987099020912303
0.022165966998839537611
0.022292296637631183603
0.022450796243848950007
0.022629603443719382289
0.022814011317473733426
0.022987859332074124519
0.023137564859836645681
0.023255242647660247235
0.023341730469574672319
0.023399602936330504699
0.023437154672345188178
0.023464736039199643458
0.023493709202100806349
0.023535144097217818027
0.023597644768455047076
0.023685469357401352231
0.023798569877226404684
0.023935789341484034476
0.02409096279304596272
0.024259420155165772881
0.024432725304045055381
0.024606490976218971939
0.02477153294893040536
0.024924440111230492662
0.025058175737779103676
0.025170169487663089647
0.018497897541574454677
0.018480340078453706687
0.018446524646155461336
0.018428603367644919714
0.018394302939842510636
0.018375693299959416915
0.01834019964381954429
0.018321159797754123233
0.01828504526955223447
0.018266652989024596138
0.018230679859620690236
0.018212738162660807584
0.018170649812928877515
0.01816623851596399844
0.0214027094063756404
0.021527094249672532739
0.021667298839648903991
0.021816888005230725134
0.021966433504889748551
0.02210618155709561175
0.022228780520199879767
0.022329327909326731477
0.022407973181223964088
0.022469011932025485107
0.022517746378267169266
0.02256101994671187369
0.022606963213409745489
0.022662788102669820245
0.022734313234443762064
0.022824949900105303419
0.022934358065257818421
0.023060224927462603939
0.023198334826805035169
0.023344718359816989117
0.023493113613935068945
0.023640683146547148558
0.023780177017883718377
0.023909441922937368918
0.024023010170188780626
0.024119936677246340412
0.017828115267959260964
0.017795785989773077462
0.017778580264595403304
0.017745638861625317312
0.017727698680390292785
0.017693906581266141687
0.017675854490537296071
0.017641741285672408318
0.017624322300346068754
0.017590340771530939279
0.017573325337070584001
0.017534548763574363955
0.017528219043718498704
0.02071107782107559081
0.020833988961942894597
0.020962165972534096275
0.021089110933396885278
0.021209097475944838768
0.02131674757359889455
0.021409647508449435732
0.021487064458031248509
0.021552008352965144194
0.021606580971433198002
0.021656216647731742209
0.021707981904058822054
0.021767723872066262192
0.021840626121924753417
0.021930385650540031722
0.022036764905732871
0.022157937390091836383
0.022290991569446003823
0.022432490526848421902
0.022577229994041138339
0.022723003195264601661
0.022862899082126679484
0.02299444249030854065
0.023111913352282791034
0.023213370897700411066
0.017118529184555624639
0.017101605900653772674
0.017069301310258584714
0.017051727634541657963
0.017018850333687812054
0.017001377052080039742
0.016968246151018311768
0.016951305820260709895
0.016918284925539851804
0.016901682354353353421
0.016863844519611054934
0.016857733512103727225
0.020151113359567825178
0.020270099292009107622
0.020387229847896468082
0.020497390357454046278
0.020597063537123663779
0.020684712034808688114
0.020760194061163222967
0.020822784043520496666
0.020876573640829294842
0.020925938820726231598
0.020976754400899820519
0.021036031704339586829
0.021109210982812605384
0.021198321002907270783
0.02130455479136092109
0.021426570745454585898
0.021560442547314897371
0.02170329622633454178
0.021849644300950262638
0.021996760517640268073
0.022137026420824455764
0.022267880345962619976
0.022382186081105859971
0.022477846937089023677
0.019542619822851298172
0.019648313936904832078
0.019748169576059276115
0.019838719104131683629
0.019918350789419565772
0.01998649098342878544
0.020044785632888379584
0.020094738913762670574
0.02014188219634260521
0.020191379749440959562
0.020249182366440375558
0.020320044762570915048
0.020406374647367102326
0.020507011489169751917
0.020620795060493194578
0.02074396544969784803
0.020873391166323335133
0.021004058901997885167
0.021134144195614504302
0.021257553833729830178
0.021372281300343409782
0.021473149547778007384
0.021558733020448112017
0.019221703121157167338
0.019306732095966755436
0.019373030522045038559
0.019424344209330389466
0.01946517650586202311
0.019500681274417813738
0.019534563567484376778
0.019572577192193286316
0.019618530263569380206
0.019675679471553547684
0.019745475861343474155
0.019827253356293650377
0.01991878775858355391
0.020017655205619058756
0.020122848232037658656
0.020230065630202489352
0.020339780506101318852
0.020447463451271217366
0.020551911384717746339
0.020648936383166359432
0.020735799445115991879
0.018775489401883872775
0.018791336555187439922
0.0188004785933113365
0.018810202816359485045
0.0188275415822645939
0.018857294635718512693
0.018903275279488221394
0.018965770447171272084
0.019043810705604527489
0.019133324965437275428
0.01923359516745493103
0.019339112561202919521
0.019448420148340358343
0.019556511861565688964
0.019661282730558685139
0.01975779208833276443
0.019844061981622841684
0.018190453364139717168
0.018219459280130134715
0.018264373284574166728
0.018325099140442710488
0.018400701155356510852
0.01848924178567124682
0.018588572015002829962
0.018693863092092786321
0.018804082632091979194
0.018913766448355660149
0.019019810476021623002
0.019117970218235341012
0.019204556773244944867
0.017486574686120071737
0.017541120346729777157
0.017613773100593605597
0.017702489010405737108
0.017803160760379011657
0.017911150715225015312
0.018021147706359038482
0.01812840667278461243
0.018227880535752669783
0.018317439279174087957
0.018391466823569100481
0.018450845679464214499
0.0087202286821779408793
0.0099221327289466029059
0.011006848310053780893
0.01173462115151972969
0.012103352272985630142
0.012215637336604573751
0.01221305108423361048
0.012107927353703633322
0.011619656056561070839
0.01069066631351116986
0.010006979054749528743
0.009605152947145414663
0.00943230177262603664
0.0093973740938227984937
0.0094150625675026508588
0.009542208996554928796
0.010046953080999220312
0.010736775387248461214
0.011164295607507715435
0.011354122923343621526
0.016240995590261431136
0.016689047478980756356
0.0182223320583638701
0.020441428514202553135
0.022090948313479047416
0.023068027825888976629
0.023471382507282458063
0.023542309930720144162
0.023466009277503526581
0.022976235812746579473
0.021343580402036432808
0.019607645496737095836
0.018525331186141628936
0.018013680531423360842
0.017879680484669976254
0.017898309012375802907
0.018093982835168637147
0.018931400780440133663
0.020183035715249330461
0.020945469559402449256
0.02125820833859079495
0.021311580587874814907
0.051698349627493943304
0.052227236057059041319
0.053998990683859715567
0.057210334996673294083
0.059832429898078992592
0.061425213110466753141
0.0620981897597164198
0.062256360050404156714
0.062199651187832653843
0.061783839398381959485
0.060195259010258850285
0.057078038668267556954
0.054562140327107482018
0.053056790010538687485
0.052469621397025996423
0.052407603696201426891
0.052526493254030755253
0.053120366312781747142
0.054977402917473050525
0.056802526778801556984
0.057775978069341864252
0.058076879228166747304
0.058072857704944538804
0.057885354562068107309
0.057058890290759868569
0.05514821632316473099
0.28349735291660510539
0.29110592578285227061
0.29889478835258553868
0.30574924513452317321
0.31047786790601572537
0.31289125790227423352
0.31372220887576174331
0.3136937321094115938
0.31260868236321365243
0.30792421177785583852
0.29928076812760140424
0.29273813958043626293
0.2892491097465691996
0.28834407753404284191
0.28856794903537275054
0.28981806816822380801
0.29434638640437504886
0.30324751032008206986
0.30990330962421031025
0.31331817131436856538
0.31419697833834930867
0.31399271240936071914
0.31265822957593697451
0.30776146368389450947
0.30048724709976015745
0.29554219608386411711
0.29311671994798005336
0.29239695609106702845
1.5411861537087709895
1.5523632656733616919
1.5603226899111821702
1.5648579967086750919
1.5669551627652562598
1.5671228133028931584
1.5653307726189868987
1.5567185412475625927
1.5419153785765093989
1.5288941756637641767
1.5191224175706190547
1.513789718577820631
1.5129628243691053413
1.5140010384359197104
1.5177364506657071708
1.5287807568563669403
1.5431668330712930981
1.5533159569940464539
1.5585066598510326497
1.5595814412898680867
1.5588667318312692256
1.5544613337863324443
1.5410894782418054216
1.5257473354659900622
1.5138453296475475884
1.5058389619423007133
1.501861845018323427
1.5005834821088213094
1.500741347808866033
1.5019167973153755291
4.0050891738511120721
3.998042455571477749
3.9878956836820727005
3.9742413757295205201
3.957332619281408892
3.937949196792071227
3.9172977939928541602
3.8968764757945688615
3.8784444378649669538
3.863441187319746728
3.8527799078270783539
3.8464028608867608661
3.843486271674910526
3.8423065261696338624
3.8409046009882343853
3.8376350108854078158
3.8313351809765423539
3.8216657873689037217
3.8089938070825515304
3.7942557647663122111
3.7787114674649959767
3.7637193972874998238
3.750435573354316432
3.7396126860904841394
3.7313430162917344823
3.725018418273613019
3.7196374283279896034
3.7142656292607232338
3.7081404389532997001
3.7009636261231229071
3.6925584570471978729
3.6832110986381865203
6.1479978560343404581
6.1282652117744484954
6.1083273770613351061
6.0884300850149779549
6.0688501491314150726
6.049762361545461431
6.031259661963018992
6.0134396574776154409
5.9964644934654254271
5.9805295902377597628
5.9656926720452529977
5.9517342339689021102
5.93817471918825035
5.9244260414370701895
5.9101095875467333229
5.8952421048085454913
5.8801582860303858169
5.8652973648925179617
5.8509221982537296114
5.8370702950892381367
5.8237341877284229952
5.8110443352490186442
5.7992189586804396839
5.7883032190029997111
5.7779466888933237456
5.7676562001643141286
5.7570721168853458138
5.7462284940501833219
5.7352721411976261834
5.7244079861505863249
5.7135465764816384393
5.7026985236021294767
5.6917155623673423293
10.176421684925015754
10.076849275113243465
9.9798494868348299747
9.8854557224121144543
9.7938042301654348876
9.7061600328167703111
7.6895176763143648913
7.671500582856156214
7.653668359858452952
7.6361198364904661062
7.6188578588922029056
7.6017506980030455921
7.5845783458731661497
7.5672644693702189045
7.5500596139421993769
7.533473793990314249
7.517863683718326584
7.5031345365750299337
7.488726481558679815
7.4740530459023828413
7.4588828705950387388
7.4434534808293886243
7.4282782812380618864
7.4137931871627342773
7.400080500549270468
7.3869207121597684207
7.3741392526326121626
7.3618272976984373557
7.3502033922315002101
7.3392154379388232499
7.3284011283165177986
7.3171440708109534157
7.3051707401125112185
7.2927203643671267841
7.2802416387174959667
7.267951126615122881
7.2557771926291296793
7.2435038864732073094
7.2311452976079548804
7.2187243726492482665
9.7524125968388375441
9.6716528787095938924
9.5911328423290527212
9.511904365076901513
9.4354079371441699209
9.3643753911615288388
9.3013502712164619624
7.6586625948855893142
7.6460652554221733013
7.6330169601068753593
7.6196220931467708581
7.6059439795040413301
7.5922423100242095728
7.5791024349383713243
7.5674348630685717154
7.5581295241946326868
7.551480084371340773
7.5468819938354858579
7.5430235065854294163
7.5386955248647051775
7.5336623599817809094
7.5287131967816485201
7.5250531177668715799
7.5233974281755973124
7.5235282710959126007
7.5245373585721608833
7.5255825383870060818
7.5263976736790878519
7.5269814256256486473
7.5269016797075121161
7.5251688253619573032
7.52080223635664602
7.513754861405564256
7.504909812304038752
7.4953810838649799209
7.4857479417341536987
7.4759162766300333303
7.4655814512502587377
7.4547336999548043934
7.4438145620512798928
7.4333669095850751773
7.4237440885693288806
1.4041188587173014233e-06
1.4137749008203100371e-06
1.4289468651228249163e-06
1.4420763919325421317e-06
1.4545360751623689133e-06
1.4648749260364887394e-06
1.4790955212882949772e-06
1.4876420711487120862e-06
1.5029698658255402317e-06
1.511065474393821759e-06
1.5215155110796691696e-06
6.8849495951488567545e-05
6.8308966755497918175e-05
6.7880710128639791014e-05
6.7577469855624222768e-05
6.7395314573306992919e-05
6.7307596922576049762e-05
6.7278801740447525073e-05
6.7269888533459139398e-05
6.7254947217128399281e-05
6.7214936823126639307e-05
6.7165658015677290457e-05
6.7131876690571299195e-05
6.7121162361207537136e-05
6.7122364147990487386e-05
6.7135064600933204828e-05
6.7141241869017679591e-05
6.7138890706324350251e-05
6.7116552470135963366e-05
6.7034282917892220612e-05
6.6774075104928767616e-05
6.6345035748547665812e-05
6.5931378449616360863e-05
6.5546289294908706164e-05
6.5192802062492765194e-05
6.4871395796437585578e-05
6.4579790157191311055e-05
6.4321792823480473944e-05
6.4110507958918289562e-05
6.3943787333438036925e-05
6.3812011589990623168e-05
6.3710243533511185811e-05
6.3639819472860844262e-05
6.3596640374202442108e-05
6.3567968398929740781e-05
6.3528570356235431805e-05
6.3449055714231725818e-05
1.4066037136483762238e-06
1.4105261080895249589e-06
1.4150829145787283513e-06
1.4217744092942638097e-06
1.427165901963611939e-06
1.4305274854221575892e-06
1.4363721892354831432e-06
1.4400633663339387953e-06
1.4472293805645164869e-06
1.4554338383384091469e-06
1.4683691006012438151e-06
1.4785383787214215569e-06
1.492684433514766787e-06
1.5068449423457663589e-06
1.5177460174380230239e-06
1.5284141083277598077e-06
1.5412317106188930933e-06
1.5483465088821640653e-06
1.5635391338382692417e-06
1.5707321754305440798e-06
1.5800286702017989695e-06
6.7047874543433693805e-05
6.6804549521832571582e-05
6.6571543573208522481e-05
6.6387058564683145714e-05
6.6271152218720094174e-05
6.6214954674154332098e-05
6.6199724939461861541e-05
6.6202872626664016858e-05
6.6214596099178562954e-05
6.6253246449433537491e-05
6.6401614076409435717e-05
6.6748849130364266979e-05
6.7059433138469721363e-05
6.7285241238841149306e-05
6.7402225086321003911e-05
6.7447125570777063225e-05
6.744802278964126313e-05
6.7409799830043387603e-05
6.7226055533902017596e-05
6.6846581055639764032e-05
6.6538562339923994432e-05
6.6313071216625695805e-05
6.616255257330588618e-05
6.6073632598364034733e-05
6.6029580726215163569e-05
6.6006607071322659385e-05
6.5996975338367060322e-05
6.601137058941645595e-05
6.6110345385667632426e-05
6.6289668298332257062e-05
6.6414715872167891654e-05
6.6493262816998214551e-05
6.6532060163236378045e-05
6.6547856438561845435e-05
6.6549130874357239024e-05
6.6536158232129806239e-05
1.4889465777071769279e-06
1.4916649564496313292e-06
1.4945208779757771607e-06
1.4988805582071302057e-06
1.5031458724374760177e-06
1.505755646308127809e-06
1.5103784134871685805e-06
1.5133617616437065816e-06
1.5191039283788253729e-06
1.5257268330089678462e-06
1.536828055297698269e-06
1.5474120279536097081e-06
1.5586675205797507714e-06
1.57188304657973418e-06
1.5817280522530857591e-06
1.5914031265523237482e-06
1.6030306608445458339e-06
1.6092618928255194018e-06
1.6239544420121394111e-06
1.6310239983291499625e-06
1.6403568330352134943e-06
7.0391753237119552449e-05
6.9900720612981102572e-05
6.9557490832646850262e-05
6.9350483190213960236e-05
6.9255080199997454365e-05
6.9224735018085648127e-05
6.9227496549475642956e-05
6.9265457536528841215e-05
6.9427906969628196045e-05
6.9692497648209597171e-05
6.9853809918481738145e-05
6.9927181347946584344e-05
6.9951018117338909213e-05
6.9946329483528674035e-05
6.9908665512488443001e-05
6.9734958559670935565e-05
6.9291051550788700661e-05
6.8887000016600388481e-05
6.8577849371008182911e-05
6.834632098068099855e-05
6.8180575295486380472e-05
6.8062648684611600489e-05
6.7977140288183525462e-05
6.7921096947558693758e-05
6.7886506502874656085e-05
6.7861346976909911162e-05
6.7851522331870638659e-05
6.787425204748454878e-05
6.8005360128683788176e-05
6.820288474126947264e-05
6.8346324877661298312e-05
6.8441029521290865849e-05
6.8487209912128569462e-05
6.8504297537458084459e-05
1.5744489073966585136e-06
1.5759200386329380358e-06
1.5778748920291516359e-06
1.5808675835113730744e-06
1.5825794950392872361e-06
1.5860801177678158052e-06
1.588443685895092407e-06
1.5932733691153958687e-06
1.5984936702328948197e-06