/*--------------------------------*- C++ -*----------------------------------*\
  =========                 |
  \\      /  F ield         | OpenFOAM: The Open Source CFD Toolbox
   \\    /   O peration     | Website:  https://openfoam.org
    \\  /    A nd           | Version:  12
     \\/     M anipulation  |
\*---------------------------------------------------------------------------*/
FoamFile
{
    format      ascii;
    class       volScalarField;
    location    "0.0062";
    object      k_0;
}
// * * * * * * * * * * * * * * * * * * * * * * * * * * * * * * * * * * * * * //

dimensions      [0 2 -2 0 0 0 0];

internalField   nonuniform List<scalar> 
106891
(
0.015777977457143640971
0.015771628947766014317
0.015760959827117514837
0.015755244379461113419
0.015745098158507792735
0.015739823694900786227
0.015729424533467539771
0.01572407846097605838
0.015713947943452488687
0.015708963396397469803
0.015695889072504309175
0.018628278814206946506
0.018735748162301696373
0.018816567065283090754
0.018878200877558939941
0.018930307468828597856
0.018983309670017413373
0.019045779003443459587
0.019123604322587008097
0.019218418592021405122
0.01932705762880792405
0.019444546935995690728
0.019563313555728177595
0.01967716177441152306
0.019781016850756408254
0.019870993966133544684
0.019947249481249391262
0.020011531415610676887
0.020068702123784972619
0.020125175841471793642
0.020187154649035764925
0.02025862292895628039
0.020343392267914192639
0.020443975650729723226
0.020558751880223526121
0.020686515600111199387
0.020823672865625694056
0.020966070208490391463
0.021107229315344248899
0.0212431433090332078
0.021368408830144600824
0.021478564003505406371
0.021570923344733369115
0.021645549734625419563
0.021701588931876326927
0.021739659077471176762
0.021763305993110087372
0.021775042850625703217
0.021780021295723449304
0.016675670801689971429
0.016661339330657252283
0.016652820489339324739
0.016638787805241070372
0.016630764844395767854
0.016617362856430048512
0.016609505274040405054
0.016596391399093881475
0.016588604348772944402
0.016575621110325348267
0.016568334359559840768
0.016555681369442177414
0.016548916546196373173
0.016536586488161496289
0.016530224349773268988
0.01651818430667690088
0.016512140469984767921
0.016500593057007677256
0.01649490113990890669
0.016479659023866530948
0.019772429845538855298
0.019848060022288914472
0.019892174914283803494
0.019920373540184735384
0.019949559739405053199
0.019993574770590674672
0.020060670485640790667
0.020153410198173571377
0.020266939099343041913
0.020394514467862615709
0.02052616779753179202
0.020654156700427028781
0.020771874623337537036
0.02087445217231473707
0.020961987810469394355
0.021036641974519498105
0.021103065832043715888
0.02116871710552380853
0.021239286358695888546
0.021320074617722568899
0.02141432073693450705
0.021525082161556022969
0.021650513930601265888
0.021788798068011063641
0.02193638569391547985
0.022088828416718029463
0.02223957636280131378
0.022383708654155606843
0.022516340970303430624
0.022633017236227081365
0.022730781854784276597
0.022809663420138757972
0.022869962753397005129
0.022911869034693461283
0.022938776429211629043
0.02295434511046529763
0.017528460572916109567
0.017512484926958820503
0.017503319861059237622
0.017487474963362722308
0.01747844851848070688
0.01746294750528730802
0.017453868514703603509
0.017438467263009863051
0.017429381825932468986
0.017414024412777024536
0.017405555880330433188
0.017390508124530964368
0.017382700487595804939
0.017368180665131686263
0.017360917755032748144
0.017347127732406313061
0.017340259154047018425
0.017327083367725364116
0.017320563315196563919
0.01730296741054369522
0.020707466934430762695
0.020777989651807937665
0.020843917401148683716
0.020914644785627250351
0.020999923089026133888
0.021106036961091693971
0.021233916561611065194
0.021380312894235274646
0.021535603109624507773
0.021689097841263983019
0.021831593036540825753
0.021956221809477944468
0.02206042124295936116
0.022144334334696244571
0.022212333118146149885
0.02226851120540201262
0.022319431511573322585
0.022372998854695191201
0.022434342756051630502
0.022508410484562941384
0.02259804646976160819
0.022702548434726375903
0.022822261987885616996
0.022954073381666134646
0.023095587968853990846
0.023240625952017944511
0.023383978692670875227
0.023521466330472227263
0.023648906172553114946
0.023763186077284090963
0.023862519351071684315
0.023948399467089934861
0.024019741414144375746
0.024079012491206887997
0.024124539312426508675
0.0241606226557049171
0.018406969603780416744
0.018397109111823194832
0.01837941944884404627
0.018369380366991542447
0.018351914659573011213
0.018341639994391381596
0.018323871496978411805
0.018313346776544500022
0.018295422524552459181
0.018285659622605254793
0.018268063047251422576
0.018259141879261919783
0.018242461951562056327
0.018234339051742844834
0.018218558660782174785
0.018210715073203719711
0.018195392842068516814
0.018187741166024128797
0.018167332143177894466
0.021811273573922748681
0.021916866132780082194
0.022032224276859052603
0.022161343076097704541
0.022306013392369716114
0.022463036361764530252
0.022627513983966396349
0.0227919549774566986
0.022948102404896798118
0.023088051638239907165
0.023205719637254037385
0.023299974892390138553
0.02337024371112444987
0.023420420716887935253
0.023457958620760086671
0.023489957238309121246
0.023525450552066659582
0.023571680193415836535
0.023634249866391170147
0.023717786586573256363
0.023824669335351277705
0.023955791034089794073
0.024107544897243836368
0.024277323129699397014
0.024459477698625515379
0.024647710548468215047
0.024833131388501905601
0.025009425555033343996
0.025169879317938792518
0.025309219639226832044
0.025424375276723389788
0.025516063378498956421
0.025582302902058259159
0.025628816247764894115
0.019365357195690248437
0.019345805710122634946
0.019335152373924767433
0.019315794563577404208
0.019304875552144183659
0.01928547235129909887
0.01927393761413682613
0.01925389946541273406
0.019242108088746521372
0.019221644805506140491
0.019210669846940749833
0.019190587567237085698
0.019180472085334642623
0.019161443489528435374
0.019152204095244901305
0.019134028075234281452
0.019125031620832788626
0.019106993336250856219
0.019097877570930014285
0.019074075965903748708
0.02300174997196410831
0.023049525594954396041
0.023102409277021760531
0.023173873794583407099
0.023272857224276213145
0.023403270921167947799
0.023560630096668963573
0.023735527232508466661
0.023916246721567314959
0.024090541171364377587
0.024249637964021460851
0.024384518748651669295
0.024494414053025541367
0.024580345635408572952
0.024646405630828427391
0.024701573840361142759
0.024753360709169669462
0.024810668162359075101
0.024881005086073080396
0.024968409892732256611
0.025076476381821980605
0.025205531611652759461
0.025354244176052486565
0.025518081587024746271
0.025692024343297040906
0.025870196350263961749
0.026047434160136009873
0.026216427515715855917
0.026373272622688386652
0.026513044877302525265
0.026636366562875896796
0.026737881107969579259
0.026820272587422026855
0.02033125777395999173
0.020319672973596027143
0.020298564411745444874
0.020286638265394368874
0.020265248963157317386
0.020252513307243136947
0.020230220362883192392
0.020217247156402336217
0.020194347157786451952
0.02018221833675402227
0.020159711428879022871
0.020148460258987983817
0.02012711936318479361
0.020116458138793428395
0.020095357950513981216
0.020084683965870316763
0.020063418948607320696
0.020052742075777583997
0.02002540284775041618
0.024110614870689096173
0.024191861773604828034
0.024296265471867292685
0.024429241118582415565
0.024589095522460344134
0.024770104370342431455
0.024961197730189888661
0.025151801806274114853
0.025331171531563147215
0.025492071176210134853
0.025629701451901493181
0.025742602867898530666
0.025833593559534118872
0.025906619750097240051
0.025969684096221867103
0.026030685006284380589
0.026096361801916122258
0.026173888389497568935
0.026268315313044830056
0.026381558890234038661
0.026513980412856585217
0.02666385038524583459
0.026828066752357961761
0.027001120964912337513
0.027177924216979329475
0.027354383304075673838
0.027524242205306099357
0.027684888592677970448
0.027829399788242305952
0.027959481790209895352
0.02806871072806052872
0.028159655864983521023
0.021366699398602327642
0.021354030117094798674
0.021330952125556388449
0.021317894314439596315
0.021294228235070267186
0.021280171784402335255
0.02125547659421477345
0.021241318949366278651
0.02121603882158051152
0.021202913846272819498
0.021178103550799742827
0.021165637878938450833
0.021141666229369270036
0.021129340077366727535
0.021105267206401490121
0.021092813549174166399
0.021068228563645194362
0.021055915627802252593
0.021024941013246534194
0.025442394954412826669
0.025582218652953171018
0.025749727893934502843
0.025939267295149084219
0.026141267647511016309
0.026345276365539242042
0.02654068817608711342
0.026720082832643210491
0.02687726463252010714
0.027010544822813269822
0.027120035396510134423
0.027209399155595198616
0.027284598924119954355
0.02735133747110357616
0.02741772573102442892
0.027490040204604281743
0.027573374861456299845
0.027671871643598081741
0.027788520905601282046
0.027922325309195139553
0.028070548414505427232
0.028231890801709819128
0.028401715870568750022
0.028576734915754496008
0.028749339532251772661
0.028920645433284788289
0.029084140919148706445
0.029237439024267699444
0.029376756156580530188
0.029502165270692055909
0.022445921252528425877
0.022420594007169589862
0.022406262825616626855
0.022380283599802576477
0.022364952999915903992
0.022338011201075511775
0.022322777355551371575
0.02229540382633623391
0.022281185664200880286
0.022254055859216664848
0.022240314451202010393
0.022213833257418266059
0.022199986133143272127
0.022173552428612783305
0.022159650761536524299
0.022132332326142246243
0.022118679426515096276
0.022085412194375285411
0.026957837533804842461
0.02712859201201148901
0.027309723551597619301
0.027497349493815975013
0.027687416986277822717
0.027876607257978632676
0.028058075594182062956
0.028224968455381985177
0.028372408120655622649
0.028496617605811527807
0.028597615604342176837
0.028680918376574476153
0.028750843907115967296
0.028816586967866365115
0.028885542946645966639
0.028962743049213757196
0.029053169179610538464
0.029161472353044504136
0.029286737823425813831
0.029429452340682948908
0.029585846051301586956
0.029758491167779160119
0.029938558533360859482
0.030125306935335990216
0.030312473763375799574
0.03049826671945072773
0.030675535849040619363
0.030840608735916080069
0.023657889310257022852
0.023632380256954691605
0.023617206347602240357
0.02359128373162745762
0.023575304689432353272
0.023548688747738116128
0.023532899327576361354
0.023505841709553807611
0.023490970357591921258
0.023463557964872996942
0.023448908318055520367
0.023421854798536985431
0.023406874236333127803
0.023379687247593119309
0.02336507707448955834
0.023336981296515995482
0.02332295921075746431
0.023292086339481838514
0.028465556737350756339
0.02862352577783159116
0.028794163842996496616
0.028972472157416339494
0.029154381774643814418
0.029334505403901377923
0.029507414361437941247
0.029670221736648943328
0.029817957970002896551
0.029949126799205517263
0.030064970286798865795
0.030167641908385865041
0.030262901389165514088
0.030357246047204956146
0.030455730951940644669
0.030564367180147780645
0.03068791103266902201
0.0308253737991331829
0.030978906802133179821
0.031144611682198394126
0.031324661293265707029
0.031510339403064260844
0.031700829303687998173
0.031888817968500654532
0.032071848722997939318
0.032243237811800044834
0.032400580681607789313
0.024643180442334381569
0.024608502899066363873
0.024584012938574466983
0.024548590279704393669
0.024524777670703878929
0.024489923060628967372
0.024464726437976369589
0.024431136750843625988
0.024403982052446371309
0.02436952551065025771
0.024342918561400531813
0.024306528509903058133
0.024280932649528557538
0.024244532361210800048
0.024218822627702911443
0.024183007099223760572
0.024157115813749758387
0.029131510097433664652
0.029231107612678268459
0.029372557569918002207
0.029554264862360277166
0.029766593148038991701
0.029991072950567691097
0.030210557732326750319
0.030409994597889861839
0.030581045213357645196
0.03072067035810034652
0.030828974683502947257
0.03091258126786423921
0.03098080435699819557
0.031042392194880835676
0.031108826528573114978
0.031188466064833407498
0.031288053943225965781
0.031409447666964185331
0.031553534858195356194
0.031714980977735451884
0.03189305277289880558
0.032078681495753845476
0.032269941568713517155
0.032458259810494743958
0.032639020698406587262
0.032805883049652997951
0.032956420807782271787
0.024595675404556482935
0.024567359835500509474
0.024513118087430462583
0.024485240579032844371
0.024431311547540433826
0.024403033196018466405
0.024348277942845886201
0.024319163548215626952
0.024262652404375251169
0.024232703316892038187
0.024174488574425369303
0.024145043999326442491
0.024086422268272171532
0.024057259645345534932
0.023984458525828734887
0.023991565710273776713
0.023538761435530040911
0.023540902453780369885
0.023546397694518644145
0.023564261208998928815
0.023622252519910517249
0.023806585768394724484
0.024104950195849954298
0.024375292266255569468
0.024600547308361201543
0.024773949583160322085
0.024896113383280356335
0.024977317463108560797
0.025029476662904982798
0.025067137770436294375
0.025104734750614435268
0.025155382023063062313
0.025228904172973652675
0.025330415645899335975
0.025458162797399302296
0.025609344048379695247
0.025774935400387170154
0.025949688151484157084
0.026123435406115447233
0.026292307782934197513
0.026448051725623655112
0.02658764782214743938
0.026706929983550824897
0.0268064442903748687
0.019601400612100593895
0.019559568001512664392
0.019537645391438585724
0.019495904002999171756
0.019473695037668329461
0.019431462777856647189
0.019408557075165738109
0.019365234136945040644
0.019342093778353431494
0.019297829406683970205
0.019275364418378945763
0.019231038170566719381
0.0192089728727190788
0.019154215621558494387
0.019170195336706368633
0.022076868139083650339
0.022166022079534043049
0.022292517937234784114
0.022451138837830907774
0.022629993344939196287
0.022814361235257346605
0.022988093578869800426
0.023137643730713690349
0.023255171384640463406
0.023341537867675989093
0.023399322182140618737
0.023436821826184391776
0.023464391816661930162
0.023493405011370514096
0.023534931678225130824
0.023597555116301176248
0.023685501051782041626
0.023798700790530726706
0.023935986914414484478
0.024091201053604915233
0.024259685195644475897
0.024433011025036276143
0.024606781892623431213
0.024771800353270465034
0.024924647584451408572
0.025058283589451869899
0.025170148826056767954
0.018497527823196968644
0.018479972086025673456
0.018446152556727969662
0.01842822374722283274
0.018393912294959985365
0.018375289692616855741
0.018339785350568217626
0.018320736290379686234
0.018284618339575803986
0.018266224354712704697
0.018230252711803330429
0.018212314415603267359
0.018170232598215759617
0.018165824596559243531
0.021402819269770060467
0.021527293224914034742
0.02166755090938938394
0.021817140216433522637
0.021966631020691317067
0.022106289473057937761
0.022228790178572092884
0.022329250672156897989
0.02240783163018937596
0.022468824142091482765
0.022517525226419813494
0.022560787797883417871
0.022606756247475795485
0.022662645234854943144
0.02273425811006127284
0.02282497775139149393
0.022934442716513271654
0.023060337888318953314
0.023198461259774809384
0.023344857298772558885
0.023493272949843893582
0.023640858462643753873
0.023780347046405466566
0.023909572096912291156
0.024023061939791374997
0.024119879558582666551
0.017827754000971095943
0.017795422457922430853
0.017778211049167037122
0.017745260749567112052
0.017727310137240475524
0.017693508934825147999
0.017675448416033363863
0.017641331415829662049
0.017623910298835105542
0.017589929981590275015
0.017572917884567221952
0.017534149234671187606
0.017527824168320330772
0.020711224240888611442
0.02083415749388683319
0.020962311910053346015
0.021089206518994010192
0.021209136054218216683
0.021316737720347703894
0.021409600202227704185
0.02148698464758332094
0.021551891202876555936
0.021606422948920709498
0.021656035873318685292
0.021707813930914580947
0.021767606036327644126
0.021840580635938064424
0.021930406055782829255
0.022036824595452426945
0.022158011900034559061
0.022291074407186469569
0.022432590248907518377
0.022577363440637709946
0.022723171884112606383
0.02286308219993275076
0.022994602883905201907
0.023112004914929030336
0.023213355469999721187
0.017118174402515187738
0.017101246642619923055
0.017068934609914817452
0.017051352439313272047
0.017018467590900625969
0.017000986720661706575
0.016967852119766393265
0.016950910023254776166
0.016917890836674109867
0.016901292316309209779
0.01686346380157497174
0.016857358614641604344
0.020151233165445748413
0.020270182923897962779
0.020387263888196789641
0.020497387868307473391
0.020597045895464741877
0.020684687628463326731
0.020760147575044754498
0.020822694773519258293
0.020876435992551459903
0.020925768931543849843
0.020976592431769820052
0.021035921632142184912
0.021109173205402370632
0.021198348136076759773
0.021304623049376372745
0.021426652685870406501
0.021560528458681543079
0.021703396551129759684
0.021849777702899933485
0.021996929147018257078
0.02213721012391545867
0.022268039372575852003
0.02238227009849800761
0.022477816014893053226
0.019542644533064770784
0.019648304315447239626
0.019748144649588517119
0.019838695175444186897
0.019918326495891758299
0.01998644790557059514
0.020044698777336365098
0.020094598775596151513
0.020141707562854126168
0.020191211115000877452
0.020249065111246390691
0.020320002898604343916
0.020406398101255884825
0.020507070281743172702
0.020620859001031579399
0.020744020394851202249
0.020873444710418350562
0.021004132294001498504
0.021134247301373552952
0.021257673863165963551
0.021372385899379741508
0.021473197536949335112
0.021558688260564552036
0.019221703611422898128
0.019306691155344155031
0.019372956581316585351
0.019424234999542280833
0.019465024476337088738
0.019500483343785929291
0.019534335870017068698
0.019572356243575769752
0.019618355322088516096
0.019675574921682478097
0.019745437534589713874
0.019827252261509806935
0.019918789479869251219
0.020017644870049713934
0.020122831651313437956
0.020230067054452308128
0.02033981800342167176
0.020447532553497089342
0.020551989219989661578
0.020648984445022427331
0.020735781432587113704
0.018775266559903802666
0.01879103840294421221
0.018800132257427173976
0.018809854575841666868
0.018827242276877525357
0.0188570798856727527
0.018903152681958523829
0.018965720590912487492
0.019043798810454183601
0.019133328920292354269
0.019233609645521693859
0.019339145680560925616
0.019448480778908514705
0.019556593795598806174
0.0196613629626959871
0.019757836840898219954
0.019844040505518963785
0.018190148754922707414
0.018219247889006640051
0.018264258556375184001
0.018325062953515089403
0.01840071618815370541
0.018489285088198560703
0.018588629957745857191
0.018693938209040840415
0.018804178989894823615
0.018913873739645179622
0.019019906513018592503
0.0191180219532059055
0.019204533012156202454
0.017486408343936634541
0.017541059861844329748
0.017613806134657107594
0.01770258437045916719
0.017803284754424691938
0.01791127886077899245
0.018021266858714718451
0.018128507709955023891
0.018227953046254661423
0.018317460090068553996
0.018391411621364078116
0.01845070004768785063
0.0087233870999270934909
0.0099269528424551813084
0.011010400109852498673
0.011736780862387909824
0.012104282540536710072
0.01221583286621496893
0.012213025130441847177
0.012107132170025580037
0.011616319901865868394
0.010687442999266509938
0.010004757143707795203
0.0096039193636030632806
0.009431784297289092997
0.0093971867442461907982
0.0094150595482716554346
0.0095429831574753119783
0.010049659867966803314
0.010738791570829705688
0.011165293292155311841
0.011354360793834851126
0.0162420594981048938
0.016692606638824152021
0.018231619593340443741
0.02044981859519439879
0.022096908171310089553
0.023071479734133492484
0.023472990818833423809
0.023543113715625590965
0.023466107757097395131
0.022973378043403921978
0.021336241181600233696
0.01960256656864209357
0.018522580663982719795
0.018012733981459545102
0.017879670485809840558
0.017898607034650518971
0.018095507039019714801
0.018936468177598961282
0.020187012488578987002
0.020947558381598351679
0.021258922215464950978
0.021311748013787139983
0.051700161987692769272
0.052232307215514660326
0.05401245740530535161
0.057225043730830364719
0.059844520606396119089
0.061433460256213344441
0.062103349663851899198
0.062259955438696910901
0.062202421008331641727
0.061784008698493243783
0.06018739402567066521
0.057069343567530260442
0.054556332325454100218
0.053054609638664547433
0.052470099520358748357
0.052408967911131351669
0.052528542097200953132
0.053125405920351802258
0.054986674362739733357
0.056808481809557394293
0.057778825193069635602
0.058077926757267715752
0.058073579708425651646
0.057884917486650484808
0.057054082961612725966
0.055141673311598221607
0.2835230958474543872
0.2911370973157800246
0.29892863309530287586
0.30578153292857729317
0.31050484513103082662
0.31291233537399953946
0.31373881914674667248
0.31370800808360727041
0.31261416535383296234
0.30790613052796139693
0.29926302660550302415
0.29273005984614069996
0.28925149006901640369
0.2883517330407916468
0.28857661224051017745
0.28983118508632338406
0.29437907991502854088
0.30327885591926340147
0.30992159443865208157
0.31332264124147174433
0.31419350690523861758
0.31398674099148254912
0.31264631584782792695
0.30773249923516682314
0.30046376976479854948
0.29552893068323943249
0.29311192554272164079
0.29239658148116337566
1.541220486212272478
1.5523969428461366071
1.5603562464336733218
1.564896433253381236
1.5670027241886244074
1.5671812653521688397
1.5653845617675845592
1.5567337996387942134
1.5419270202733601494
1.528910909975707666
1.5191524465078332096
1.513837617095126431
1.5130202987627638933
1.5140620259020936
1.5178031836456875592
1.5288673895113991108
1.5432369737554516576
1.5533612685161353184
1.5585266579309464685
1.5595833076612171109
1.5588554340527895903
1.5544239847677274735
1.541022892602961436
1.5256978786423165406
1.5138164914723080123
1.5058298107870820015
1.5018668453647578964
1.5005946784691113205
1.5007534685072185798
1.5019330629541423061
4.0051164053736636461
3.9980626494549564853
3.9879088163276787959
3.9742503460362943457
3.9573408652958725895
3.9379580684117962974
3.9173065580314436751
3.8968854181731686914
3.8784574824136703874
3.8634653419962456944
3.8528207415048707496
3.8464600675216531478
3.8435523103795574684
3.8423685939538541056
3.8409528499008005475
3.8376632477991248216
3.8313478147088115833
3.8216670412570894477
3.8089866771349507601
3.7942415329481615771
3.7786934124497579823
3.763704696944744299
3.7504326873218301053
3.7396260859836711887
3.7313690562711423482
3.725048631952030842
3.7196646771785113472
3.7142867234077647787
3.7081553523412247308
3.7009725619089648418
3.6925609666643333107
3.6832068600780938361
6.1480409394593449335
6.1283054124792890605
6.1083663191381329938
6.088469939102520101
6.068889954019705435
6.049796975418681555
6.0312828953765809104
6.0134500958682055582
5.9964684322014658591
5.9805382399575872654
5.9657132304664042266
5.9517637630424244932
5.938201829553145572
5.9244393155075156798
5.9101073487012403262
5.89523290563124025
5.8801552606885909569
5.8653083659788149973
5.8509456997005546697
5.8370999342837555091
5.8237675212726927043
5.811086112353296862
5.7992747591017419495
5.7883697081172735821
5.7780120521644837694
5.7677082518288464996
5.7571083579436992395
5.7462555035301541295
5.7352981147318482513
5.7244355666524064929
5.7135731416375650227
5.7027207285632321998
5.6917334517644677661
10.176476955963256188
10.076869737293934648
9.9798276782014134767
9.8853845205196222423
9.7937076355962577878
9.706097406093444846
7.6896000766590386633
7.6715765972284781782
7.6537383411732253791
7.6361821204769109173
7.6189067210810357267
7.6017772375652352679
7.5845765084482446028
7.5672382155211330712
7.5500252239185421388
7.533450337372955552
7.5178605584069018164
7.5031443522286505043
7.4887306404396403181
7.4740388417041652147
7.4588526923543749803
7.4434232394851944647
7.4282658661002969325
7.4138065873472980272
7.4001136846751505161
7.3869636159633627059
7.3741897135167890909
7.3618915875758226264
7.3502860756298042944
7.3393062369117751942
7.3284801919454309882
7.317196456577359065
7.3051980645660394842
7.2927368377031074331
7.2802605495991725704
7.2679753940420228631
7.2558011813074756446
7.2435224417623640392
7.2311591822577705457
7.2187385276845406068
9.7523746120648446833
9.6715438988483803939
9.5909778450788039095
9.5117397106355365821
9.4352942338386256438
9.3643958648184693061
9.3015502457845666839
7.6586730180223696607
7.6459846237986539563
7.6328525784918337393
7.6193816158322835719
7.6056385047032080138
7.591893457532130185
7.5787478732482709276
7.5671221810277708997
7.557896929990319812
7.551335665310097589
7.5468007702630206524
7.5429678302395908318
7.5386491275428531011
7.5336452050385691592
7.5287663915604658982
7.5252108004923394802
7.5236610636291034737
7.5238668435215672048
7.5249083251868986721
7.5259555388196961445
7.5267607459980352402
7.5273236377463259572
7.5271968843216363609
7.5253815041655274243
7.520917206602179661
7.5137960715097698028
7.5049238370490529704
7.4954083081679794276
7.4857997933283328962
7.4759818996528819568
7.4656494438087301901
7.454807500449689428
7.4439085755540315148
7.4334928964134174834
7.423903028350895994
1.4041340552881517211e-06
1.4137946785745205161e-06
1.4289777736499547937e-06
1.4421005507831624404e-06
1.4545523068695254957e-06
1.4648937697936765393e-06
1.4790995605561138121e-06
1.4876390069362632025e-06
1.5029419327288224095e-06
1.5110050838990373092e-06
1.5214975114770624385e-06
6.8846821729858092578e-05
6.8306807704558855036e-05
6.7879002476215892807e-05
6.7576237433318602941e-05
6.7394652741130880069e-05
6.7307450585645480141e-05
6.7278882223035539937e-05
6.7269886917426080617e-05
6.7254734237448567905e-05
6.7214484071884624569e-05
6.7165206247592746627e-05
6.7131621231427036651e-05
6.7121185870694117376e-05
6.7122565244295907317e-05
6.71353420442764745e-05
6.7141441211041687004e-05
6.7139009294232994667e-05
6.7116460747682356422e-05
6.7033734809138347888e-05
6.6772449468943296407e-05
6.6343284352173505941e-05
6.5929699435640439658e-05
6.5544660574179132006e-05
6.5191173183381704399e-05
6.486978874789247132e-05
6.4578325294561229799e-05
6.4320626776372225399e-05
6.4109699116903493855e-05
6.3943255013057959937e-05
6.3811644110118028133e-05
6.3709979003346905784e-05
6.3639638755192041606e-05
6.3596520069988450065e-05
6.3567843152133774072e-05
6.3528336973403315337e-05
6.3448564058088302337e-05
1.4065559523709171008e-06
1.4104915124031275486e-06
1.4150661526678145886e-06
1.4217673107400883554e-06
1.4271531625065320551e-06
1.4305182996448579332e-06
1.4363645164635423298e-06
1.4400588325645584084e-06
1.4472368024809700573e-06
1.4554561425004514361e-06
1.4683941256092004587e-06
1.4785633593084344299e-06
1.4927185508627550133e-06
1.5068666891347552124e-06
1.5177546702434160881e-06
1.5284245574792464612e-06
1.5412216100787065097e-06
1.548330785893630384e-06
1.5635048004684604514e-06
1.5706596582366661279e-06
1.5800107124053546182e-06
6.7046768868367026149e-05
6.680337009181097456e-05
6.6570439729361722951e-05
6.638627396127561931e-05
6.627083922486202202e-05
6.6215001564108436939e-05
6.6199856572835225283e-05
6.6202929396477964269e-05
6.6214557064309801141e-05
6.625319081313738956e-05
6.6402200215227757583e-05
6.6749883806970487267e-05
6.706037070538859834e-05
6.7286018093658535419e-05
6.7402716623190207985e-05
6.7447368209063655441e-05
6.7448138563056247172e-05
6.7409553661889302792e-05
6.7224715480581782585e-05
6.6845188886359733701e-05
6.6537554848206296814e-05
6.6312413152360872464e-05
6.6162119352299440952e-05
6.6073244059664082537e-05
6.6029110848801425104e-05
6.6006100757708713214e-05
6.5996589811675312825e-05
6.6011313912108941825e-05
6.6111079681789789559e-05
6.6290385148679812233e-05
6.6415218929047898223e-05
6.649356668399009952e-05
6.6532228451822190019e-05
6.654795811225511378e-05
6.6549216915454771355e-05
6.6536139617423268981e-05
1.4888980291032943926e-06
1.4916254756188558439e-06
1.4944945720348903977e-06
1.4988652512688181934e-06
1.5031295728238688954e-06
1.5057424877487086256e-06
1.5103669853646165152e-06
1.5133535375078211347e-06
1.5191062734277852898e-06
1.5257441257917123095e-06
1.5368550454053606773e-06
1.5474362433596178649e-06
1.5586956396677594404e-06
1.5719013043582373441e-06
1.5817285281240788622e-06
1.5914009440520530922e-06
1.6030062032518445966e-06
1.609231077287987556e-06
1.6239180553674231833e-06
1.6309519860629593575e-06
1.6403403075064287022e-06
7.0389331544117511108e-05
6.9898698556682375537e-05
6.9556247185339806194e-05
6.934992652257308994e-05
6.9254851197394197101e-05
6.9224540504362661974e-05
6.9227338438807977392e-05
6.926562534120948736e-05
6.9428744936948240916e-05
6.9692897136317677595e-05
6.9853678278130205276e-05
6.9926922767596093214e-05
6.9950896507166998323e-05
6.9946314367551492056e-05
6.9908444183449958706e-05
6.9733696458354425666e-05
6.9289081126548831505e-05
6.8885532811201709291e-05
6.8576806152290093431e-05
6.8345648385770892824e-05
6.818018838759701359e-05
6.8062414470696262032e-05
6.7976897254054408364e-05
6.7920703889173049774e-05
6.7885931882650938285e-05
6.786073890167723438e-05
6.7851064906951231016e-05
6.7874205816881191767e-05
6.8006182420385572472e-05
6.8203652218569853108e-05
6.8346919688179344574e-05
6.8441441101754505534e-05
6.8487474665236623933e-05
6.8504475343158450552e-05
1.574407640934170922e-06
1.5758844059501586707e-06
1.5778486128818992634e-06
1.5808432813776722479e-06
1.582557033903340086e-06
1.5860594125593435938e-06
1.5884256795069011356e-06
1.5932647075586820102e-06
1.5984957302549173139e-06