/*--------------------------------*- C++ -*----------------------------------*\
  =========                 |
  \\      /  F ield         | OpenFOAM: The Open Source CFD Toolbox
   \\    /   O peration     | Website:  https://openfoam.org
    \\  /    A nd           | Version:  12
     \\/     M anipulation  |
\*---------------------------------------------------------------------------*/
FoamFile
{
    format      ascii;
    class       volScalarField;
    location    "0.0062";
    object      nut;
}
// * * * * * * * * * * * * * * * * * * * * * * * * * * * * * * * * * * * * * //

dimensions      [0 2 -1 0 0 0 0];

internalField   nonuniform List<scalar> 
106891
(
7.2204449079720904738e-06
7.2139774709342363617e-06
7.2065271322932539339e-06
7.200215393647933135e-06
7.1928976260428215971e-06
7.186699598551481734e-06
7.179338082596754082e-06
7.1731359562211107208e-06
7.1658488777821242001e-06
7.1597409751838412124e-06
7.1517962372801253151e-06
9.9211450148273239678e-06
9.9428457846177190771e-06
9.9573763759742591053e-06
9.9667631756412530179e-06
9.9735812851635386421e-06
9.9805852249394581886e-06
9.9900263433636299907e-06
1.0003436497303907327e-05
1.0021217982625898145e-05
1.0042511555577554155e-05
1.006599316001832431e-05
1.0089682975406284339e-05
1.011198296123845189e-05
1.0131607444023109615e-05
1.0147589823435199682e-05
1.0160000300031129259e-05
1.0169307479713787792e-05
1.0176760861623888814e-05
1.0183992998583913639e-05
1.0192572865224578687e-05
1.0203497596714575604e-05
1.021770901081468803e-05
1.0235810778833996507e-05
1.0257360989232563995e-05
1.0282023698900109063e-05
1.0308876492358515537e-05
1.0336873898185672217e-05
1.0364414119223931267e-05
1.0390522481010337617e-05
1.0413897373337564696e-05
1.043347935108053535e-05
1.0448649077916762653e-05
1.0459457963881568657e-05
1.0465732876460816261e-05
1.0467649061125587393e-05
1.0466079942775307813e-05
1.0461642024377121836e-05
1.0455580359590226861e-05
7.6637981396444170826e-06
7.6551864667107807346e-06
7.6479165355511046485e-06
7.6393870458280818409e-06
7.6322433728975734503e-06
7.6238716691361076142e-06
7.6167772203740095381e-06
7.6084831552078145215e-06
7.6014153072394997489e-06
7.5931619881649522135e-06
7.5862189398143430684e-06
7.5780531028510934595e-06
7.5712413055872935185e-06
7.5631632204726501582e-06
7.5564569951309728404e-06
7.548460199362945105e-06
7.5418403598983664455e-06
7.5339707871156024279e-06
7.5274444675865539797e-06
7.5187472558003916131e-06
1.0479832626689599589e-05
1.0492607511569718552e-05
1.0496996539537517665e-05
1.0497148515150154125e-05
1.0497527395356810333e-05
1.0501773804320907146e-05
1.0512039880756890149e-05
1.0528963323193012922e-05
1.0551226586793078187e-05
1.0577025987919560194e-05
1.0603743831160948201e-05
1.0629373138656360751e-05
1.0652231787086156438e-05
1.0671103479088902684e-05
1.0686048429970758277e-05
1.0697645078406082961e-05
1.0707092567901277128e-05
1.0716290608133974377e-05
1.0726679053068612497e-05
1.0739587073962370527e-05
1.0755810521619826468e-05
1.077608768269366751e-05
1.0799918695800427799e-05
1.0826812873797957387e-05
1.0855859328635915448e-05
1.0885940881010453863e-05
1.0915441150749890243e-05
1.0943164290451170781e-05
1.0967939261551599357e-05
1.0988711409818755299e-05
1.1004797814731410389e-05
1.101624206094350172e-05
1.1023151605980152933e-05
1.102559967089858233e-05
1.1024423082131799536e-05
1.102051620369904803e-05
8.061644841318930306e-06
8.0523771220377505587e-06
8.0446817709770228295e-06
8.0354582368252075453e-06
8.027807802531506992e-06
8.0186773693754324774e-06
8.0110273960989020014e-06
8.001932543280087948e-06
7.9942924544649437968e-06
7.9852194347035068038e-06
7.9777318334504957836e-06
7.9687423221007719706e-06
7.961418123389307682e-06
7.9525638566169670068e-06
7.9453782512916412472e-06
7.9367070542289506064e-06
7.9296267641131555105e-06
7.9211123060550018947e-06
7.9141262871685946279e-06
7.9046191638426375266e-06
1.1003678223261615954e-05
1.1014757204828584737e-05
1.1024563442357435648e-05
1.103557698368275927e-05
1.105035257409562009e-05
1.1070512866584960966e-05
1.1096258628958603513e-05
1.1126692485259279616e-05
1.1159268449243861884e-05
1.1191198455406095233e-05
1.1220120116089418797e-05
1.1244305400953388273e-05
1.126314727773697634e-05
1.1276729986929241834e-05
1.1286204989452739778e-05
1.1292636154310415296e-05
1.1297698326253618095e-05
1.1303394994983242947e-05
1.1311016295626500429e-05
1.1321795492177720132e-05
1.1336426827414263074e-05
1.1354703727749806659e-05
1.1376679082541725843e-05
1.1401543244746724528e-05
1.1428676166138037245e-05
1.1456534661843412488e-05
1.1483833871092176458e-05
1.1509558381595448492e-05
1.1532702891504049967e-05
1.1552531657511008934e-05
1.1568635619880966156e-05
1.1581404196668749622e-05
1.1590600847626158772e-05
1.159684556011768736e-05
1.1599753609244447834e-05
1.1600375010372374017e-05
8.4701418819580580051e-06
8.4619953427945260966e-06
8.4520557382218736029e-06
8.4438821177533493961e-06
8.434008990418711101e-06
8.4257949735377110721e-06
8.4158661726177104998e-06
8.4076069524201126699e-06
8.3976548451088848927e-06
8.3895823166545979845e-06
8.3797189612864259511e-06
8.3718520425406684778e-06
8.3622138177524157638e-06
8.3545443670897320414e-06
8.3451291775941658805e-06
8.3375396685376106592e-06
8.3282466883023358137e-06
8.3207168530714877317e-06
8.3102787896087624794e-06
1.1578743548206517423e-05
1.1598678354430095856e-05
1.1621081833346381482e-05
1.1646976556635791949e-05
1.1676796978397935655e-05
1.1709669941642757404e-05
1.1744292380660037122e-05
1.1778708415141633348e-05
1.1810793601099534459e-05
1.183854512148522104e-05
1.1860451766967834177e-05
1.1876280246382997627e-05
1.1885934142662139593e-05
1.189044074885730885e-05
1.1891715699128329185e-05
1.1891569169730277996e-05
1.1892288996016757641e-05
1.1895698280140295754e-05
1.1903194117314205562e-05
1.1915913897753797947e-05
1.1934415804522926566e-05
1.195887436079603238e-05
1.1988333781828410603e-05
1.2022093813747107579e-05
1.2058713063807819459e-05
1.209661268347831177e-05
1.2133604633520131953e-05
1.2168162191007158684e-05
1.2198685210300314806e-05
1.2223941564834583655e-05
1.2243240550868176447e-05
1.2256806677446631669e-05
1.2264206741665880583e-05
1.2266846729577946266e-05
8.9199645374714675805e-06
8.9092715616005049032e-06
8.9006357320974202054e-06
8.8900051091811543158e-06
8.8813242196978474364e-06
8.8706997477468065813e-06
8.8618918974186353983e-06
8.8511356622013268464e-06
8.8422814750608659426e-06
8.8314405401788238434e-06
8.8227863087542865791e-06
8.8120476682773806208e-06
8.803604629831667387e-06
8.7931241328026005764e-06
8.784897797396167373e-06
8.7746307605854179356e-06
8.7664768093834517017e-06
8.756259467344923626e-06
8.7480941992660564015e-06
8.7365752601088716479e-06
1.219980210982525699e-05
1.2204000080367902658e-05
1.2209502363525481398e-05
1.2219855289575243376e-05
1.2237384080328756134e-05
1.2263064474615448254e-05
1.2295651972719169641e-05
1.2332622778816587753e-05
1.2370888062298498333e-05
1.2407271491422360924e-05
1.2439543537673242892e-05
1.2465445482935390062e-05
1.2484844738639131847e-05
1.2498058080069948203e-05
1.2506166877140858005e-05
1.2511475696800085632e-05
1.2515897572004793333e-05
1.2521680587652494779e-05
1.2530706881898437703e-05
1.2543969035400948233e-05
1.2562336828380958321e-05
1.2585851207587650064e-05
1.2614134723323403877e-05
1.2646016032032630517e-05
1.2680216808839462313e-05
1.2715266450982028927e-05
1.2749892514912286937e-05
1.2782316843782016183e-05
1.2811613836692148821e-05
1.2836620918768138516e-05
1.2857529564334804406e-05
1.2873085755580029248e-05
1.2883973714897544016e-05
9.3708739929696071148e-06
9.3617008488009393052e-06
9.3503437413232288648e-06
9.341110374130173676e-06
9.3297070889857770435e-06
9.3203033436854490208e-06
9.3087069752104867522e-06
9.2992614605473251747e-06
9.2875386004443711256e-06
9.2782998045214625898e-06
9.2666829027531594205e-06
9.2576609188460133349e-06
9.246330209156075657e-06
9.2374616873241066801e-06
9.2262056351919894109e-06
9.2173517127877950664e-06
9.2060762068497613671e-06
9.1972375583597940627e-06
9.1845871851930605234e-06
1.2806308620246589113e-05
1.2818946448976421601e-05
1.2837625472188400234e-05
1.2863731652983196262e-05
1.2896757446704655104e-05
1.2935133944757914423e-05
1.2975914723853572758e-05
1.3016325770117677748e-05
1.3053598775973824622e-05
1.308591167268143666e-05
1.3112091973716653187e-05
1.3131828306081909965e-05
1.3145894094060395739e-05
1.3155332883930549574e-05
1.3162200249817874163e-05
1.3168508456468865317e-05
1.3175959865281516617e-05
1.3186351864008997558e-05
1.3200933949807935083e-05
1.3220156064600243907e-05
1.3244071416556998314e-05
1.3272207664930959107e-05
1.330375368186186408e-05
1.3337311861759868932e-05
1.3371606779625078273e-05
1.3405628770499243752e-05
1.3437854074190070563e-05
1.3467667784353753841e-05
1.3493414520189706159e-05
1.351554462979214058e-05
1.3532540244236265767e-05
1.3545057118183509483e-05
9.8563453359897967474e-06
9.8465824742988438566e-06
9.8344307980378601897e-06
9.8245988682677010026e-06
9.8123319093816845619e-06
9.8022871480935214503e-06
9.7897990584390828534e-06
9.779744876312591886e-06
9.7671361676249879796e-06
9.7573328666285477363e-06
9.7448487413306282513e-06
9.7352131781453878393e-06
9.7229414566117756253e-06
9.7133573133495151094e-06
9.7010830069462083725e-06
9.691488549314516198e-06
9.6791159120769625974e-06
9.6695702102621946714e-06
9.6557483470840213086e-06
1.3487915675891057769e-05
1.3515499976630596061e-05
1.3550225298484620115e-05
1.3590537863215224683e-05
1.3633873294017827426e-05
1.3677474788012322995e-05
1.3718590443684065917e-05
1.3755335872911219345e-05
1.3786172403892035153e-05
1.381073128586331933e-05
1.3829098491108531184e-05
1.3842254650872895446e-05
1.3851753416362272271e-05
1.3859061875414603024e-05
1.3866241148822794341e-05
1.3874874515365057554e-05
1.3886235513563772103e-05
1.390134573984526117e-05
1.3920928446469127553e-05
1.3944700562752979894e-05
1.3971942079838753066e-05
1.4002295577645879681e-05
1.4034582072386807372e-05
1.4067972695470712703e-05
1.4100589003541441421e-05
1.4132714281112294382e-05
1.4162771953976182986e-05
1.4190202568478101072e-05
1.4214113137543500916e-05
1.4234550148909937904e-05
1.0357707252310816622e-05
1.0344677595381365965e-05
1.0334195135711884519e-05
1.032103656183222587e-05
1.0310342139194865712e-05
1.0296978912269904929e-05
1.0286322214996562632e-05
1.027287550247322016e-05
1.0262467988046574026e-05
1.0249095470522835881e-05
1.0238814728997804152e-05
1.0225611670344336853e-05
1.0215326141239946763e-05
1.0202154968073367069e-05
1.0191876887590283182e-05
1.0178522386724334862e-05
1.0168318783569809828e-05
1.0153615187789276104e-05
1.4234899915053637174e-05
1.4269975962438306944e-05
1.4307580268552592463e-05
1.4346672806394682661e-05
1.4386179835647876251e-05
1.4425233020860372341e-05
1.4462071641892604941e-05
1.4494961270410476861e-05
1.4522696874312815388e-05
1.4544366819864375153e-05
1.4560021524655392675e-05
1.4571102638647774125e-05
1.4578732446072321396e-05
1.4585255215307610811e-05
1.4592549415721968366e-05
1.4601881785874018787e-05
1.4614491167326987162e-05
1.4631525071844335577e-05
1.465272279365162277e-05
1.4678170077004018437e-05
1.4706885764523939205e-05
1.4739475006098142577e-05
1.4773719996141475476e-05
1.480942170461379649e-05
1.4845033959484898629e-05
1.4880122579787266206e-05
1.491295527394989922e-05
1.4942662462416979587e-05
1.0910190433607917749e-05
1.0896737719082157461e-05
1.0885678231694581562e-05
1.0872152297557320498e-05
1.0860927143265319893e-05
1.0847260819260301439e-05
1.0836097173637799837e-05
1.0822347294695191654e-05
1.0811412145248300781e-05
1.0797599900727558765e-05
1.078673322134518595e-05
1.0773023941169005462e-05
1.0762100641734391907e-05
1.0748381214355246587e-05
1.0737563242556135337e-05
1.072365580579578577e-05
1.0712991079719428388e-05
1.0698465587611999023e-05
1.4997525366835705456e-05
1.5028617561132810588e-05
1.5062868170680327303e-05
1.5098940274441193795e-05
1.513575409122045685e-05
1.5171905292752584207e-05
1.5205998551772370499e-05
1.5237318534050356422e-05
1.5264622837242479355e-05
1.528756267059112764e-05
1.5306483714547771877e-05
1.5321958406873026804e-05
1.5335471011957455494e-05
1.5348680646906207086e-05
1.5362866259293432976e-05
1.5379537369368789904e-05
1.5399873740942122312e-05
1.5423597683224016686e-05
1.5451214377075456587e-05
1.5481714874443031158e-05
1.5515608746032351903e-05
1.5550710680878575422e-05
1.5586807561445282892e-05
1.5622100178055220101e-05
1.5655998523181411107e-05
1.5686891108005986866e-05
1.5714220441670606328e-05
1.1416702792866854644e-05
1.1400745490492224837e-05
1.1387160755344319791e-05
1.1371054806328292208e-05
1.1357649272758947782e-05
1.1341699547587387199e-05
1.1327994992039671049e-05
1.1312359881989979865e-05
1.1298223769258057718e-05
1.1282406375871949808e-05
1.1268417867898382719e-05
1.1252173401368120514e-05
1.123843882164154863e-05
1.1222214878538499364e-05
1.1208475806857335445e-05
1.1192409634611416957e-05
1.1178650251363949164e-05
1.5577383902544912787e-05
1.5593109693047567838e-05
1.5619885258842143702e-05
1.5657199465794883521e-05
1.5702405742344016155e-05
1.5750559157811147961e-05
1.5797134017908530889e-05
1.5838224617272681161e-05
1.5871723121051943794e-05
1.589691435195587273e-05
1.591389258351263037e-05
1.5924416299046537148e-05
1.5930917255087451737e-05
1.5935662443483574477e-05
1.5941605652856861638e-05
1.5950883729168004524e-05
1.5965203959115198716e-05
1.5985009758754829476e-05
1.601048773032870683e-05
1.6040237132171387572e-05
1.607402974194647034e-05
1.6109543036414146098e-05
1.6146274982994112578e-05
1.6182078325039547627e-05
1.6215817995926236437e-05
1.6245945401242766008e-05
1.6271894311270316397e-05
1.1694173403031456226e-05
1.1679323810918370809e-05
1.1658322946803118371e-05
1.164360298380973567e-05
1.1622701142258491403e-05
1.1607911787962059966e-05
1.1586835783791671364e-05
1.1571870716314492514e-05
1.1550395994176066873e-05
1.1535252814626333908e-05
1.1513389454650738809e-05
1.1498386548561562311e-05
1.1476445377213809432e-05
1.146153166600221305e-05
1.143623086456610179e-05
1.142998385549828516e-05
1.2189789699205309524e-05
1.2181875953058218806e-05
1.2174826734502701013e-05
1.2170959233356078093e-05
1.2177388036826282213e-05
1.2216128370327261363e-05
1.2283905729282204442e-05
1.2344074492122930221e-05
1.2392436287212008273e-05
1.2427465253706886344e-05
1.2449471188864634367e-05
1.2461136182815451501e-05
1.2465499201029449938e-05
1.2466215212205443484e-05
1.2466884618161409664e-05
1.2470761411379281856e-05
1.2480265889705412428e-05
1.2496632468719975001e-05
1.2519380383647296261e-05
1.2547764832265107622e-05
1.2579520192302323832e-05
1.261332784200910221e-05
1.264669954854113465e-05
1.2678707567229582638e-05
1.2707387132699616176e-05
1.2732050982068709508e-05
1.2751742816558282503e-05
1.2766633700641209597e-05
9.0817874514434644446e-06
9.0657910802346716679e-06
9.0544184013071394603e-06
9.0384630468498907731e-06
9.027044193244538242e-06
9.0109932685370421095e-06
8.9994314774132346744e-06
8.9831431819384551798e-06
8.9715433965907020059e-06
8.9550506856422675738e-06
8.9436232181341653177e-06
8.927131172616703132e-06
8.9158130664432743703e-06
8.8969142619067795373e-06
8.8944445271976781933e-06
1.157195290310243451e-05
1.1587198939817791105e-05
1.1612103436387102035e-05
1.1645220866751065808e-05
1.1683385163780436982e-05
1.172274763073766553e-05
1.1759157882551759275e-05
1.1789194892208818428e-05
1.1810930856759974884e-05
1.1824657793923796308e-05
1.1831087515660619448e-05
1.1832356133277456233e-05
1.1831096396997435669e-05
1.1830179044767707085e-05
1.1832385775446531374e-05
1.1839860518280999007e-05
1.1853636930349189569e-05
1.1873654836966299834e-05
1.1899569059179988632e-05
1.1929790085465708917e-05
1.1963115572818168626e-05
1.1997435205923730317e-05
1.2031663202349255045e-05
1.2063563984118924068e-05
1.2092337582116480154e-05
1.2116317614289997067e-05
1.2134932380840460602e-05
8.6481064701590484482e-06
8.6379997898526565111e-06
8.6241014089375462172e-06
8.6139263593118167847e-06
8.5999312074232545739e-06
8.5896119333655843728e-06
8.5753543078892275118e-06
8.5649511721589191153e-06
8.5505646854239404512e-06
8.5403296192833648914e-06
8.5259924292052290346e-06
8.5158793336209043289e-06
8.5001281470859821847e-06
8.4931954133868404116e-06
1.1168826779234110964e-05
1.1193457400350747142e-05
1.1222052548831997176e-05
1.1252905694213308289e-05
1.1283567205347863933e-05
1.131154370571692749e-05
1.1334991459533349053e-05
1.1352710697130119407e-05
1.1364789598377753589e-05
1.1372356513754343683e-05
1.1376778611591464987e-05
1.1379798621320476456e-05
1.1383470661530888619e-05
1.1389603738578598022e-05
1.1399642504314380626e-05
1.1414413346409511905e-05
1.1433793386768596056e-05
1.1457165379156814659e-05
1.1483444754655652164e-05
1.1511620537679521481e-05
1.1540132682917029659e-05
1.1568282630064732528e-05
1.1594306788265974016e-05
1.1617704677869047846e-05
1.1637178400541644261e-05
1.1652535320567590889e-05
8.3224075993394301041e-06
8.309085335594181381e-06
8.2993014072363713372e-06
8.2858522541979875601e-06
8.2759129326958296688e-06
8.2622810534322310201e-06
8.2523316747991231523e-06
8.2386405855905093745e-06
8.2288550506641766375e-06
8.2152104349278416647e-06
8.2055350963596068649e-06
8.1907863254799719027e-06
8.1836220175802357988e-06
1.0769882139028126269e-05
1.0794292492244209351e-05
1.0819929012379014366e-05
1.0845106874967064175e-05
1.0868363651820621145e-05
1.0888345804829735827e-05
1.090446993173322712e-05
1.0916582741484694044e-05
1.0925477012190030026e-05
1.0931705561226169693e-05
1.0936656235242375509e-05
1.0942117142913356846e-05
1.0949556049539344285e-05
1.0960261350803883072e-05
1.097513495240497144e-05
1.0994083235514819609e-05
1.1016614017463346537e-05
1.1041969130904639602e-05
1.1069269166641354933e-05
1.109721236030978639e-05
1.1125250535216913968e-05
1.1151696761184188899e-05
1.1175967000576943742e-05
1.1196698545408595991e-05
1.121345662004339271e-05
7.9940325367985863716e-06
7.984532657770301655e-06
7.9714493983892483473e-06
7.9618131556350918757e-06
7.9486113815233555091e-06
7.9390140591213306901e-06
7.9257681889859918817e-06
7.9163107618975452138e-06
7.9031056747532772228e-06
7.8937425157085122228e-06
7.879427246523098164e-06
7.8725298134393433398e-06
1.0413471812757671119e-05
1.0436919349899315807e-05
1.0459763519078383277e-05
1.0480702873404528562e-05
1.0498859988108932343e-05
1.0513869835325023684e-05
1.0525722779029062989e-05
1.0534258890973399928e-05
1.0540532885090645116e-05
1.0545660820411089929e-05
1.0551126668132565996e-05
1.0558688198410862629e-05
1.0569694232322184266e-05
1.0584626130428970495e-05
1.0603747767946941291e-05
1.062668625119413872e-05
1.0652430907090990243e-05
1.0680242319779528366e-05
1.0708750734198614062e-05
1.0737281867906918245e-05
1.0763982901148274284e-05
1.0788254018899960193e-05
1.0808398337969143691e-05
1.082395087424154789e-05
1.005249433168196547e-05
1.0072643335549871018e-05
1.0091195094849206683e-05
1.0107281454198954959e-05
1.0120514709375428525e-05
1.0130772314287929156e-05
1.013849178578049825e-05
1.0144069038425163656e-05
1.0148910084889017921e-05
1.0154317632172948807e-05
1.0161781639819821005e-05
1.0172479174772203157e-05
1.0186987514850173178e-05
1.0204985691424540108e-05
1.0226152913192709524e-05
1.0249527297614122707e-05
1.0274313634281697903e-05
1.0299266441391042432e-05
1.0323937805505912639e-05
1.0346847709909108535e-05
1.0367528091040319394e-05
1.038474940506023022e-05
1.039819914083854534e-05
9.7659201041622763077e-06
9.7807010818649064174e-06
9.7906775851085892277e-06
9.7968287643205635381e-06
9.8003113761114040787e-06
9.802434749107125214e-06
9.8041351905778634902e-06
9.8068562352057051581e-06
9.8115450575904821954e-06
9.8190032656958907339e-06
9.8295741689486432094e-06
9.8430693845063433223e-06
9.8589142033429235344e-06
9.8764894494993983023e-06
9.895530791335786677e-06
9.9149694691555771247e-06
9.9349167691225170743e-06
9.954264791565440657e-06
9.9727273305505528551e-06
9.9892997550539529007e-06
1.000333840624775056e-05
9.4415737536088493217e-06
9.4389994138940924614e-06
9.4347401394343632382e-06
9.430627614382027505e-06
9.4284224136637046322e-06
9.4293180350484146737e-06
9.4342523082178956638e-06
9.4432735195503207415e-06
9.4561122479879165895e-06
9.4717293859060563852e-06
9.4899223669867997414e-06
9.5093112299924428024e-06
9.5295264944841112599e-06
9.5493370518138182777e-06
9.5682346088219771862e-06
9.5850297134520210637e-06
9.5992634766235998502e-06
9.090798699947080986e-06
9.0917270341769682035e-06
9.0966063303214669572e-06
9.1053898762026350659e-06
9.1178182834454373824e-06
9.1333828819858266332e-06
9.1515254992910759126e-06
9.1710355220924636517e-06
9.1916459796411355835e-06
9.2120140397930734089e-06
9.231388733542058664e-06
9.2487534865942091865e-06
9.2632380454222471272e-06
8.7371355908652410794e-06
8.7446761972621713606e-06
8.7566831224264293418e-06
8.7726129566058975621e-06
8.7914138705251561215e-06
8.8119146053302452353e-06
8.8327944817613065879e-06
8.8528903811698835983e-06
8.8709825035330903666e-06
8.8865744342246602192e-06
8.8983309343970515444e-06
8.906495941479155288e-06
4.5335588500303785286e-06
4.8325483012139745871e-06
5.0863184175860960917e-06
5.2481345081710540872e-06
5.3262509470984897942e-06
5.3471851194850510236e-06
5.3429069142728636229e-06
5.3161691518931441844e-06
5.2042588692942720203e-06
4.9884199603500405451e-06
4.8229247221121570292e-06
4.7218207577850166475e-06
4.6758930043362619371e-06
4.6639871590677146201e-06
4.6651333267923429944e-06
4.6932672368311855664e-06
4.8124516079769927719e-06
4.971466176469555976e-06
5.0659580066506549177e-06
5.1052978497330072657e-06
6.0732524458502619617e-06
6.1521816691369970336e-06
6.424121129858039215e-06
6.7993239120801612753e-06
7.0634301735107092769e-06
7.2129359631923994252e-06
7.2706718766096881259e-06
7.2765934824331766689e-06
7.259748279048119556e-06
7.1785999256633926222e-06
6.9140467878853397943e-06
6.6223139639708437939e-06
6.4324793515160217757e-06
6.3386242133632181306e-06
6.3106198710628184646e-06
6.3095227632433254527e-06
6.3395139863158159703e-06
6.4800539093066424431e-06
6.6861921782116267728e-06
6.8065811707944494222e-06
6.8524468199243894305e-06
6.8562799391643922326e-06
1.0643750148519932178e-05
1.069062805403345705e-05
1.0862902620667890961e-05
1.1173485695475967434e-05
1.1418738281491213775e-05
1.1561694812614952709e-05
1.1616786352944399318e-05
1.1623495758275325347e-05
1.1610134213578524707e-05
1.1563227728989204348e-05
1.1405678951625954279e-05
1.1098719780800462548e-05
1.0843823288416894405e-05
1.068576416117471849e-05
1.0619093171483164116e-05
1.0605447146661361478e-05
1.0610098197236754588e-05
1.0662501293958746759e-05
1.0839744436396401675e-05
1.1010552886830442606e-05
1.1096788779791957441e-05
1.1117923180129106998e-05
1.1109819391620929843e-05
1.1084168406806848498e-05
1.099711569201302047e-05
1.0803916908051329289e-05
2.4466425521111526928e-05
2.477535638837512948e-05
2.5087184595132110289e-05
2.5355595663411831659e-05
2.5533174381595536047e-05
2.5614422512340211054e-05
2.5630604735619074146e-05
2.5611647059897493513e-05
2.5549562774193422505e-05
2.5339803366980032128e-05
2.4964282757398258822e-05
2.4672758566852643014e-05
2.4508257631126532093e-05
2.4452896297738762363e-05
2.4445403003462934599e-05
2.4481287287185412834e-05
2.4654672769786344132e-05
2.500730420589305326e-05
2.526269792597511996e-05
2.5383866804054241068e-05
2.5401792112851442407e-05
2.537590304972265373e-05
2.5304340394241277247e-05
2.5087973081212824915e-05
2.4772500442897506056e-05
2.4550759794130223808e-05
2.4432834426233528922e-05
2.4385875161823751989e-05
5.5996806372414008963e-05
5.6160472751906473842e-05
5.6265172548682926637e-05
5.6307763336736378081e-05
5.6306361124413188766e-05
5.6270277865718195266e-05
5.6199049654443170227e-05
5.600532551844346178e-05
5.5699707366087169362e-05
5.5425513237341601921e-05
5.5209747803140570206e-05
5.5074494457512269269e-05
5.5021222918069698606e-05
5.5001883735982305971e-05
5.5031458891243230532e-05
5.5192976331737518948e-05
5.5413555626175649825e-05
5.5556879699227980731e-05
5.5610991991400526586e-05
5.5591540234172735074e-05
5.5540212715540833335e-05
5.5423171373783973145e-05
5.5145960510435336303e-05
5.4832677689786103368e-05
5.4580469102729218525e-05
5.4398151594470940901e-05
5.4288549333443892361e-05
5.4227763373997756816e-05
5.4192963705549984568e-05
5.4176542117275980923e-05
8.8609746400807092243e-05
8.8470293101323442997e-05
8.8296609355675885955e-05
8.8084119815426127446e-05
8.7835513161255433963e-05
8.7559301177510346563e-05
8.7268777648714173051e-05
8.6980577243942231867e-05
8.6714379252122257276e-05
8.6486406359246339971e-05
8.6307028849550812446e-05
8.6175699467837214634e-05
8.6083212623105993442e-05
8.6010242148315611517e-05
8.5934844034723576584e-05
8.5838621262450067904e-05
8.5708587939786238879e-05
8.554093348703144565e-05
8.5339704180795967017e-05
8.511530659824817404e-05
8.4881803609976186884e-05
8.4654435621722484359e-05
8.4446240823813362576e-05
8.4265760704212885044e-05
8.4114097140271915478e-05
8.3984430037624123217e-05
8.3865480247805442244e-05
8.3746714913529330402e-05
8.3619536153079913931e-05
8.3480577032655226217e-05
8.3327833485021029006e-05
8.31645176005742638e-05
0.00010769122271045262844
0.00010744361127047162574
0.00010719421303287216278
0.0001069451800737528384
0.00010669894571752696862
0.00010645705449144845004
0.00010622033526433808401
0.00010598966025786864698
0.00010576647280393080284
0.00010555251279048772023
0.00010534830680409570068
0.00010515193123873005972
0.00010495915869249425399
0.00010476479389560209199
0.0001045654848297063969
0.00010436137151353486012
0.0001041554094309762998
0.00010395148705581372514
0.00010375193784936551306
0.00010355710094835134712
0.00010336691648242869767
0.00010318254846960667518
0.00010300594142572102392
0.00010283750369499419319
0.00010267412753162818853
0.00010251143314306440624
0.00010234622400082593
0.00010217880090547287915
0.00010201046752091127458
0.00010184304577202909147
0.00010167574011406055106
0.00010150864476371642114
0.0001013404396534612359
0.00014110332685176132147
0.00014031382186865663689
0.0001395399089430382608
0.00013878200383943598527
0.00013804124968496629439
0.00013732678840135494926
0.00011814111346102665865
0.000117920697078030819
0.00011770178884138520164
0.00011748515055668940713
0.00011727080664917308302
0.00011705774535124213937
0.00011684427312291689629
0.00011662980064352363157
0.00011641625763742054417
0.00011620757847042937478
0.00011600652046129683603
0.00011581235978893663502
0.00011562078005589023703
0.00011542725438390545156
0.00011522999363268972219
0.00011503082914737746735
0.00011483372697164537408
0.00011464205910533881898
0.00011445646623951649375
0.00011427525436949593867
0.00011409707525052465858
0.00011392263562575576259
0.00011375362796213900069
0.00011358965043255705714
0.00011342712598005174533
0.0001132612841734379535
0.00011309000689407629604
0.00011291514390547808177
0.00011274016748562639594
0.00011256675440094232924
0.00011239435027002197989
0.00011222128246201986041
0.00011204765957336396348
0.00011187365888326113357
0.00013559242513639508092
0.00013493608709872482228
0.00013427992239637415845
0.00013363131212674550594
0.00013300047826948148042
0.00013240690563846299133
0.00013186896425804021417
0.00011565543170838543305
0.00011548004179788881162
0.00011530135543842727963
0.00011512015931984255187
0.00011493693023295967074
0.00011475362920133940414
0.00011457468037695578867
0.00011440696861128823829
0.00011425722304016245744
0.00011412765843021224885
0.00011401369286835247568
0.00011390540439334842591
0.00011379366051826534029
0.00011367668734347945614
0.00011356044259438842947
0.00011345401027758116952
0.00011336276640935620227
0.00011328504427773178733
0.0001132139826302469885
0.00011314323585616813009
0.00011307080420813957579
0.00011299668149124395737
0.0001129176302793454147
0.00011282624236539897039
0.00011271519110009699022
0.00011258414785122891838
0.00011243974177819514109
0.00011229032186173572012
0.00011214022780731417101
0.00011198875472761324996
0.0001118336209567990803
0.00011167475323126960847
0.00011151545840476800745
0.00011135980272987039733
0.00011121043279480845583
6.8114080535238659581e-08
6.8300433895886279092e-08
6.8618265470540269869e-08
6.8884925980575477142e-08
6.9133839613074083261e-08
6.9330936837293716125e-08
6.9618277500419991903e-08
6.9770647819243159296e-08
7.0080474356202965571e-08
7.0220174488099491989e-08
7.041364424764951434e-08
6.0273246236976459189e-07
5.9994498159717905991e-07
5.976461443394915429e-07
5.9589571708938358541e-07
5.9467888625782926961e-07
5.9387914741183143988e-07
5.9333985951153839972e-07
5.9288862920740937136e-07
5.9241118833407801693e-07
5.9182376170161168323e-07
5.9119602365553227041e-07
5.9063697108617413846e-07
5.9017979237479740954e-07
5.8977531324103844122e-07
5.8942159044911814089e-07
5.8903945555555289002e-07
5.8862018186855394425e-07
5.8811364368686777509e-07
5.8734501261395127804e-07
5.8579695344320599539e-07
5.8350657091237234125e-07
5.8128080162851588549e-07
5.7917835558351797043e-07
5.7721347218518926178e-07
5.7538909008114030397e-07
5.7369581692456237425e-07
5.7215119016907039701e-07
5.7081412444297556506e-07
5.6967563684152389956e-07
5.6869322335508270708e-07
5.6784503753339431757e-07
5.6713707426359417351e-07
5.6655101577878843263e-07
5.6603002423272942386e-07
5.6546172042378622856e-07
5.6471538197601792375e-07
7.0434661838330924028e-08
7.0483828422527757021e-08
7.0548572608246168197e-08
7.0666080004282298786e-08
7.0750783142712706467e-08
7.0784878505387768993e-08
7.0880088046455136534e-08
7.0921828246318626467e-08
7.1048706108903061157e-08
7.1200343459999217421e-08
7.1466389149977567166e-08
7.1663644246998385498e-08
7.1955659295682161712e-08
7.224596626647047016e-08
7.2456481256702567557e-08
7.2660197505196684672e-08
7.2913574550075653442e-08
7.3030936230855938016e-08
7.333740407048904947e-08
7.345486959652878265e-08
7.3620772896595943339e-08
6.1026149225702926166e-07
6.0873019652045700721e-07
6.0724578097031671949e-07