/*--------------------------------*- C++ -*----------------------------------*\
  =========                 |
  \\      /  F ield         | OpenFOAM: The Open Source CFD Toolbox
   \\    /   O peration     | Website:  https://openfoam.org
    \\  /    A nd           | Version:  12
     \\/     M anipulation  |
\*---------------------------------------------------------------------------*/
FoamFile
{
    format      ascii;
    class       volScalarField;
    location    "0.0062";
    object      p;
}
// * * * * * * * * * * * * * * * * * * * * * * * * * * * * * * * * * * * * * //

dimensions      [1 -1 -2 0 0 0 0];

internalField   nonuniform List<scalar> 
106891
(
99160.792523674463155
99168.769742067626794
99179.074104151397478
99191.85114021411573
99206.675137645943323
99222.58328481465287
99238.327459816951887
99252.551899124708143
99264.258085004243185
99272.808107180317165
99277.687101556366542
99244.973719005371095
99225.248186495533446
99204.979842581858975
99182.321689414733555
99159.287456305231899
99141.719384129421087
99135.884331064124126
99143.861770314149908
99162.029945628790301
99183.512700189807219
99202.199628844362451
99215.534263834750163
99224.826911706724786
99232.577006255174638
99239.753403606606298
99245.006867215633974
99245.85569551831577
99241.452498265352915
99233.032237070903648
99222.532301088547683
99210.870467052300228
99197.792828122066567
99182.797556660400005
99167.752561838220572
99156.851253555432777
99154.031046593896463
99160.045608232016093
99170.861164006084437
99180.156311785554863
99182.6028145722521
99176.659705826605204
99165.307265293813543
99153.265067792963237
99143.910274068897706
99138.525438362848945
99136.58170937205432
99136.507322117744479
99136.275668898757431
99092.740095866596675
99104.767923021412571
99115.633887045711163
99125.268766340785078
99133.597934269346297
99140.516018682945287
99146.07436722262355
99150.703056599915726
99155.193538995081326
99160.454410482328967
99167.333876037941081
99176.451427559964941
99188.104535216247314
99202.183654055130319
99218.079202722306945
99234.827160167056718
99251.117482884219498
99265.697199123125756
99277.463591257313965
99285.42202070345229
99226.994345941770007
99210.377907467351179
99191.868263591313735
99171.443815500868368
99153.568052765986067
99144.116197873896454
99145.873632836970501
99156.477681501477491
99170.545143157665734
99183.441257206679438
99193.834682486951351
99203.844988367141923
99216.051571295771282
99230.266701916669263
99243.093996715411777
99250.55347099158098
99250.572909410562715
99244.035593855456682
99232.904807295300998
99218.607216492513544
99201.67508811118023
99182.69817547374987
99164.226420214472455
99151.169723302242346
99148.03649150543788
99156.010222126569715
99171.136696380039211
99186.155874703865265
99194.538344700704329
99193.343868592506624
99184.504874924867181
99172.984657821492874
99163.080259460213711
99156.929366286436561
99154.689328474167269
99155.242223508234019
99094.379472506756429
99106.609832475034636
99117.653054837079253
99127.292606330753188
99135.382821675942978
99141.921854688247549
99147.059837512206286
99151.171703320767847
99154.948615562505438
99159.324746288781171
99165.230150007264456
99173.37737571503385
99184.121460747715901
99197.419472122201114
99212.78797354544804
99229.443310751739773
99246.284697436189163
99262.197202407129225
99276.02964458995848
99286.524290470639244
99236.588678167929174
99225.362117963537457
99210.469726946117589
99191.034457843357814
99170.948670246332767
99155.99764540058095
99149.996977667615283
99151.952152469908469
99157.582310829311609
99163.415729372878559
99169.206148776094778
99177.554269346015644
99191.025078587656026
99209.364118785713799
99228.848466644878499
99244.402209260617383
99252.455939794817823
99252.000366088424926
99243.702544549276354
99229.028057984993211
99209.589074819989037
99187.695831297925906
99167.100023502294789
99152.701339568244293
99149.000121617253171
99156.9786613741162
99173.061772437096806
99190.343637415164267
99201.940850033133756
99204.416999503577244
99198.964549229116528
99189.866720567588345
99181.709387696872
99176.775933801487554
99175.551500788729754
99177.030838874605251
99103.156492894078838
99115.138510932636564
99125.847652750337147
99134.846493915523752
99141.880154557875358
99147.017795087245759
99150.69312459268258
99153.670301896927413
99156.956609283995931
99161.621337185395532
99168.543927795413765
99178.214981473225635
99190.644297140315757
99205.340078659966821
99221.481791249228991
99237.948458075305098
99253.7023767510982
99267.814450049278094
99279.312903413680033
99249.130599961237749
99234.610727380029857
99212.861131780344294
99188.523517287365394
99167.904175081450376
99155.008032275247388
99149.214865725516574
99146.839041124418145
99145.137913873622892
99144.719324869613047
99148.932196321969968
99160.668732080972404
99180.088733539872919
99204.143228174463729
99227.820814106089529
99245.872259282157756
99254.513892539427616
99252.294230852363398
99240.099984030617634
99220.562389188751695
99197.868196198978694
99176.656174962321529
99161.63412571088702
99156.334608312012278
99161.490225537287188
99174.474534673470771
99189.821344489158946
99201.778981012204895
99207.099013597122394
99206.202409976584022
99202.058428694217582
99198.142113359412178
99196.377001980363275
99196.998265933289076
99081.850604055129224
99095.690252770829829
99109.217730880263844
99121.6363933715038
99132.202559285971802
99140.396892889169976
99146.111559965269407
99149.738747216426418
99152.117888113454683
99154.365688390069408
99157.687859585654223
99163.126433757293853
99171.329127526201773
99182.407748451252701
99195.888671771768713
99210.916446308023296
99226.319601107141352
99241.055395174989826
99254.305177615460707
99265.416113977466011
99275.644170426574419
99257.526199246669421
99230.500226671982091
99201.719484426925192
99177.787468086331501
99161.300215939016198
99150.409827346666134
99141.321730906929588
99132.416039256131626
99125.247946632298408
99123.876211303577293
99131.800771201829775
99149.768385365023278
99175.562420806832961
99204.619822929424117
99230.823944777032011
99248.318439893773757
99253.680781383387512
99246.852954025758663
99230.935823179854196
99210.757660284463782
99191.163809597012005
99175.972416703865747
99167.62152472382877
99167.042361044761492
99173.31655787890486
99183.644456107693259
99194.300931254751049
99202.511955697016674
99207.432902826330974
99210.034701894925092
99211.861434717357042
99213.982578584094881
99087.053297739344998
99102.321562686061952
99116.616656839032657
99128.802991047385149
99138.179763570049545
99144.599389633498504
99148.481550243450329
99150.728665968228597
99152.5189569703507
99155.063000923473737
99159.365659909424721
99166.047437590561458
99175.273032745084492
99186.689863709689234
99199.573368836950976
99212.907377046562033
99225.778619279008126
99237.496759746762109
99247.596427722848603
99272.069126022877754
99240.634770839504199
99209.691796384679037
99185.71515569886833
99169.315531358981389
99156.843743244491634
99143.785745012239204
99129.631508096761536
99117.301076653704513
99110.863616210379405
99114.075967760756612
99128.396559192173299
99152.263916057272581
99181.083661771961488
99208.878170133946696
99230.231065518106334
99241.421812845263048
99241.619759774985141
99233.014815637478023
99219.325675573025364
99204.170139577821828
99190.067308872850845
99178.732270786073059
99171.90550213008828
99170.986307383253006
99176.054719581923564
99185.469007394640357
99196.775080438150326
99207.641695587954018
99216.6924960649485
99223.869102476906846
99229.742665598052554
99080.326364749897039
99097.028194170197821
99112.969396735250484
99126.660360588124604
99137.142544073052704
99144.19965047466394
99148.343457590788603
99150.622032577244681
99152.316278537546168
99154.627191414387198
99158.428031002695207
99164.134163422495476
99171.740735236598994
99180.872452433934086
99190.980049379024422
99201.363279798737494
99211.441547017529956
99220.832254534572712
99229.316906384177855
99243.724157395336078
99214.407136756301043
99193.334948997275205
99179.582297948538326
99168.547375151276356
99155.964697654431802
99140.808076592424186
99126.769643058854854
99118.467261402285658
99117.992862715997035
99125.716425809994689
99141.428648898858228
99162.302087382748141
99183.35715856711613
99201.00210612990486
99213.314804036795977
99219.725429955273285
99220.512261066774954
99216.844877641531639
99209.647703447219101
99199.576425289793406
99188.04585416057671
99177.975295460477355
99172.891160066297743
99175.076288065887638
99184.37477898861107
99198.197254457772942
99212.99316709539562
99225.94089961174177
99236.340688163036248
99093.501432175617083
99110.213782547245501
99125.166668868274428
99137.212906992150238
99145.853744875552366
99151.307773084321525
99154.407664221420418
99156.330460251032491
99158.283220260564121
99161.239358761027688
99165.740660769428359
99171.844299261749256
99179.167940575352986
99187.165387783621554
99195.234937174391234
99202.944233609901858
99210.088388319461956
99216.628237271361286
99219.046933942066971
99201.804868225648534
99192.331030087050749
99186.099440535486792
99178.324890544550726
99167.147845583313028
99156.019290910029667
99148.110759755858453
99145.741125061482308
99146.890761931150337
99148.696291557440418
99150.963498210301623
99154.625892312556971
99161.222253660249407
99171.506377443889505
99183.329183914553141
99193.879060801016749
99201.672301040816819
99204.8153889648529
99202.367689919599798
99195.54985191677406
99187.997341839945875
99184.125182157455129
99187.125023825603421
99197.099777747644112
99211.527431147580501
99227.079058478819206
99240.763449706370011
99091.135020009416621
99106.800375695180264
99121.989561089736526
99135.579989948484581
99146.711926428310107
99154.964681140962057
99160.455883932809229
99163.807008495205082
99165.97098627849482
99167.985848543437896
99170.710275840217946
99174.660362641283427
99179.910790950598312
99186.199507693658234
99193.001068226207281
99199.767651005939115
99206.098712736318703
99211.769773072766839
99210.887905306182802
99204.965002761222422
99204.072149745785282
99203.758464798273053
99201.866632931560162
99197.840684703231091
99193.711969301395584
99189.784909220586997
99183.228804474318167
99171.431866322993301
99155.367447950266069
99140.643935922329547
99132.635955071105855
99133.745811335800681
99144.124953461549012
99161.461922442205832
99180.226475319534075
99195.642728956241626
99205.095898017054424
99208.966109122920898
99209.915249119527289
99211.602228523304802
99216.792989964131266
99226.339619596445118
99238.7054182326101
99251.141560379153816
99262.165603993504192
99104.159320501305046
99118.235252093232702
99132.397332389795338
99145.517788343961001
99156.594554928495199
99164.980780802259687
99170.555837200154201
99173.762747970453347
99175.484613973938394
99176.787765865228721
99178.655251513671828
99181.706186403971515
99186.125933452422032
99191.655310410395032
99197.732276837559766
99203.761726188007742
99209.25694205344189
99226.11273273792176
99218.503479293591226
99215.695827540461323
99219.125660680816509
99227.120694615296088
99236.169314553320874
99243.034466193596018
99244.794955816629226
99238.215905103061232
99223.31948959940928
99201.755193265023991
99176.793535314573091
99153.664295518261497
99137.534994397734408
99132.003108901888481
99138.228155921853613
99154.619808715055115
99177.066015353004332
99199.990387262281729
99218.4063915949082
99230.159119591786293
99236.579629728425061
99241.271758324452094
99247.619612728929496
99256.678256408005836
99267.077698146793409
99276.480770552894683
99116.861045932819252
99130.299081789809861
99143.920747911688522
99156.323900859497371
99166.37695017697115
99173.476707178051583
99177.658938828957616
99179.551281228312291
99180.182963857034338
99180.685362771691871
99181.965953818507842
99184.524497602818883
99188.377339767728699
99193.126464935499826
99198.249168954658671
99203.251776103687007
99220.519176445755875
99220.212620343096205
99222.790289987606229
99230.363933271772112
99243.439698140893597
99258.954282939521363
99271.502475432163919
99275.547320841564215
99268.152773586509284
99251.117938186129322
99229.054450146999443
99206.753299992429675
99187.605091269972036
99173.721492602329818
99167.083978109702002
99169.770211032708175
99182.348666095320368
99202.287821525154868
99224.159103943689843
99242.156270101651899
99253.094156877501518
99257.986944560732809
99260.811759624586557
99265.515018217236502
99273.677078064749367
99283.901326327322749
99293.068940079596359
99298.066219071741216
99131.92082147129986
99144.030391597276321
99155.544082388893003
99165.26918391927029
99172.437996456530527
99176.850431272701826
99178.866656457350473
99179.264677336774184
99179.024362312702578
99179.011217611900065
99179.813453743481659
99181.665259186222102
99184.474053150479449
99188.033434827972087
99192.098159787114128
99216.439259040998877
99224.951598186104093
99238.35738932917593
99255.651632893219357
99273.469366088145762
99286.21887763691484
99288.990737048821757
99280.947862579050707
99265.665306636350579
99248.610866681556217
99234.183163587658782
99223.588543189092888
99215.988600492419209
99211.74895155854756
99213.363465329326573
99222.991720329999225
99239.296971902003861
99257.095172472021659
99270.263137269401341
99275.54235101674567
99274.395510156464297
99271.83846344515041
99272.954917324823327
99279.792494953333517
99290.579953681226471
99301.145124704620684
99306.461703147972003
99147.437938907940406
99157.053046423679916
99165.326599560517934
99171.519636522556539
99175.345489386541885
99176.987994480135967
99176.97913910060015
99176.032901697064517
99174.864416161653935
99174.090426664421102
99174.14960766355216
99175.212037520715967
99177.326434578077169
99180.471559595855069
99223.862478432405624
99243.117824280547211
99264.155318098302814
99281.905371772882063
99291.521355231510825
99291.028795928039472
99283.082962658460019
99272.888475187879521
99265.159641234728042
99261.709603265466285
99260.842393782397266
99259.929794878233224
99259.007658202390303
99261.21742596187687
99269.484483299485873
99282.758566302800318
99295.55106081305712
99301.608516381966183
99298.330279870468075
99288.5051250957913
99278.595849220699165
99274.842853411755641
99279.791330756459502
99291.221411625549081
99303.485855405029724
99310.197298765269807
99162.657953328613075
99168.750111278277473
99173.156617212094716
99175.617905725812307
99176.195680347678717
99175.214270962882438
99173.196868776460178
99170.774105365562718
99168.566388361650752
99167.094938899899716
99166.680791029924876
99167.571111686629592
99169.920854122596211
99244.953767823302769
99267.781556622765493
99283.125266717353952
99287.710928715809132
99283.748296283607488
99277.351858900656225
99274.637536176116555
99278.381465944723459
99286.720664738313644
99294.776638084629667
99298.868854282205575
99299.882432282727677
99302.377851813827874
99310.003322119329823
99321.431140672939364
99330.560416716209147
99330.736053411543253
99319.743779031792656
99301.697435260895872
99284.437827873858623
99275.270992697536713
99277.381964908519876
99288.634556620236253
99301.961042217066279
99310.139620879272115
99176.996283066066098
99179.449106335945544
99180.141247897030553
99179.112435086732148
99176.638360825585551
99173.203613016274176
99169.397618899893132
99165.819560283562168
99163.037183144668234
99161.482519853918348
99161.501900687246234
99163.288910166244023
99265.72075019562908
99276.937209201336373
99276.643450742471032
99270.609452875840361
99267.435924615783733
99273.293539444945054
99288.364079703940661
99306.936838487061323
99321.546975887278677
99328.301132904380211
99329.301950529770693
99330.572936760276207
99336.736140903885826
99346.755471785902046
99354.218866834955406
99351.917616986436769
99337.156298572837841
99314.078461667988449
99291.369225867994828
99277.505746779803303
99276.214577549544629
99285.532284063549014
99298.555279913241975
99306.817948112846352
99264.075465072121006
99260.859781602717703
99255.547955502435798
99257.17661676411808
99270.706741534842877
99294.187654581488459
99319.686905657421448
99338.291399912297493
99345.81078488638741
99345.13419319789682
99343.518990064811078
99347.018882273056079
99355.671725496125873
99363.20762448250025
99361.732750807655975
99347.599667133370531
99324.063267227640608
99299.558870298045804
99282.651673522952478
99278.157481105823535
99284.221032626461238
99294.816687802565866
99301.911373156850459
99241.294421103273635
99248.949593664437998
99268.377462810225552
99296.14201326132752
99323.942981621716172
99343.28611269009707
99350.2276360483811
99347.515021486571641
99342.557611471798737
99342.354401948570739
99348.927026542107342
99357.513496654559276
99359.973985266740783
99350.634258825171855
99330.844856715251808
99307.943569294307963
99290.435636952664936
99283.254638873637305
99285.730044252413791
99292.478350090808817
99296.217181828149478
99319.929445988527732
99337.160548321306123
99342.219429148550262
99337.155513599296683
99329.07324627750495
99325.709971401214716
99330.330372664189781
99339.926589783644886
99346.51352056520409
99343.590759293365409
99330.560070391205954
99312.71426507832075
99297.401386532073957
99289.535274008696433
99289.109386674273992
99291.469463621586328
99290.327679521622485
99307.068123513832688
99301.466365129192127
99304.541147026888211
99314.5159839381231
99324.558125025010668
99327.979912983035319
99322.58166185056325
99311.531454238720471
99300.645264283797587
99294.268391410718323
99292.396801000548294
99290.926778181135887
99284.536974208182073
99273.181767765316181
99275.134138418667135
99284.66640612386982
99296.761747303331504
99305.216197021349217
99306.834993754600873
99303.037671829224564
99297.91812859554193
99294.736885735706892
99293.122347305412404
99289.159944737402839
99278.157382459772634
99155.885141786260647
99142.506324314104859
99128.164817224838771
99110.506703857769025
99089.852730054786662
99068.300512061206973
99048.32948241638951
99029.667997675336665
99009.546189555490855
98985.528900548888487
98959.861896622154745
98939.310838067991426
98929.748715711291879
98932.402361053900677
98942.796783703219262
98954.763045903207967
98965.878722483292222
98977.80752635175304
98992.803260234359186
99010.650874504091917
99200.380864834631211
99180.291738200787222
99158.866471642875695
99135.334329991732375
99110.536964307466405
99086.615566394568305
99064.764782786282012
99044.479362574478728
99023.5040957484307
98998.86113233906508
98969.923435813048854
98941.215104322560364
98920.111910122621339
98911.576223175565246
98914.884764220943907
98925.90768436176586
98939.828810803795932
98955.242296494121547
98973.254949260153808
98993.169178397816722
99012.587640870464384
99028.840620776303695
99260.662289279396646
99246.230975887607201
99226.860634495664272
99202.675822696211981
99173.401430312573211
99141.183470497839153
99109.746637102813111
99082.886615776340477
99061.11390040293918
99041.175847023288952
99018.254727691455628
98989.253037466100068
98955.868650675678509
98924.523431636640453
98903.189363788726041
98895.617519683815772
98899.738913310284261
98910.969465730697266
98926.695840853702975
98946.196121803208371
98969.940527393468074
98994.494416609188193
99015.059823761504958
99028.805745318808476
99037.392528462194605
99044.033744027823559
99285.037814131879713
99280.959875477215974
99269.597360543892137
99250.309736899042036
99222.401106366087333
99186.100946513062809
99145.724239354240126
99108.373009222268593
99079.015813515186892
99057.732846275685006
99038.442359916167334
99013.776181298337178
98980.993165308827884
98943.492405123819481
98909.971511608673609
98888.574945886648493
98882.057258383458247
98886.804514053757885
98898.253416241394007
98915.333338787808316
98938.692841778072761
98967.674162049093866
98996.472776273338241
99017.834317380664288
99029.070943010621704
99033.78127530036727
99037.486266062129289
99042.453611611024826
99291.763599954065285
99298.769219767928007
99298.180955783100217
99289.446373112237779
99270.494216829698416
99239.315622952228296
99196.674486384217744
99149.065882220093044
99106.422501049251878
99075.173935339000309
99054.510824688593857
99035.99173287099984
99010.272011951528839
98974.176290105388034
98933.166929469400202
98897.742089163773926
98876.464828029886121
98870.780430196391535
98876.226232766042813
98887.739558548928471
98905.868828835649765
98932.639538633040502
98966.235038721890305
98998.778732008184306
99020.699311590811703
99029.606032760464586
99030.785897285997635
99031.98863578143937
99036.071723468485288
99040.446832071029348
99284.840102171248873
99300.393462879423168
99309.766622436873149
99312.097954988043057
99305.653408827638486
99287.034696034053923
99253.172572751660482
99205.266079787295894
99151.67567898168636
99104.486333706576261
99072.120707580805174
99052.319961781002348
99034.656816507311305
99007.96770177417784
98968.826587385250605
98924.57305542298127
98887.430201837734785
98866.3817457643745
98861.807025231042644
98867.585299537997344
98879.360314104444114
98898.158319967085845
98927.930549520766363
98965.602260620435118
99001.287371633574367
99023.709692072370672
99030.467549101536861
99028.514681356362416
99027.557160092954291
99031.104114219226176
99035.746352185014985
99036.568711262865691
99290.031923260685289
99306.888662397395819
99318.102044091065181
99322.764572332496755
99318.212944476370467
99299.954435861873208
99264.015989171122783
99211.92366448303801
99153.359224809901207
99102.643173929318436
99069.263451700564474
99050.560331273431075
99033.821335898086545
99006.405782914080191
98964.868178567601717
98918.025941036772565
98879.504002623318229
98858.757725571442279
98855.042463154051802
98861.283325148004224
98872.968446222716011
98892.368772752626683
98924.366442594560795
98965.466743592987768
99003.663295109159662
99026.520597147828084
99031.365276530501433
99026.822766578290612
99024.110311630254728
99027.335597149489331
99032.373261877612094
99033.350914690527134
99028.667152316251304
99205.528174162143841
99220.866090015886584
99221.849320320936386
99200.599005857875454
99156.876226395965205
99119.906464555184357
99293.46698886899685
99311.163897285179701
99323.617609756664024
99329.933955167391105
99326.719931208863272
99308.788466650352348
99271.409245678863954
99216.333278294478077
99154.260310673795175
99101.172138179841568
99067.170698548972723
99049.431243456172524
99033.424614174044109
99005.396057862628368
98962.184227127931081
98913.411713330162456
98873.88597407063935
98853.347270455982652
98850.450277309952071
98856.989700708101736
98868.587710446634446
98888.469883173864218
98921.934490455605555
98965.6757992990606
99005.762601846261532
99028.733258117077639
99032.093750654923497
99025.687173456550227
99021.724749112676363
99024.782149039951037
99030.199329932351247
99031.329716589782038
99026.484951415797696
99019.185584879087401
99178.065317428365233
99209.810230132527067
99225.781492242836975
99225.737085570057388
99202.566224704467459
99156.847971883238642
99117.870327226599329
99295.438855280808639
99313.523780251096468
99326.639116243139142
99333.795165339222876
99331.179179048369406
99313.301855443089153
99275.141001230265829
99218.512350605291431
99154.623106134182308
99100.146030695788795
99066.089071565555059
99048.921596931279055
99033.232142944762018
99004.895374662039103
98960.834794251073617
98910.972050993528683
98870.95667840547685
98850.629931062168907
98848.098543959815288
98854.884450755140278
98866.333181851689005
98886.489162204350578
98920.680759555878467
98966.005483479777467
99007.159648908054805
99030.022322459262796
99032.55873207274999
99025.12593592061603
99020.544896533625433
99023.594404088522424
99029.21059970400529
99030.417548844576231
99025.434866224648431
99018.007359419789282
99013.350660055701155
99154.292007862022729
99178.534109621177777
99201.916891216984368
99223.451833118204377
99242.266415387261077
99257.546272618506919
99268.752082592516672
99275.714079882483929
99278.834491463785525
99278.838418596147676
99276.343713688533171
99191.703009489297983
99197.278201526365592
99191.128316565809655
99176.073229666537372
99161.003944932090235
99155.164954999563633
99162.723234463875997
99180.172964515673812
99198.542250107624568
99209.310642883865512
99209.644535760322469
99203.460052196765901
99198.631838540066383
99200.675593834428582
99209.212597934281803
99219.112230749771697
99225.00026946842263
99225.400240782779292
99222.723639056202956
99220.505295147944707
99219.757709965924732
99217.640582286971039
99209.954871464564349
99194.905555675242795
99174.347218304028502
99152.973558527126443
99135.675315435146331
99125.510843595402548
99122.678815451392438
99125.36518805209198
99131.107915948174195
99137.733405518491054
99143.923529044288443
99149.285683517780853
99154.178315412194934
99159.272307697116048
99042.915338150749449
99039.134783565838006
99038.436209352556034
99041.414399239787599
99048.477941289398586
99059.758244283744716
99074.91656802954094
99093.287600244046189
99114.150571808146196
99136.853405188638135
99160.761356352159055
99185.122490441426635
99209.052245506754844
99231.603930190045503
99251.859367215147358
99268.946018567032297
99282.178096434625331
99291.103051784288255
99295.871364572289167
99297.107467383364565
99295.388232865167083
99172.493089041745407
99170.325522327417275
99159.87078857520828
99146.097023096415796
99138.40282271655451
99145.001641721159103
99167.596067131933523
99198.906864820048213
99226.755213601965806
99240.782605763102765
99238.202704556664685
99224.677569444043911
99209.971267656364944
99201.603246602477157
99201.168112345942063
99204.724313708080444
99206.828203903802205
99205.203465464612236
99202.019714776004548
99201.263196732645156
99204.923755762793007
99210.772493795797345
99213.770867115381407
99209.666471098767943
99197.472453084905283
99179.679963369737379
99160.493057067375048
99143.547873553819954
99131.200452578515979
99124.62943349670968
99123.697459659524611
99127.167623327099136
99133.515901435312117
99141.354931747933733
99150.169733999820892
99160.22698503776337
99046.906237910181517
99045.523409548826749
99046.896377829194535
99051.621285168046597
99060.006514316177345
99072.124805825165822
99087.820278767525451
99106.623886536151986
99127.802510639099637
99150.532001152489102
99174.059125260770088
99197.681071021550451
99220.648545263131382
99242.161439879637328
99261.432351531184395
99277.779968665287015
99290.794907194940606
99300.200871322973398
99306.123018797195982
99309.009599839526345
99309.226332884325529
99148.595328982715728
99135.960059694887605
99126.049467715318315
99127.961264623241732
99147.436726278174319
99182.566134862528997
99223.18787601137592
99255.602504740891163
99269.627545843555708
99263.379209437291138
99242.960265991379856
99218.494256455785944
99199.273055069876136
99188.982308971055318
99185.493717302728328
99183.963266722857952
99181.548228363782982
99179.874116311402759
99182.688577134817024
99192.255173112091143
99206.87239293436869
99221.225241710169939
99228.918581557954894
99225.830843215837376
99211.483645100553986
99188.955478717092774
99162.996953038338688
99139.10782347980421
99121.879450800523045
99113.748466569013544
99114.569385295981192
99122.271135522416444
99134.122679265376064
99148.341465720266569
99051.458136346176616
99055.774434823339107
99063.274491075950209
99074.325216372672003
99088.899439736676868
99106.621694951725658
99126.834306999007822
99148.667993844777811
99171.150953718373785
99193.34071929359925
99214.494419342663605
99234.09403037573793
99251.778221917542396
99267.284002110827714
99280.423832531829248
99291.20721505554684
99299.701078738391516
99306.201729777138098
99311.046220768708736
99314.286342653256725
99133.753336177367601
99125.262983247084776
99124.938640725740697
99138.938029255383299
99168.762230570428073
99209.016512940928806
99249.165426619554637
99277.813384767156094
99287.068559533174266
99276.083971960266354
99250.532304196036421
99219.726868084151647
99192.84350888087647
99174.679523542712559
99165.485882078719442
99162.109567462510313
99161.670408092642901
99164.981978470575996
99174.161376910706167
99190.082730922236806
99211.23692055795982
99233.043002162972698
99248.407226122610155
99251.359239048775635
99239.159765891017742
99213.271372648494435
99179.551171577550122
99146.128659227964818
99120.403909690852743
99106.978263381664874
99106.367282665290986
99115.848620042743278
99131.571785166990594
99150.75509907900414
99056.917559270106722
99065.114877563668415
99076.545044477301417
99091.562810636751237
99109.985350919232587
99131.062170368953957
99153.603327545308275
99176.218406874904758
99197.604532838682644
99216.734505332758999
99233.040640385414008
99246.470614955323981
99257.366771198037895
99266.330132433140534
99274.001676240499364
99280.981875687008142
99287.668302732796292
99294.449458985167439
99301.503199153055903
99308.520631404637243
99133.516754542186391
99148.691488193522673
99175.222971793584293
99209.082412764095352
99243.114841990012792
99270.107004451012472
99284.543165539726033
99284.081850324568222
99269.324918637008523
99243.675913326704176
99213.072008736387943
99184.229874175260193
99162.611447288989439
99150.848351590480888
99148.574008140843944
99154.170345707912929
99165.664514305855846
99181.860075910852174
99202.009844001033343
99224.514782796410145
99246.544622730449191
99262.333140841466957
99265.962286740366835
99254.078964803367853
99227.568746703705983
99191.930321037390968
99155.523706389329163
99126.83920056502393
99111.408161884159199
99110.132720053908997
99120.181656973014469
99137.531386030968861
99077.456613849455607
99094.029513178247726
99113.959910454883357
99136.623159869937808
99160.7666560014477
99184.742093461740296
99206.827199023391586
99225.546252624961198
99239.935103429001174
99249.734744010434952
99255.422391755724675
99258.057835650062771