/*--------------------------------*- C++ -*----------------------------------*\
  =========                 |
  \\      /  F ield         | OpenFOAM: The Open Source CFD Toolbox
   \\    /   O peration     | Website:  https://openfoam.org
    \\  /    A nd           | Version:  12
     \\/     M anipulation  |
\*---------------------------------------------------------------------------*/
FoamFile
{
    format      ascii;
    class       volScalarField;
    location    "0.0062";
    object      p_0;
}
// * * * * * * * * * * * * * * * * * * * * * * * * * * * * * * * * * * * * * //

dimensions      [1 -1 -2 0 0 0 0];

internalField   nonuniform List<scalar> 
106891
(
99161.324819520872552
99169.481061690763454
99179.968021419816068
99192.899443168207654
99207.824254469684092
99223.762620596418856
99239.461038171342807
99253.567454142277711
99265.099916162333102
99273.442629681288963
99278.109535004594363
99244.28532328903384
99224.561888150084997
99204.213612365740119
99181.489427505264757
99158.555520146168419
99141.341497944435105
99136.036397741743713
99144.515681887642131
99162.970068317765254
99184.481313160868012
99203.021510410588235
99216.178742052128655
99225.362064536122489
99233.054192540701479
99240.150221659670933
99245.23829304141691
99245.861567892032326
99241.262921986577567
99232.738919426570646
99222.20638229198812
99210.520659612826421
99197.381072139731259
99182.327086371617042
99167.338460932893213
99156.658260673168115
99154.165287214913405
99160.448743272107095
99171.32194757979596
99180.439858895275393
99182.565916817155085
99176.331589045614237
99164.851815957721556
99152.84222888367367
99143.609825766281574
99138.362551787548
99136.514887204524712
99136.462197922635823
99136.174983596225502
99093.209793103917036
99105.177831842491287
99115.972222108888673
99125.521956685464829
99133.766343167721061
99140.622638871165691
99146.159522085567005
99150.815068594383774
99155.386855523713166
99160.785131559503498
99167.84675149989198
99177.167461669989279
99189.011452320512035
99203.237082737643505
99219.211238625633996
99235.958359678523266
99252.169537222958752
99266.603067334435764
99278.17216925919638
99285.90367267964757
99226.507936312671518
99209.877034522651229
99191.277265208263998
99170.853234663969488
99153.19244904248626
99144.137454684852855
99146.301009607966989
99157.159203064278699
99171.2768139304535
99184.103433693817351
99194.436399860569509
99204.479708271537675
99216.757783888024278
99230.958093492328771
99243.617560050479369
99250.798377757484559
99250.539616803303943
99243.807067394009209
99232.55905170396727
99218.177689069736516
99201.164820931866416
99182.149392770050326
99163.779076343053021
99151.017797020147555
99148.302708467541379
99156.644151923203026
99171.904902632319136
99186.770374200219521
99194.799996337547782
99193.227295652963221
99184.153701469287626
99172.590466283058049
99162.772440207307227
99156.754139862401644
99154.627804967429256
99155.237637485246523
99094.735271122030099
99106.884878863958875
99117.847270366037264
99127.404845778059098
99135.413807393793832
99141.883467497405945
99146.982094151098863
99151.10000240818772
99154.934164935461013
99159.420385396297206
99165.485315567450016
99173.827661431365414
99184.776080966737936
99198.254090387708857
99213.74797964298341
99230.452013515605358
99247.255993372426019
99263.052266702216002
99276.707718382866005
99286.988602809593431
99236.452798859580071
99225.161479759262875
99210.081335851820768
99190.512247958235093
99170.487201480122167
99155.799867033914779
99150.130911450687563
99152.316784791299142
99158.018831728288205
99163.847882204237976
99169.678991534034139
99178.169576773769222
99191.831061280987342
99210.281652721241699
99229.69955685165769
99245.020994014106691
99252.769681985329953
99252.015139601877308
99243.463612477236893
99228.593156951479614
99209.020738239574712
99187.104628794681048
99166.652686405897839
99152.591041794483317
99149.344003343139775
99157.721690273916465
99173.986466819929774
99191.154271425228217
99202.417547719640424
99204.508818556161714
99198.781353542377474
99189.593356607510941
99181.4882881144149
99176.661069836540264
99175.535810454341117
99177.072419201838784
99103.382958379239426
99115.276426132360939
99125.888336707605049
99134.789151836084784
99141.734942656534258
99146.809686547159799
99150.463019265094772
99153.470528852863936
99156.841043806474772
99161.637945612543263
99168.728353583646822
99178.584045969022554
99191.188042989539099
99206.020135623519309
99222.237421361831366
99238.706202406800003
99254.387796500392142
99268.363816923563718
99279.684493023072719
99249.111416928644758
99234.265056948905112
99212.272559856981388
99187.912460259176441
99167.489107627960038
99154.873997654969571
99149.277924330730457
99146.968776478388463
99145.286783928007935
99144.970917583050323
99149.418316454612068
99161.458453072962584
99181.136477730251499
99205.297177873377223
99228.877476089735865
99246.653227738366695
99254.90693751804065
99252.283379121290636
99239.747093588783173
99220.002283027512021
99197.2766181196057
99176.223792419725214
99161.529306811877177
99156.643135959937354
99162.171035738370847
99175.354465424010414
99190.660035694832914
99202.380568836641032
99207.397340980227455
99206.261500842752866
99202.012294511441723
99198.10276639003132
99196.39095899957465
99197.065765795559855
99082.163897210732102
99095.954688866055221
99109.396966209882521
99121.696583191762329
99132.125064714506152
99140.186637366219657
99145.798855863511562
99149.374456227888004
99151.763958067094791
99154.083113662622054
99157.524194602941861
99163.109260238081333
99171.465141202497762
99182.682918917009374
99196.268969803088112
99211.353039063644246
99226.758454048700514
99241.447096813702956
99254.610802042676369
99265.611518064091797
99275.630950451159151
99257.044796266971389
99229.75865593526396
99200.998541757347994
99177.277111948671518
99161.023025998336379
99150.248497510692687
99141.168691528597265
99132.272202692111023
99125.232297502559959
99124.160797765332973
99132.487532623359584
99150.843417622818379
99176.906871723098448
99206.018242776859552
99232.017839131061919
99249.09630616272625
99253.955330865850556
99246.67946903797565
99230.483579612133326
99210.230131392512703
99190.744849534108653
99175.792243222880643
99167.749738661834272
99167.47865293524228
99173.979974193513044
99184.388010518159717
99194.976420629915083
99203.032931397334323
99207.79643252833921
99210.29090951908438
99212.063968191359891
99214.166781556559727
99087.416985469433712
99102.61416214001656
99116.774875180519302
99128.784932115144329
99137.976733482646523
99144.239321013403242
99148.024285064078867
99150.252358601617743
99152.100540928455302
99154.759418487534276
99159.202789890478016
99166.019058080302784
99175.347868382916204
99186.822493132960517
99199.715914170825272
99213.019179728202289
99225.834454207040835
99237.488471374861547
99247.531289645237848
99271.428901742605376
99239.804510884467163
99208.982799288845854
99185.270417817329871
99169.058873222558759
99156.60335582488915
99143.456778044768726
99129.281666331124143
99117.08160504650732
99110.955411606351845
99114.610108095963369
99129.393112607067451
99153.603688929462805
99182.537907579768216
99210.195048534646048
99231.1992016594304
99241.925984066154342
99241.685095060965978
99232.771447649138281
99218.942197073687566
99203.788810997313703
99189.784728226979496
99178.626262427758775
99172.040349845367018
99171.389136219047941
99176.680148250117782
99186.2135778535594
99197.523447835235856
99208.302931326354155
99217.232436183767277
99224.304046982244472
99230.105210063673439
99080.766753156582126
99097.423395477730082
99113.23540770780528
99126.738257759963744
99137.012339131571935
99143.882583670521853
99147.894863859095494
99150.117236265548854
99151.832983669650275
99154.228047479977249
99158.146187273989199
99163.967060786759248
99171.655231901037041
99180.818829161580652
99190.90698591475666
99201.231746009492781
99211.235295248858165
99220.559356638244935
99229.005464132525958
99242.963880203707959
99213.864572020247579
99193.079661521842354
99179.47947008171468
99168.4046117177204
99155.670104416683898
99140.429781558239483
99126.50588015341782
99118.478538209121325
99118.34098295091826
99126.421364424400963
99142.44747575079964
99163.446144455025205
99184.418809146081912
99201.843087258210289
99213.881438964133849
99220.006340525709675
99220.554958756561973
99216.719750001226203
99209.410811382462271
99199.288534815044841
99187.806638984242454
99177.917981227335986
99173.124782269456773
99175.629540048583294
99185.169196072951308
99199.083564235086669
99213.824802630886552
99226.642355856849463
99236.922903929385939
99093.889011115912581
99110.501893448003102
99125.294638899518759
99137.154767238971544
99145.621246770577272
99150.943255113699706
99153.969939876842545
99155.878361713155755
99157.864039744235924
99160.881384125692421
99165.448541366917198
99171.599931756456499
99178.937685331111425
99186.912658424596884
99194.93147120665526
99202.577550144385896
99209.664660634094616
99216.172024135681568
99218.740220478604897
99201.786332814081106
99192.492750750883715
99186.229346778127365
99178.272434460071963
99166.961156814912101
99155.865972537401831
99148.115041278113495
99145.938162622333039
99147.170653397304704
99148.995649395641522
99151.292605840921169
99155.010260387760354
99161.70499050412036
99172.044100652186899
99183.811619750456885
99194.250141587923281
99201.892276572878473
99204.854897991725011
99202.251183800763101
99195.395842828482273
99187.970525412500137
99184.366593418482807
99187.67549772055645
99197.881523993753945
99212.393386733849184
99227.902435663578217
99241.460091182234464
99091.393572226996184
99107.01952414297557
99122.120845216224552
99135.590640169742983
99146.589914581360063
99154.719003124802839
99160.11292227038939
99163.402618263862678
99165.540850633769878
99167.556861641845899
99170.29636509437114
99174.261911702415091
99179.516421452950453
99185.790130694527761
99192.557496810535667
99199.278743817470968
99205.565100523759611
99211.205562924063997
99211.060499967061332
99205.360060295206495
99204.522563794133021
99204.122236039664131
99202.091995211521862
99197.965121809815173
99193.821440175204771
99189.825942598748952
99183.088359453657176
99171.054587701175478
99154.885255094894092
99140.286220190813765
99132.549466908647446
99133.979068525150069
99144.655996609581052
99162.140012701798696
99180.86628011650464
99196.127500350135961
99205.409650180270546
99209.177381363479071
99210.140309271722799
99211.943540427571861
99217.292874344435404
99226.961229691441986
99239.357631718652556
99251.732272385270335
99262.674265108289546
99104.251506964457803
99118.343011805351125
99132.478523498139111
99145.528741807298502
99156.499283999248291
99164.759437380125746
99170.210446930417675
99173.315280703260214
99174.96945105062332
99176.241367005975917
99178.106182313655154
99181.168825722546899
99185.599100329491193
99191.124739298596978
99197.178342085506301
99203.169178681171616
99208.621899012578069
99226.315592835468124
99218.819851791282417
99216.22655266111542
99219.847884809350944
99227.914153698569862
99236.888161636059522
99243.565995189419482
99245.010805994927068
99238.058917983726133
99222.832264355994994
99201.024248826535768
99175.980297458561836
99152.969904525700258
99137.133226407953771
99131.993792594934348
99138.617751674202736
99155.314758557375171
99177.898170015992946
99200.768612966581713
99219.003098417815636
99230.559210971594439
99236.870662638481008
99241.572184827862657
99247.992713836472831
99257.097563757197349
99267.462281776533928
99276.76155377177929
99116.878167804257828
99130.38021236890927
99144.005008085136069
99156.345490526378853
99166.280640869081253
99173.230365538052865
99177.259214834455634
99179.021987512373016
99179.565991136594675
99180.027081486681709
99181.303541207962553
99183.878327090176754
99187.749957878317218
99192.506848927470855
99197.621439819617081
99202.602682143231505
99220.933529170724796
99220.709004766060389
99223.431659128851607
99231.202368962243781
99244.421320747220307
99259.898464832032914
99272.183902453645715
99275.788830228659208
99267.9365511303331
99250.583153086176026
99228.389878267829772
99206.112127895568847
99187.077545451218612
99173.373056865937542
99166.992530599804013
99170.000763730888139
99182.882750144271995
99202.990947642276296
99224.827896653208882
99242.627610314069898
99253.328384061911493
99258.07976781387697
99260.9040555220854
99265.696141716849525
99273.932876896564267
99284.138860120496247
99293.170197920262581
99297.946508272478241
99131.910352049744688
99144.063612946731155
99155.557249141769717
99165.202779957617167
99172.247965202477644
99176.51630981596827
99178.393464138949639
99178.677891808576533
99178.359990075361566
99178.305212118866621
99179.094568993954454
99180.952340853211354
99183.777226536185481
99187.355844576261006
99191.437908591804444
99217.052814297916484
99225.748384000296937
99239.318673318703077
99256.689508665396716
99274.400195601949235
99286.822036146360915
99289.148480912364903
99280.724960176681634
99265.255134074264788
99248.215676478706882
99233.903358190640574
99223.400704378043883
99215.85184742778074
99211.707032947029802
99213.515954608374159
99223.372560917559895
99239.795162474169047
99257.506048735507648
99270.417612287506927
99275.417597168052453
99274.126256269664736
99271.621669732689043
99272.918931148422416
99279.927940468245652
99290.759325382154202
99301.191196263156598
99306.215997484119725
99147.384309469576692
99157.003801870901952
99165.229141037561931
99171.330297234293539
99175.037118743915926
99176.552797870623181
99176.42598255664052
99175.382485804817406
99174.145737644357723
99173.336014964690548
99173.38977569299459
99174.470496388792526
99176.619382037577452
99179.808071067804121
99224.777873807979631
99244.172874447554932
99265.165932787756901
99282.669723668383085
99291.898744854319375
99291.041660342118121
99282.905735688415007
99272.73056430539873
99265.154700205210247
99261.843868160824059
99260.994730874546804
99260.012592888262589
99259.063864846742945
99261.365343853409286
99269.766759010788519
99283.053764391181176
99295.638782912297756
99301.338052588253049
99297.73304513131734
99287.786900270366459
99278.018146063011955
99274.573751623014687
99279.826493619490066
99291.384828088179347
99303.532522252950002
99309.915434852126054
99162.525926210757461
99168.590604642377002
99172.932554883504054
99175.300039392532199
99175.766121476801345
99174.669441955702496
99172.549347490712535
99170.050272622058401
99167.799605134830927
99166.319641156704165
99165.928265660986654
99166.866837894645869
99169.280356367555214
99246.009607494750526
99268.655210243930924
99283.60835035207856
99287.791682463590405
99283.615443141505239
99277.269920230799471
99274.795024535575067
99278.792474907182623
99287.229018093261402
99295.1762465981883
99299.070955907300231
99299.976258802053053
99302.516110738841235
99310.226248497405322
99321.586498441130971
99330.400116581295151
99330.107460934610572
99318.727083919482538
99300.566474795487011
99283.513357393137994
99274.765795010258444
99277.301531331570004
99288.784601677238243
99302.036400808836333
99309.86742151962244
99176.771657745499397
99179.172283535517636
99179.783984539215453
99178.65465526060143
99176.073330779865501
99172.540792671046802
99168.661075298237847
99165.043856102100108
99162.261711052429746
99160.744931641995208
99160.831260989478324
99162.699465079247602
99266.34735545712465
99277.093538126646308
99276.444129835712374
99270.372593424341176
99267.482735939905979
99273.758289773628348
99289.123159733513603
99307.697750524326693
99322.052136801969027
99328.492651284657768
99329.326154352645972
99330.628718556385138
99336.88033915834967
99346.827392998704454
99353.947319726939895
99351.12576120479207
99335.90824028220959
99312.674822806482553
99290.180932907460374
99276.788525816387846
99275.999203508501523
99285.622843299322994
99298.619901150115766
99306.559266736527206
99263.936736957621179
99260.480180914222728
99255.295862877246691
99257.355631047277711
99271.381785330653656
99295.144520130270394
99320.557536789041478
99338.786127734638285
99345.886753351674997
99344.986369000791456
99343.406358889988041
99347.049620595265878
99355.703796098649036
99362.948364861193113
99360.961854671055335
99346.338710478958092
99322.588365008137771
99298.244989787926897
99281.78350329096429
99277.7961616783723
99284.189927358238492
99294.815202517449507
99301.638679591022083
99241.129736810282338
99249.251854379355791
99269.135448119021021
99297.103724820670323
99324.746309721682337
99343.662085210846271
99350.141480464240885
99347.165432461479213
99342.228648149379296
99342.219462732668035
99348.922624436789192
99357.36703148621018
99359.401730786426924
99349.567337470842176
99329.4888435305038
99306.651768504350912
99289.495970544288866
99282.757122084047296
99285.548371097873314
99292.337836478283862
99295.843243027688004
99320.515019691592897
99337.328833975581801
99341.927827230232651
99336.588367498174193
99328.53539274961804
99325.421511698834365
99330.287848487845622
99339.897551211513928
99346.186273917177459
99342.826667091881973
99329.473727685734048
99311.586880909249885
99296.50034964409133
99288.968926107787411
99288.781102560111322
99291.145006787643069
99289.778543042033562
99306.364978639641777
99301.036934128613211
99304.455128198402235
99314.564010158108431
99324.452944201169885
99327.534772403276293
99321.824806215299759
99310.661699888310977
99299.886057337353122
99293.716660838181269
99291.968333160417387
99290.423288031539414
99283.77837620160426
99272.667415662406711
99274.973361334181391
99284.733711428401875
99296.810612305547693
99305.041911292821169
99306.401547865971224
99302.465329890896101
99297.367426466371398
99294.274486199385137
99292.66225106055208
99288.522273654452874
99277.199220663387678
99155.267828198615462
99141.820283508961438
99127.273302892426727
99109.365169154159958
99088.505575255097938
99066.866130874856026
99046.893330111546675
99028.202721766821924
99007.968916639918461
98983.856215755906305
98958.270060458075022
98938.062198863844969
98928.977964694262482
98932.062043106023339
98942.651581190148136
98954.643776862401864
98965.756422258578823
98977.752297752347658
98992.842843082325999
99010.722125155749382
99199.590220722544473
99179.366340196225792
99157.769487139186822
99134.045587945816806
99109.104887746696477
99085.116968232032377
99063.233425700396765
99042.903882841244922
99021.843289575030212
98997.049533885845449
98968.055582192100701
98939.529671463111299
98918.857789761110325
98910.840321319614304
98914.564662191565731
98925.825623500611982
98939.842444559020805
98955.342581042277743
98973.43292489706073
98993.346420232061064
99012.649386969089392
99028.716035754827317
99260.32045891895541
99245.59296003455529
99225.94958359512384
99201.463034501473885
99171.910808608488878
99139.519798507142696
99108.048285268741893
99081.251326981873717
99059.51876781147439
99039.511047861917177
99016.40574533578183
98987.22527218767209
98953.82683595168055
98922.763091319982777
98901.942425642424496
98894.918171509547392
98899.440651534503559
98910.941316689481027
98926.844572568312287
98946.507415541433147
98970.34039958602807
98994.795242608553963
99015.093919292208739
99028.545265746710356
99036.944946245756
99043.512182792459498
99285.179341796174413
99280.74838860683667
99268.998378512667841
99249.289680661531747
99220.927020759350853
99184.253286428443971
99143.715678871580167
99106.441725367491017
99077.269482318399241
99056.097523086995352
99036.688530796411214
99011.764442139989114
98978.769256893414422
98941.302313175605377
98908.155545997986337
98887.345628011476947
98881.389050655707251
98886.53220745298313
98898.258582163514802
98915.601805829719524
98939.205165711071459
98968.277395651530242
98996.881673446958303
99017.834204825820052
99028.683791922536329
99033.199881544467644
99036.88720201094111
99041.87228812041576
99292.364622310939012
99299.046866766613675
99298.080776769042131
99288.889227365885745
99269.381936810925254
99237.611595162103185
99194.501491156377597
99146.760433686096803
99104.293740514622186
99073.351530512518366
99052.846640985269914
99034.185748574469471
99008.127663221705006
98971.782388416308095
98930.851682496562717
98895.884788075927645
98875.250295681020361
98870.147464556968771
98875.976155222320813
98887.777284156501992
98906.242074507914367
98933.320767030425486
98967.019463498567347
98999.280760032663238
99020.662188449234236
99029.098809962466476
99030.085763982715434
99031.326963317827904
99035.478720835031709
99039.819207372085657
99285.768419601299684
99301.090035122062545
99310.156761776481289
99312.09536425465194
99305.13329350038839
99285.848208120762138
99251.271886804446694
99202.834578215319198
99149.10567184703541
99102.197994571994059
99070.252988174732309
99050.649232990268501
99032.817368847143371
99005.716945817446685
98966.288709787506377
98922.150532697080052
98885.537557450763416
98865.197258821892319
98861.201820515823783
98867.34720470343018
98879.426237086081528
98898.613100780072273
98928.764861165938783
98966.535453209464322
99001.868398551159771
99023.64303302137705
99029.854677429713774
99027.708457858403563
99026.845736410614336
99030.511342744983267
99035.133524193181074
99035.82650254125474
99291.021089898131322
99307.659454355860362
99318.579592986410717
99322.845241070332122
99317.727844866501982
99298.715708677511429
99261.963341599155683
99209.277119570731884
99150.58747302442498
99100.229116070346208
99067.363087848265423
99048.903725442505674
99031.95727041111968
99004.067439085032674
98962.215534566741553
98915.515415405199747
98877.590116241844953
98857.594288084612344
98854.466452430380741
98861.059110701724421
98873.046893884835299
98892.88258558898815
98925.32839783707459
98966.520815568947
99004.303501039437833
99026.423478849217645
99030.661116046714596
99025.930251827347092
99023.361921785486629
99026.750076143594924
99031.77470099281345
99032.609739347593859
99027.820657225791365
99206.479426691570552
99221.088502416430856
99221.297774776350707
99199.149802890853607
99155.062599876415334
99118.939575881726341
99294.504251694190316
99311.983998594878358
99324.156017182060168
99330.071823832302471
99326.260685953631764
99307.51312963986129
99269.249201374113909
99213.529389845236437
99151.351148275396554
99098.674630355511908
99065.249964195478242
99047.789367483826936
99031.540430428693071
99002.998226314855856
98959.448322766605997
98910.842232197173871
98871.953556924083387
98852.207646624665358
98849.897684352356009
98856.768265724764206
98868.676192088489188
98889.024943407421233
98922.988780046667671
98966.825719813816249
99006.438263352581998
99028.609240327641601
99031.323504325613612
99024.735703426296823
99020.951409180168412
99024.207028303368133
99029.614769058389356
99030.590051834195037
99025.633862142887665
99018.373778489680262
99179.712807531817816
99210.826733313297154
99226.018490788759664
99225.116023354654317
99201.047739972505951
99154.945881433901377
99116.891945706636761
99296.486230007445556
99314.367272845091065
99327.207953492514207
99333.957255521891057
99330.725681570373126
99312.003819487683359
99272.925736273056827
99215.632148477758165
99151.636027912725694
99097.607470084753004
99064.175049234720063
99047.279910151846707
99031.334590246537118
99002.470717176969629
98958.05242751899641
98908.369516245569685
98869.020207986046444
98849.502027334325248
98847.557722512996406
98854.664448383351555
98866.423193005204666
98887.072219968933496
98921.777088194081443
98967.214527638207073
99007.84972960097366
99029.885237474387395
99031.753356207118486
99024.146931034934823
99019.761581302882405
99023.025514514185488
99028.633569680285291
99029.675676725528319
99024.578221593983471
99017.195938545628451
99012.731520105095115
99155.762322783542913
99180.038294055790175
99203.393724172055954
99224.828602657857118
99243.472249621132505
99258.528087143175071
99269.478315849992214
99276.177165939006954
99279.056665713884286
99278.869864146516193
99276.25612656174053
99192.271587737879599
99197.45304705981107
99190.864163827471202
99175.619057081828942
99160.734773905904149
99155.356106548817479
99163.386768368349294
99181.050317403074587
99199.272612330736592
99209.675607922588824
99209.68512353625556
99203.44610321286018
99198.859372539518517
99201.245611057529459
99209.992811589792836
99219.860507066987338
99225.553451561587281
99225.758425687046838
99222.993481343481108
99220.768988910713233
99219.973281901111477
99217.670035970571917
99209.698029173101531
99194.396275251740008
99173.751023669377901
99152.501060304624843
99135.484667556360364
99125.647057092530304
99123.068957655181293
99125.894618865466327
99131.663985519902781
99138.243506369923125
99144.360775044508046
99149.661140328084002
99154.526269257679814
99159.621696831396548
99042.428461686431547
99038.852222136847558
99038.392417158349417
99041.61541319306707
99048.90948797231249
99060.403009928093525
99075.76344168894866
99094.324673395938589
99115.359587664075661
99138.209235113870818
99162.233508219986106
99186.670104723918485
99210.618144511405262
99233.112240945745725
99253.221453004007344
99270.079342724071466
99283.025845894560916
99291.64307338425715
99296.118526949518127
99297.109863613019115
99295.223161606496433
99172.772843060505693
99170.297435917585972
99159.5951161597186
99145.87650981733168
99138.60270904652134
99145.829669864891912
99168.931172320561018
99200.333600943820784
99227.805639354352024
99241.191590314178029
99238.051362639060244
99224.313194730901159
99209.768051965889754
99201.749897419125773
99201.606692317101988
99205.240060509255272
99207.238486537098652
99205.489510328668985
99202.296230737410951
99201.652283615068882
99205.428696475704783
99211.254761025687912
99214.053244553258992
99209.65969786614005
99197.224134621006669
99179.333442086732248
99160.194123017397942
99143.390565092864563
99131.223603943028138
99124.836568864397123
99124.047363305391627
99127.610724267666228
99134.003664377712994
99141.867134809406707
99150.717221272105235
99160.825136585641303
99046.46796234959038
99045.251340355971479
99046.838545750128105
99051.801861892250599
99060.425249129883014
99072.761913742797333
99088.648580969267641
99107.620643275455222
99128.948556346600526
99151.805333188385703
99175.430997628252953
99199.114992874790914
99222.098356243062881
99243.56962315790588
99262.728550909567275
99278.887694456760073
99291.649942049465608
99300.767650353853242
99306.402120433936943
99309.035762877756497
99309.064317976750317
99148.452578854630701
99135.780810997108347
99126.177107639930909
99128.707743611885235
99148.87618473044131
99184.433936867717421
99224.965303622564534
99256.787387656193459
99269.978617340326309
99263.010209588654106
99242.226684754437883
99217.823039796800003
99198.945186630808166
99189.026770327662234
99185.751253431677469
99184.248488829849521
99181.822583107161336
99180.241699969308684
99183.285335717097041
99193.10704990864906
99207.845485402431223
99222.082812897584517
99229.447502419905504
99225.935467816219898
99211.206506813527085
99188.440389484210755
99162.424777217805968
99138.669789021310862
99121.707245294004679
99113.889024903037352
99114.98834744769556
99122.884726708376547
99134.857796812968445
99149.160217609620304
99051.263745935502811
99055.761177864726051
99063.480189388603321
99074.763899028373999
99089.560843403247418
99107.473953005770454
99127.832106995178037
99149.763436295135762
99172.299050864545279
99194.502745816193055
99215.63774455980456
99235.190914243357838
99252.805473932341556
99268.218504954944365
99281.236966291879071
99291.866965922512463
99300.180587247712538
99306.488365427183453
99311.145845337567152
99314.224342096742475
99133.749831034961971
99125.463914037783979
99125.608400152908871
99140.237727019266458
99170.595735069713555
99211.034212278638734
99250.888752448634477
99278.835197618798702
99287.209278785478091
99275.475599674609839
99249.514360387314809
99218.71546824912366
99192.140876470177318
99174.390513345075306
99165.539455107151298
99162.353922382899327
99162.051468870078679
99165.572354425879894
99175.029142594139557
99191.224766341925715
99212.540976115808007
99234.267556267979671
99249.275836166212684
99251.680014971381752
99238.88162330747582
99212.521495314940694
99178.605717550308327
99145.297593538474757
99119.929774382457254
99106.978742539489758
99106.805359900419717
99116.605872042520787
99132.52408688054129
99151.825279306212906
99056.922107833117479
99065.266468311019707
99076.89326813815569
99092.127533627237426
99110.74918974081811
99131.975672192755155
99154.597400848855614
99177.217922909214394
99198.542732716276078
99217.564365777812782
99233.739968572204816
99247.039150333410362
99257.822310840128921
99266.70256848585268
99274.32171125766763
99281.269902275278582
99287.929146988928551
99294.674780829722295
99301.675247057894012
99308.618252152009518
99134.410940493515227
99150.043507364665857
99176.945540582208196
99210.923022745264461
99244.75230827757332
99271.254741611657664
99285.037436745435116
99283.910813673268422
99268.601204727005097
99242.627855765633285
99211.990142828362877
99183.378902829383151
99162.158680642896798
99150.823988818898215
99148.925277224610909
99154.810671019629808
99166.527590291108936
99182.914703318107058
99203.226314247571281
99225.818682161770994
99247.761378568029613
99263.202535108546726
99266.27336223248858
99253.75811784096004
99226.726901677975547
99190.84071139342268
99154.528798174491385
99126.23807445410057
99111.341641678707674
99110.570911355884164
99120.994340632227249
99138.581404553580796
99077.927105207694694
99094.665342486769077
99114.761420985829318
99137.551124902063748
99161.747120561718475
99185.681329178376473
99207.632855523828766
99226.148064418171998
99240.299347558277077
99249.869934788599494
99255.372198786586523
99257.885949945135508
99258.848213064920856