/*--------------------------------*- C++ -*----------------------------------*\
  =========                 |
  \\      /  F ield         | OpenFOAM: The Open Source CFD Toolbox
   \\    /   O peration     | Website:  https://openfoam.org
    \\  /    A nd           | Version:  12
     \\/     M anipulation  |
\*---------------------------------------------------------------------------*/
FoamFile
{
    format      ascii;
    class       volScalarField;
    location    "0.0062";
    object      pPrime2Mean;
}
// * * * * * * * * * * * * * * * * * * * * * * * * * * * * * * * * * * * * * //

dimensions      [2 -2 -4 0 0 0 0];

internalField   nonuniform List<scalar> 
106891
(
150593.1089973449707
150604.34530830383301
150619.84823989868164
150637.7706413269043
150663.42077255249023
150701.0086727142334
150760.52688026428223
150842.2849063873291
150950.9494457244873
151088.14278221130371
151238.61478042602539
500741.63222122192383
499051.05043601989746
497373.04317474365234
495703.31760597229004
494036.10739517211914
492363.95224380493164
490679.48796272277832
488977.25629234313965
487256.21222305297852
485520.76172256469727
483776.75775718688965
482026.83557319641113
480270.79606819152832
478509.17012786865234
476743.47941780090332
474974.10151100158691
473201.61930274963379
471429.04021644592285
469661.13986206054688
467903.51584243774414
466162.27287292480469
464441.13443183898926
462740.9127025604248
461062.9461784362793
459411.09187126159668
457789.74748229980469
456200.80738258361816
454643.65083885192871
453117.00994873046875
451618.46320724487305
450141.54051399230957
448676.39264869689941
447216.1976318359375
445761.18570137023926
444313.80167770385742
442871.58757972717285
441427.20946884155273
439974.26270866394043
151316.87556457519531
151144.48031425476074
150991.70100212097168
150856.92657470703125
150741.44984436035156
150648.99247169494629
150583.5111141204834
150546.32468223571777
150533.84492874145508
150538.06027030944824
150548.85130882263184
150559.1539363861084
150565.97034645080566
150574.15066337585449
150588.68081283569336
150620.57223129272461
150672.2021484375
150749.46375846862793
150854.88395690917969
150973.4092960357666
499009.97895431518555
497324.04645156860352
495647.32727432250977
493970.94321060180664
492287.91206741333008
490594.59390830993652
488889.2443962097168
487172.90395164489746
485450.98983764648438
483729.05183601379395
482006.67569541931152
480279.73957252502441
478546.66434669494629
476808.79673004150391
475066.02140998840332
473317.15436935424805
471564.10375022888184
469812.82682800292969
468071.23943138122559
466346.39252471923828
464641.7185230255127
462958.31006240844727
461298.83874702453613
459667.74501419067383
458067.99948501586914
456498.60038566589355
454955.61465454101562
453435.22378540039062
451934.22180938720703
450446.85775566101074
448963.5073184967041
447475.76102638244629
445982.7469367980957
444489.97556114196777
443001.65120315551758
441515.66651344299316
151367.92178153991699
151190.43789100646973
151030.6882266998291
150886.41108894348145
150759.2889404296875
150654.06889152526855
150575.81159400939941
150526.59460639953613
150503.1563606262207
150497.47216987609863
150499.17273902893066
150500.38010787963867
150496.90399932861328
150491.89729118347168
150489.22762298583984
150499.07205200195312
150524.56434059143066
150572.29786682128906
150645.84639549255371
150731.16643142700195
499175.68867492675781
497454.34572792053223
495738.72464370727539
494019.38852882385254
492293.37931060791016
490563.6466121673584
488833.11419105529785
487104.41542434692383
485382.3373908996582
483670.18007850646973
481964.47862243652344
480258.75957679748535
478551.31750106811523
476844.2955207824707
475136.50480079650879
473422.85157012939453
471701.88907432556152
469980.01588249206543
468267.54685020446777
466572.71412086486816
464899.36306571960449
463249.13530921936035
461624.08009719848633
460025.99470710754395
458454.13697052001953
456905.11788368225098
455373.81698989868164
453855.54331398010254
452347.11386871337891
450844.48481559753418
449339.47838020324707
447822.61122131347656
446291.19545745849609
444752.44582557678223
443216.18607330322266
441685.41891098022461
151297.16646575927734
151130.423828125
150980.00151252746582
150845.17032814025879
150728.56778144836426
150634.04675102233887
150563.88606071472168
150516.48534202575684
150486.27070617675781
150465.29176330566406
150447.05941772460938
150427.5303840637207
150408.44349670410156
150391.86075973510742
150385.77644920349121
150392.56223106384277
150418.35805702209473
150467.15922546386719
150526.03054428100586
497815.41938591003418
496033.31632041931152
494243.23709678649902
492449.47612571716309
490662.28836250305176
488888.72393608093262
487131.42402839660645
485393.08998489379883
483674.78314971923828
481972.04044532775879
480278.72481918334961
478593.58086395263672
476918.68806838989258
475251.39409828186035
473583.32942008972168
471909.08604049682617
470232.97616577148438
468565.65608978271484
466915.99141883850098
465287.86805152893066
463682.32143974304199
462099.21951103210449
460537.02713775634766
458993.53679275512695
457466.09337425231934
455950.17189025878906
454439.0905933380127
452927.04653358459473
451409.89878845214844
449881.48480796813965
448333.7922477722168
446764.36151885986328
445181.54864692687988
443598.79642868041992
151732.17261695861816
151519.50575065612793
151334.30509948730469
151171.1198902130127
151026.32663536071777
150898.74955749511719
150789.00325393676758
150697.9301872253418
150624.64594268798828
150565.92410469055176
150516.76098251342773
150473.10567855834961
150432.25716972351074
150395.55484390258789
150363.74814033508301
150342.54965591430664
150333.05488967895508
150340.4168643951416
150368.83238983154297
150406.67721366882324
498458.30732727050781
496595.76294708251953
494723.73930358886719
492852.4598274230957
490997.20205497741699
489168.38572311401367
487369.31203651428223
485600.71378707885742
483862.75949859619141
482153.08036994934082
480467.31015777587891
478802.70032501220703
477157.96506500244141
475528.60580635070801
473905.79179763793945
472282.90738487243652
470662.33464813232422
469052.48028564453125
467459.6395435333252
465885.02175903320312
464326.90383148193359
462782.47941970825195
461249.82378959655762
459730.03466033935547
458225.17354774475098
456731.99319839477539
455239.74772453308105
453735.77949333190918
452211.78447151184082
450663.04076194763184
449085.56853103637695
447480.35977554321289
445858.31789970397949
151944.90292549133301
151727.63635444641113
151537.74531745910645
151371.07235908508301
151224.15688323974609
151094.99615097045898
150982.76973915100098
150886.48468589782715
150804.01790428161621
150732.07084846496582
150668.00924301147461
150609.9583683013916
150558.86326026916504
150514.39353561401367
150480.083740234375
150455.52029609680176
150444.61258697509766
150451.72277069091797
150466.83378791809082
497430.23493003845215
495484.18826866149902
493542.78278160095215
491622.6367130279541
489736.75714683532715
487890.05748176574707
486082.29753303527832
484313.16368293762207
482582.90456962585449
480890.45262908935547
479232.63266944885254
477604.57418060302734
475999.48895645141602
474409.67608070373535
472830.63129043579102
471263.99504661560059
469713.86042785644531
468180.13037300109863
466657.50818634033203
465140.51117897033691
463627.27586364746094
462120.24788284301758
460625.85891532897949
459149.87682723999023
457688.66409111022949
456225.64177513122559
454739.7583122253418
453217.17706108093262
451654.24733352661133
450052.94171524047852
448420.04642677307129
446769.61541748046875
152630.1920337677002
152378.9952507019043
152156.14675903320312
151958.51560211181641
151782.68145179748535
151626.26336860656738
151488.29251861572266
151368.06567001342773
151264.00813865661621
151173.39461326599121
151093.94013977050781
151023.96080780029297
150963.70538520812988
150911.66157722473145
150869.03432464599609
150833.55389785766602
150807.27401161193848
150794.20119476318359
150785.40536880493164
496476.19257926940918
494473.95351600646973
492494.32882499694824
490552.02752876281738
488654.29265403747559
486800.71569061279297
484989.19176864624023
483220.77794456481934
481498.15339851379395
479821.03693199157715
478184.33217811584473
476580.57637214660645
475003.76997184753418
473451.47492408752441
471923.89094543457031
470419.49155616760254
468930.44519424438477
467445.32009887695312
465957.88471603393555
464471.32526016235352
462993.71864891052246
461532.78343772888184
460091.62448310852051
458662.77407264709473
457226.22042465209961
455757.60165977478027
454241.06564331054688
452674.28045463562012
451064.41588592529297
449423.67139053344727
153302.52157974243164
153048.43673133850098
152819.35024261474609
152612.68084907531738
152426.29670906066895
152259.10363960266113
152110.53370666503906
151979.86002540588379
151865.7604923248291
151767.11264228820801
151682.59127426147461
151611.62670135498047
151551.36056518554688
151500.84306335449219
151456.2550048828125
151417.73069000244141
151388.35981559753418
151359.20366477966309
495621.22396659851074
493582.54080009460449
491584.22824287414551
489635.44633293151855
487735.16184997558594
485877.25318145751953
484060.04708671569824
482288.66418266296387
480567.82715797424316
478896.79683494567871
477272.74578285217285
475692.11044692993164
474150.60275268554688
472643.76202774047852
471164.74410629272461
469700.75284385681152
468237.90908050537109
466771.27650451660156
465307.87037658691406
463858.10746955871582
462426.65254402160645
461010.51291847229004
459599.05062294006348
458173.81689834594727
456713.26249694824219
455202.78459358215332
453641.11954689025879
452037.53641510009766
154551.40140151977539
154268.11179542541504
154009.06989479064941
153772.43942260742188
153555.84709739685059
153357.43942832946777
153176.28508377075195
153012.38187408447266
152866.08671569824219
152737.9929313659668
152627.85109329223633
152534.94968032836914
152455.84573364257812
152388.29526519775391
152327.69954681396484
152272.80771827697754
152226.15393257141113
152178.80253601074219
494976.19434356689453
492925.66586112976074
490927.28911972045898
488979.39731216430664
487074.43751525878906
485210.12040138244629
483392.08053207397461
481626.66593551635742
479917.72134399414062
478266.67336273193359
476671.26262092590332
475125.11710166931152
473621.45187568664551
472153.31614685058594
470708.16947555541992
469269.31524276733398
467827.32170867919922
466385.65324592590332
464952.50742721557617
463530.98405075073242
462117.17317390441895
460701.97450065612793
459271.91987037658691
457812.17703247070312
456311.75354385375977
454767.14780235290527
453182.33723068237305
155887.20064163208008
155601.09379005432129
155334.90423011779785
155086.86856460571289
154855.17083168029785
154638.90970802307129
154438.56462669372559
154255.47212982177734
154091.18793869018555
153945.9066333770752
153818.85447883605957
153706.843505859375
153607.86662864685059
153518.28561019897461
153436.78363990783691
153365.65567588806152
153295.21078300476074
498734.18383979797363
496612.16074180603027
494531.34457778930664
492498.52220916748047
490514.50431442260742
488576.10901832580566
486683.31857109069824
484841.17602157592773
483055.25928688049316
481327.63609313964844
479656.89257049560547
478039.80716896057129
476472.99149131774902
474954.85771751403809
473483.61393356323242
472049.77754974365234
470634.92174911499023
469221.38550186157227
467801.81316757202148
466378.48611831665039
464955.82168388366699
463535.06595039367676
462112.20967102050781
460678.08628082275391
459221.45228004455566
457732.50228691101074
456204.34154319763184
157585.02339744567871
157298.1329288482666
157024.78620338439941
156763.9167423248291
156515.69010543823242
156281.47817611694336
156062.95840835571289
155861.25975608825684
155675.8428783416748
155505.5399112701416
155348.08454704284668
155203.32465553283691
155070.58659172058105
154950.09520530700684
154844.55451011657715
154743.12352561950684
500036.48526191711426
497928.17852592468262
495857.49620819091797
493825.92012405395508
491835.64509582519531
489889.4535083770752
487991.99315071105957
486149.31408882141113
484364.4114875793457
482632.86863327026367
480946.40248870849609
479300.46916580200195
477697.76152801513672
476145.39009666442871
474647.26100158691406
473196.5325870513916
471775.1423397064209
470362.26008224487305
468944.42086601257324
467519.19619560241699
466091.38174629211426
464665.21645164489746
463238.622802734375
461802.73671340942383
460345.81768417358398
458857.32546615600586
457330.42828369140625
455764.90766143798828
159066.27518081665039
158774.1737174987793
158493.22074508666992
158223.62936592102051
157966.14680862426758
157721.29240989685059
157488.91786575317383
157267.83096885681152
157057.34217262268066
156856.90644454956055
156668.37123107910156
156493.13107490539551
156332.1712589263916
156188.28359413146973
156050.94734001159668
499243.27220344543457
497192.60716438293457
495174.13302040100098
493188.82210159301758
491243.57028388977051
489347.30215835571289
487506.79461860656738
485721.74053573608398
483982.12019729614258
482274.58944320678711
480593.68323516845703
478946.72737121582031
477347.32914543151855
475804.04156494140625
474313.17156982421875
472858.9984130859375
471421.33868026733398
469985.44807052612305
468546.79493141174316
467108.49929237365723
465674.04545783996582
464240.88655281066895
462799.66065406799316
461337.34286499023438
459842.25295257568359
458308.62762260437012
456739.42606735229492
160670.08180046081543
160372.12530136108398
160085.57817077636719
159810.1273365020752
159545.04747581481934
159289.24553680419922
159041.32659339904785
158801.1369571685791
158569.17714881896973
158348.30065727233887
158140.9924259185791
157948.55011177062988
157773.85450172424316
157606.55469131469727
498688.98274993896484
496682.73345184326172
494701.67657089233398
492756.18029403686523
490858.84172439575195
489015.77676010131836
487222.86541557312012
485466.60385513305664
483731.21088790893555
482010.73560333251953
480314.90523719787598
478661.11110496520996
477061.37132835388184
475514.96881103515625
474009.55975341796875
472528.16202354431152
471057.3854923248291
469592.03080558776855
468133.14247703552246
466681.86979103088379
465234.48120880126953
463781.69110679626465
462311.0755443572998
460810.42252922058105
459273.20867538452148
457702.09255790710449
162411.29722023010254
162104.21106338500977
161807.58252334594727
161519.78332901000977
161239.31637573242188
160965.09008979797363
160697.45702934265137
160437.33379936218262
160187.76244163513184
159951.57008934020996
159730.37995719909668
159527.63762474060059
159333.69913482666016
498325.48752593994141
496343.72023010253906
494394.46230125427246
492493.5034236907959
490645.77770042419434
488843.00512886047363
487068.61892127990723
485306.19398307800293
483550.12422752380371
481810.44954299926758
480105.70693016052246
478450.14133644104004
476846.21264457702637
475285.62571907043457
473755.44591522216797
472244.5424747467041
470747.06300354003906
469262.04892158508301
467789.08042907714844
466324.10071563720703
464859.06289100646973
463383.03744888305664
461883.35136413574219
460349.98214149475098
458781.62112426757812
164293.2238712310791
163973.5700740814209
163661.85630798339844
163356.75581169128418
163057.77448272705078
162765.48389434814453
162480.43914413452148
162204.98123168945312
161941.76340866088867
161692.96485137939453
161463.06355285644531
161243.41312980651855
498081.72264862060547
496126.84208297729492
494221.5936450958252
492369.13576126098633
490557.25753784179688
488766.92874717712402
486982.48163414001465
485199.65554618835449
483428.05330848693848
481684.83183097839355
479984.54589653015137
478332.36480522155762
476724.43978691101074
475152.47589874267578
473607.44340896606445
472082.11403465270996
470572.88619041442871
469078.45800399780273
467596.26858711242676
466120.88999938964844
464643.13774299621582
463148.99743843078613
461623.59024429321289
460060.18722724914551
497979.88908386230469
496070.46802139282227
494212.22890853881836
492390.38442802429199
490585.02158737182617
488782.37163352966309
486980.05084228515625
485186.43974685668945
483416.11773300170898
481682.73747062683105
479993.94771003723145
478350.16055488586426
476746.73781776428223
475175.71842956542969
473628.17924880981445
472097.89662551879883
470583.51437568664551
469085.47222137451172
467601.04104614257812
466120.8521900177002
464628.02959823608398
463104.2758617401123
461540.95794868469238
496212.64918327331543
494377.50026512145996
492554.89682769775391
490732.40383720397949
488908.92142677307129
487093.08004760742188
485298.27188682556152
483537.76700019836426
481820.72202301025391
480149.99432563781738
478522.76936340332031
476931.50525093078613
475365.77332305908203
473817.52091026306152
472285.7225170135498
470773.26445007324219
469278.30387306213379
467788.92901992797852
466284.96165657043457
464747.88431930541992
463172.14364051818848
490960.77276039123535
489117.31930351257324
487296.46428489685059
485512.2913875579834
483773.47518348693848
482081.89568328857422
480434.3199634552002
478823.86546325683594
477240.65119552612305
475676.4631462097168
474129.78763008117676
472602.76663398742676
471091.67229080200195
469581.44877815246582
468050.72696876525879
466484.50456619262695
464883.51929092407227
485802.63141250610352
484093.93706512451172
482427.36550903320312
480796.94525146484375
479195.25212097167969
477615.24476623535156
476053.97195625305176
474510.38169479370117
472977.19759368896484
471437.02285766601562
469869.8824577331543
468266.31107902526855
466633.42978096008301
486159.51459693908691
484474.79797172546387
482824.22755241394043
481203.88653945922852
479608.46262359619141
478032.50729560852051
476470.30550765991211
474911.2296142578125
473337.80092430114746
471733.41009521484375
470093.86511993408203
468430.33658218383789
669752.25602531433105
668328.66864204406738
666903.5809383392334
665449.1372127532959
663954.35901832580566
662416.3619384765625
660832.07705688476562
659196.95699119567871
657505.16565322875977
655749.67631912231445
653924.90937232971191
652031.00962448120117
650078.01047897338867
648082.56828117370605
646062.04346084594727
644032.31930541992188
642008.43323135375977
640003.1509895324707
638021.82353401184082
636060.73337745666504
672849.16064643859863
671401.79250144958496
669994.76844787597656
668584.80404281616211
667142.83056640625
665657.42172813415527
664124.7911262512207
662541.4436149597168
660901.52445411682129
659197.27974128723145
657420.31982040405273
655564.32794189453125
653631.25395393371582
651635.69429588317871
649600.28504371643066
647546.29819297790527
645489.29070281982422
643441.42810249328613
641413.01230239868164
639409.36972427368164
637428.53759765625
635466.84162712097168
677465.65817070007324
675856.54894065856934
674341.2498664855957
672905.0584602355957
671510.37286567687988
670112.52255058288574
668680.51693344116211
667201.93629455566406
665672.41829490661621
664087.85368728637695
662441.39417839050293
660723.68570709228516
658924.74496269226074
657037.73984909057617
655066.17348670959473
653029.34405517578125
650956.1071949005127
648871.42498397827148
646790.46843910217285
644722.31798934936523
642674.62718200683594
640652.54768943786621
638655.59622192382812
636682.61231422424316
634738.84719848632812
632835.88740539550781
680469.68080520629883
678779.59285545349121
677178.05018997192383
675668.66766929626465
674238.61079025268555
672850.84819602966309
671459.68996047973633
670033.32259559631348
668557.8725414276123
667028.18102836608887
665439.78950309753418
663785.31286430358887
662054.27506637573242
660235.56067848205566
658321.62951278686523
656317.13407707214355
654244.95492935180664
652138.81817626953125
650027.47036743164062
647925.96319961547852
645840.5175724029541
643776.50582122802734
641738.81540870666504
639728.39248847961426
637746.27938270568848
635799.25608444213867
633898.05308151245117
632051.46843910217285
683361.72212982177734
681593.91453552246094
679910.75816535949707
678312.97585105895996
676806.25626373291016
675379.7698974609375
673996.97687149047852
672611.32909965515137
671189.19463157653809
669715.72963333129883
668184.77937126159668
666591.7082691192627
664928.75943946838379
663184.67685127258301
661347.28216361999512
659408.55654907226562
657374.05078315734863
655270.29964065551758
653135.54667282104492
651001.33459854125977
648882.72867202758789
646783.64253234863281
644707.17652893066406
642657.7659912109375
640637.38102912902832
638649.0311222076416
636700.6336555480957
634801.71756744384766
632958.75879096984863
631174.81663513183594
686130.35900497436523
684274.92729949951172
682516.80209732055664
680839.26668739318848
679243.83427810668945
677737.64745140075684
676311.90729713439941
674930.74790000915527
673546.87895202636719
672126.01375579833984
670652.0664234161377
669118.20392417907715
667519.56489753723145
665848.60896873474121
664093.77468872070312
662241.96674919128418
660284.55700302124023
658227.62478256225586
656099.71237754821777
653942.44382858276367
651790.1323070526123
649657.92856597900391
647547.78648376464844
645461.02703475952148
643401.81226921081543
641373.23696136474609
639379.98613929748535
637430.92628860473633
635534.44303321838379
633694.80313491821289
631913.76089668273926
630196.1322078704834
686822.14848709106445
684976.56040573120117
683224.61644172668457
681549.95970344543457
679955.05843353271484
678448.44002151489258
677022.47587966918945
675642.01198768615723
674259.5725040435791
672839.87194442749023
671365.75796890258789
669829.59447860717773
668226.27949333190918
666548.25232124328613
664783.63208198547363
662918.84123802185059
660945.15798950195312
658869.57795524597168
656722.72409439086914
654548.40945434570312
652382.42394256591797
650240.35530471801758
648122.88873291015625
646029.73745155334473
643964.63542747497559
641931.36295127868652
639935.5340633392334
637986.68900108337402
636092.65954971313477
634256.02241706848145
632477.60846900939941
630762.75041007995605
629126.59412956237793
796467.81645965576172
793379.02447700500488
790328.67292022705078
787355.05754470825195
784486.34894752502441
781748.90087890625
687289.8100700378418
685450.78581428527832
683703.13756942749023
682030.39370918273926
680435.40971183776855
678927.38476371765137
677499.83820533752441
676118.30800247192383
674735.13911437988281
673314.50964546203613
671838.84834671020508
670299.74762916564941
668691.99326324462891
667008.56272315979004
665237.53858184814453
663364.83148002624512
661381.56313133239746
659294.98204803466797
657136.42975997924805
654951.02507019042969
652776.19602203369141
650627.68913078308105
648505.23883247375488
646407.52515411376953
644338.26257705688477
642301.6603832244873
640303.98012161254883
638355.32330513000488
636463.12112998962402
634628.67823219299316
632852.11845016479492
631139.32085609436035
629505.89690780639648
627977.59667015075684
799975.47186470031738
796894.49713134765625
793791.20133209228516
790726.9585018157959
787740.74623870849609
784861.18697357177734
782114.48368835449219
687538.92534446716309
685702.93424797058105
683957.0071964263916
682284.58883094787598
680689.23372268676758
679180.4622859954834
677752.06356620788574
676370.0787525177002
674986.63936424255371
673565.51729965209961
672089.04731559753418
670548.30264282226562
668937.94581031799316
667251.21017646789551
665476.22788429260254
663598.64894866943359
661609.56264686584473
659516.58895492553711
657351.76183319091797
655160.82099723815918
652981.51393890380859
650829.85777473449707
648705.36419868469238
646605.97798347473145
644535.12688255310059
642497.35215759277344
640499.22133445739746
638550.98259735107422
636659.90955543518066
634826.85927581787109
633051.38925933837891
631339.86761093139648
629707.97249794006348
628181.53757858276367
626779.0450267791748
150707.05756187438965
150681.10575866699219
150672.30768585205078
150682.11281204223633
150713.24992179870605
150763.34712028503418
150835.02956962585449
150923.13845252990723
151030.13328170776367
151158.68487930297852
151298.00778961181641
499545.41876029968262
497760.09675407409668
495976.3032283782959
494190.85764312744141
492400.68901824951172
490605.09714889526367
488803.44931602478027
486995.12956619262695
485182.99813461303711
483372.24143981933594
481567.30241012573242
479770.37588691711426
477979.96758842468262
476191.41267967224121
474401.45550537109375
472611.88839912414551
470827.22317314147949
469052.05440711975098
467292.00543403625488
465554.79454040527344
463847.57394790649414
462172.75899314880371
460527.59319877624512
458907.60670852661133
457311.75998306274414
455742.90653991699219
454202.11868095397949
452682.72148704528809
451173.18523216247559
449666.5471134185791
448163.99445533752441
446669.50853157043457
445184.57262802124023
443708.00693130493164
442237.02933502197266
440766.8743839263916
151753.50250625610352
151524.26556015014648
151329.4625358581543
151167.54544830322266
151035.29792976379395
150927.95825004577637
150839.81713104248047
150765.34548950195312
150700.63460350036621
150644.09238815307617
150596.59547233581543
150560.07883834838867
150537.50093841552734
150530.0306568145752
150540.09985160827637
150565.76373863220215
150610.04951286315918
150669.11405372619629
150746.08765983581543
150844.10510063171387
150953.04288673400879
499676.22857284545898
497887.10578918457031
496106.25295829772949
494322.87554740905762
492528.91198348999023
490723.79552268981934
488909.98360824584961
487089.67226982116699
485266.84866714477539
483447.63349342346191
481638.37843704223633
479844.28321075439453
478066.53792762756348
476300.35824394226074
474539.66815185546875
472782.87385940551758
471032.3070240020752
469290.1199893951416
467558.5165901184082
465842.43154716491699
464148.71224403381348
462480.93961524963379
460836.67439460754395
459210.64091682434082
457601.33085823059082
456012.97724342346191
454449.09419059753418
452904.65299987792969
451368.59924697875977
449833.94340133666992
448301.51975440979004
446774.7755012512207
445254.95879745483398
443740.50241851806641
442227.11678504943848
440708.23581504821777
151850.75447082519531
151607.40593147277832
151397.65389823913574
151220.43783950805664
151073.50302886962891
150953.10358238220215
150854.05750465393066
150770.4803409576416
150697.23465538024902
150631.08277893066406
150571.46561431884766
150519.66093254089355
150478.5518856048584
150449.70113945007324
150435.77634811401367
150435.44882202148438
150451.91055488586426
150482.06034469604492
150528.99701499938965
150595.5764217376709
150671.78897094726562
498245.54277801513672
496455.86396598815918
494662.50579452514648
492854.21535491943359
491032.82538986206055
489206.25493621826172
487379.99490165710449
485555.92754936218262
483735.75922584533691
481925.05584526062012
480134.05209159851074
478371.65377807617188
476636.23787689208984
474917.26432609558105
473205.32077217102051
471497.05446815490723
469791.92611503601074
468090.58256340026855
466397.66288948059082
464721.21377372741699
463066.11759185791016
461428.68679809570312
459799.87161445617676
458175.36786651611328
456560.82857894897461
454965.04474449157715
453388.44774436950684
451822.69843292236328
450259.76161193847656
448697.61993598937988
447137.3957405090332
445579.32045364379883
444021.28760528564453
442458.42220878601074
151826.69665336608887
151598.61468124389648
151400.96452713012695
151233.03590965270996
151092.7197322845459
150975.89152908325195
150876.68701934814453
150788.91631507873535
150707.68237686157227
150630.83931732177734
150558.82992362976074
150494.54622459411621
150440.50966262817383
150400.40883445739746
150374.15546417236328
150365.298828125
150371.11496734619141
150393.85246086120605
150435.06013107299805
150483.46832466125488
498729.23946189880371
496915.44399261474609
495097.97063446044922
493266.53040504455566
491426.84766006469727
489590.9615421295166
487764.81161880493164
485946.28171539306641
484132.00420951843262
482326.43924140930176
480545.33454132080078
478806.11099624633789
477110.88215637207031
475444.07437896728516
473786.32144927978516
472126.23046112060547
470460.50118064880371
468791.19387817382812
467126.07478141784668
465475.92623329162598
463845.23634338378906
462225.6782054901123
460602.14447784423828
458967.52152061462402
457329.84551811218262
455704.42215156555176
454099.28652000427246
452509.61146354675293
450924.58661270141602
449336.53042221069336
447743.28211402893066
446145.32857322692871
444542.2884578704834
442930.85141944885254
152195.37238311767578
151946.13761329650879
151725.15242576599121
151533.08843803405762
151369.07907676696777
151229.65737533569336
151108.89759826660156
150999.99282073974609
150897.24415969848633
150797.88558959960938
150702.13295936584473
150612.93558502197266
150533.19632148742676
150466.95442771911621
150415.03007888793945
150381.55829238891602
150364.90646743774414
150367.2104606628418
150389.12495040893555
150417.70188522338867
497479.84916496276855
495621.11066246032715
493755.07686424255371
491890.15780830383301
490038.53385925292969
488205.29787445068359
486386.39059638977051
484576.25804138183594
482779.06647682189941
481013.01608276367188
479299.37716102600098
477642.73960113525391
476024.25436592102051
474416.15652656555176
472799.49527931213379
471168.92638397216797
469529.71178245544434
467895.0831413269043
466278.57273292541504
464681.2563533782959
463087.17051696777344
461475.78251457214355
459839.53816032409668
458189.51678848266602
456546.03544425964355
454922.80865669250488
453317.43948554992676
451715.59899520874023
450103.85968589782715
448478.44144439697266
446843.16766357421875
445201.6545581817627
152469.47951698303223
152221.75861930847168
152002.37554168701172
151811.2097053527832
151644.88086700439453
151497.30496406555176
151361.6407356262207
151232.51945304870605
151107.72727584838867
150988.08817863464355
150876.76643371582031
150776.46589469909668
150690.29014778137207