/*--------------------------------*- C++ -*----------------------------------*\
  =========                 |
  \\      /  F ield         | OpenFOAM: The Open Source CFD Toolbox
   \\    /   O peration     | Website:  https://openfoam.org
    \\  /    A nd           | Version:  12
     \\/     M anipulation  |
\*---------------------------------------------------------------------------*/
FoamFile
{
    format      ascii;
    class       volScalarField;
    location    "0.0062";
    object      rho_0;
}
// * * * * * * * * * * * * * * * * * * * * * * * * * * * * * * * * * * * * * //

dimensions      [1 -3 0 0 0 0 0];

internalField   nonuniform List<scalar> 
106891
(
1.1516838417579950971
1.1517521516961786165
1.1518403714116070002
1.1519485162493197095
1.152074352283900982
1.1522069592716652764
1.1523386767462957536
1.1524558367251842572
1.1525498277543915204
1.1526226422575547303
1.1526562057468814348
1.1529913283331993945
1.1528118345299631642
1.1526338545716172668
1.1524438708941917575
1.152258977569414089
1.1521258064997932369
1.1520921290089731759
1.1521698795911792246
1.1523246748960138675
1.1524977520909298612
1.1526392757144787726
1.1527307102514756654
1.1527859921601357751
1.1528281979986614303
1.1528670470877950827
1.1528926012557794145
1.152885557682568507
1.1528399281754639905
1.1527660297010218216
1.1526787411067906941
1.1525837604649322721
1.1524769941346111324
1.1523529972676671562
1.1522266494710156071
1.1521318203605288577
1.1520997579791385501
1.1521349249622627742
1.1522027251694875183
1.1522511264632275818
1.1522376011957613517
1.1521518774583987543
1.152020895609580986
1.1518848715439526931
1.1517723576642582284
1.151694450505716949
1.151647294131962207
1.1516184213839861794
1.151591565092241698
1.1511273120599119224
1.151225469002612023
1.1513137354506595145
1.1513915357650674753
1.1514585162744417346
1.1515138729481038116
1.151558739231162809
1.1515963419610366625
1.1516341249157375781
1.1516790619657395478
1.1517384286755691924
1.151817253237154226
1.1519163740393336681
1.1520364641144980045
1.1521693224711295755
1.152309510958813954
1.1524441808707117652
1.1525619891966640829
1.1526619234607018427
1.1527203988181828898
1.1528836461596376761
1.152723941329813151
1.1525501584072772587
1.1523663247963691347
1.1522114210989184979
1.1521329877600354763
1.1521504963598419025
1.1522403692475142734
1.1523551946511516597
1.1524557621387221396
1.1525316962864555759
1.1526018736972447609
1.1526885575231462511
1.1527909187229992138
1.1528820644122392824
1.1529308620599896251
1.1529219790722169403
1.1528635744858286571
1.1527712541420376269
1.1526551573870209566
1.1525176276653450458
1.1523618875333607736
1.1522080240745684598
1.1520957065800665475
1.1520608058826633524
1.1521114132654397544
1.1522135294358606394
1.152307286102780548
1.1523403502547162613
1.1522909921732402694
1.1521778686637316191
1.152043720705111518
1.1519248370952115401
1.1518393946440743658
1.1517891555742811871
1.1517652959349489183
1.1511398860474049144
1.151239538890834968
1.1513291891502117625
1.1514070567976473214
1.151472109764929197
1.1515242947699610987
1.1515656115294554684
1.151598847858398722
1.1516306000438958357
1.1516680978329170149
1.1517191498503995817
1.1517899317705833084
1.1518814451478351923
1.151995227927668175
1.1521239731464474332
1.152263505443160696
1.1524031954910423092
1.1525321424024064232
1.15264967774582483
1.1527292087211851168
1.1529287265710006505
1.1528215800826020487
1.1526882301779353135
1.1525231639912567605
1.1523584297889519767
1.1522395955869817463
1.1521944392033818261
1.1522110919639316773
1.1522523498980838941
1.1522899770335714997
1.1523237574276550266
1.1523772374196294965
1.1524731127670233555
1.1526101298053774702
1.1527582680793835301
1.1528766994915797817
1.1529370379332881669
1.152931157863281042
1.1528636704095627241
1.1527449115803791724
1.1525860051114591442
1.1524042582769626897
1.1522293863055315111
1.1521010424237114744
1.1520554734680357178
1.1520997079235624216
1.152203681800531232
1.1523108237122174913
1.1523662413050517195
1.1523443676459055318
1.1522577905548281318
1.1521438230308571615
1.1520411234064062977
1.1519687251070664935
1.1519307757339363185
1.1519190057369261826
1.1512107967639255701
1.1513082765671653895
1.1513949942689787331
1.1514675635373483598
1.1515238145822537241
1.1515650523786968851
1.1515945068142545704
1.1516194084982092072
1.1516476472255217089
1.1516879754429960592
1.1517482664554850036
1.1518303985664843925
1.1519366973178788438
1.1520597728075590016
1.1521949235765605035
1.1523319884353329101
1.1524598834840948935
1.1525802492446766134
1.1526686846484317517
1.1530449899115764456
1.1529094329404629971
1.1527192949971027947
1.1525135574577989317
1.152342594843679402
1.1522362289860088591
1.1521860008123405716
1.1521598491732474301
1.1521354384031374796
1.1521193319622360374
1.1521406612118900714
1.1522242138800267153
1.1523718539292686636
1.1525588656143177513
1.152744473209723175
1.1528861063288791122
1.1529530167797203966
1.1529333035302808952
1.1528335860715881456
1.1526744023396959804
1.1524887009930100401
1.1523131067018872464
1.1521849030349309295
1.1521317030496331935
1.1521582065734048417
1.1522418847222108962
1.1523377812771979922
1.1523998760562912391
1.1524037448472133072
1.1523553445674656892
1.1522811479284487124
1.1522109424966828772
1.152161200912764194
1.1521344012304828297
1.1510362826140512205
1.1511498077030404286
1.1512603363893136876
1.1513612817761247342
1.1514467395480816325
1.1515124156772009734
1.1515582262554535653
1.1515870660846059259
1.1516067654253709929
1.1516261703034844643
1.1516549428541174027
1.1517025226774402213
1.1517718301136101733
1.1518663346066839726
1.1519788998536599767
1.1521042999069368573
1.1522327215489938101
1.1523522664347045641
1.1524658244166052778
1.1525521318473928023
1.153218258240015448
1.1530448187357420498
1.152811965114198367
1.152578216798771038
1.152393774586606634
1.1522738973484969449
1.1521973794374715805
1.1521291711528718338
1.1520545747969506145
1.1519870077563572064
1.1519616977046456263
1.1520094367572557559
1.1521385537223851614
1.152333027796050624
1.1525569847428285275
1.1527612110114162647
1.1528981898171954956
1.1529399152552262109
1.1528852561406268684
1.1527582427486868788
1.15259626103400592
1.1524365917212919808
1.1523082851138808369
1.1522297270634873634
1.152207716300178042
1.1522346297075953814
1.1522881919866290179
1.1523394477507447053
1.1523678528808600774
1.1523687220153020494
1.1523517467876660536
1.1523306349565529683
1.1523147943978062635
1.1510798041901164623
1.1512051102117353274
1.1513217504478678865
1.1514205922412017458
1.1514958690937713293
1.1515472099886809865
1.15157781100316714
1.1515960555733435466
1.1516113839236248317
1.1516333298627319248
1.1516711795236922455
1.151727356477766584
1.1518058962111050736
1.1519008043031768729
1.1520076910522636382
1.152118873393730869
1.1522227571418925951
1.1523234672814810509
1.1524025100235144592
1.153207302934840639
1.1529329431624442126
1.1526722979441863526
1.1524756076840745322
1.1523434641143346369
1.152242233223363943
1.1521328633454648305
1.1520110112973476202
1.1519008547337388215
1.1518366871021055164
1.1518505201011657313
1.15195558179264812
1.1521401859263151746
1.152367620056013342
1.152589789629931305
1.1527627221944130032
1.152855751577925858
1.1528614258862843744
1.1527962273849756691
1.1526883952271913536
1.1525648737616409623
1.1524438216710430893
1.1523377796784670668
1.1522606276082361099
1.1522244227116551496
1.1522310132684241424
1.152268678392330159
1.1523193644255242951
1.1523659183616024038
1.1523988088750645176
1.152418920039200545
1.152431803969469426
1.1510253845967020059
1.151162952387969618
1.1512934960888447922
1.1514049479959176381
1.1514894278116500903
1.1515459727460828354
1.1515785497385839786
1.1515966990242032519
1.151610818194404029
1.151630312175887072
1.1516635752267057047
1.1517112095660397841
1.1517758798193651337
1.1518515400322992814
1.1519348634687518462
1.1520215793904009516
1.152102074461079928
1.1521829665490808114
1.1522496117013720784
1.1529380698140494488
1.1526980138202269632
1.1525318967862323571
1.1524271837223944992
1.1523421413366086163
1.1522394213146009978
1.1521101940735787306
1.1519854609927906441
1.1519038623919530817
1.1518838810762879188
1.1519309882370603049
1.1520457864263993208
1.1522060980526895868
1.152372106069967872
1.1525149295928023285
1.152618306662008596
1.1526757697634792965
1.1526874034134451108
1.1526602174278457458
1.1525991725321991233
1.1525077772029608258
1.152396935216640772
1.1522909239573411178
1.1522195690308663085
1.1522028064732163788
1.1522406760932129011
1.1523134235036192052
1.1523936030716861456
1.1524598766790166149
1.1525081440068967176
1.1511340193121712971
1.1512713671314234176
1.1513937368370634751
1.1514916250143900633
1.1515616139016113806
1.1516052214857861458
1.1516300792822811161
1.1516457672249955646
1.1516617103889816853
1.1516873357999133365
1.1517244005449738253
1.1517761308925864583
1.1518366584966539534
1.1519022526796973693
1.1519701376686783956
1.1520311248689525385
1.1520928914978738611
1.1521444584215316809
1.1526980046214612141
1.1525613275874408981
1.1524960642286354862
1.1524593395720439393
1.1524071774021993342
1.1523217058186616679
1.1522299931262567352
1.1521576382392280102
1.1521249067365249008
1.1521170188108371679
1.1521143648635103762
1.1521191683514344639
1.1521414051327321104
1.1521945876017085642
1.1522832315471336351
1.1523867304437493964
1.1524793522073015772
1.1525460058962626597
1.1525687263381569903
1.1525385756120893888
1.1524656072252865702
1.1523801686312409309
1.1523191878362368801
1.1523095188769643116
1.1523528792236890084
1.1524299727706959207
1.1525155546356813385
1.1525870161168549899
1.1511130932373652147
1.1512424383921509019
1.1513676269186627898
1.1514791738547531796
1.1515704209488921705
1.1516375352344188077
1.1516821165121824411
1.1517092868123695037
1.1517264356624230537
1.1517436327687866626
1.1517654829458396915
1.1517989761336040466
1.1518423663630021903
1.1518937941346349962
1.1519516340629278872
1.1520051322391529069
1.1520595793506775983
1.152105005358655454
1.1526986477697429567
1.1526612743808817285
1.1526630391942203069
1.1526639723663270054
1.1526445532282700857
1.1526000996053964442
1.152548771072181566
1.1524942824613253478
1.1524159498984953842
1.1522958924565844807
1.1521463536546543427
1.1520160322239263451
1.1519487884108159381
1.1519623891566763696
1.1520551398786296193
1.1522040521687291204
1.1523606027113493244
1.1524840626776935437
1.1525525883587253162
1.1525694982403109634
1.1525569509161983639
1.1525450941958339524
1.1525567811189021405
1.152599560997808581
1.1526621057530310743
1.1527238747902015525
1.1527753190694978169
1.1512190333955674149
1.1513361710361242896
1.1514535921711217537
1.1515621051509505879
1.1516530016730399666
1.151721416190300884
1.1517665070201772437
1.1517916507971466267
1.1518057498670952743
1.1518155038444655158
1.1518315524192654919
1.1518569950057038209
1.1518931789368263008
1.1519409892879439727
1.1519892209050264231
1.1520404947123192851
1.1520853730665221448
1.1528125581497539187
1.1527593846020809387
1.1527458753651393941
1.1527792572293793505
1.1528426220046290585
1.1529061852995423632
1.1529446469564756939
1.152936225973101747
1.1528580206676000142
1.1527143261868908475
1.1525218026818258021
1.1523096891634980743
1.1521216611006011021
1.1519987967111851024
1.1519675584474227126
1.152033435781348869
1.1521792593932369542
1.1523680702047220947
1.152552368749744538
1.152691206398798629
1.1527679458710258231
1.152794814361661091
1.1528022964509176962
1.1528186329170191371
1.1528530720585636882
1.152895715997688697
1.1529295549858593617
1.1513241355837480207
1.1514365401397732569
1.1515499656690038055
1.1516523829876030849
1.1517347285613512842
1.1517922504748254742
1.1518250959644444897
1.1518399847672395886
1.1518438039263341199
1.151848122461506696
1.1518589129775225199
1.151879727098194417
1.1519138837111426721
1.1519517249528663516
1.1519950467223518675
1.1520369415147007075
1.1527813988434503223
1.1527854680874933813
1.152813948014263179
1.152881830674222563
1.1529905269422888736
1.1531124451063712311
1.1532020867749952497
1.1532144982176601999
1.1531281870705878401
1.1529617871798587547
1.1527569782323439096
1.1525561888773891983
1.1523890847160862538
1.1522734410787609516
1.1522244895672153486
1.1522567253982074487
1.1523710902496329123
1.1525429621629081911
1.152724967371904663
1.1528683490402780176
1.1529472458617406883
1.1529708899345101347
1.1529724773439173902
1.1529845181694997613
1.1530200509832271294
1.1530682452452669651
1.1531048475629701588
1.153106183073979496
1.151449741081813416
1.1515509867686282153
1.1516464661833905048
1.1517264347745630459
1.1517847527790088247
1.1518196231663913043
1.1518353193474646368
1.1518370380306108824
1.151834731149248725
1.1518345150678728217
1.1518404873473480077
1.1518578143923055013
1.1518800086791964876
1.1519101192466525418
1.1519452389509954315
1.1527544464876688934
1.1528206969799572601
1.1529268818983045009
1.1530635601771574983
1.1532017459187984265
1.1532945049752010291
1.1533017633280520098
1.1532182457490811611
1.1530756417358656307
1.1529213228990591311
1.1527933755885002576
1.1527028124949616483
1.1526432183945145571
1.1526171791438879488
1.1526431675120503151
1.1527352531160306448
1.152878188557975303
1.1530261273416637646
1.1531274126542134795
1.1531557342226319562
1.1531245028255436846
1.1530762309897959472
1.1530534032017210055
1.1530732482995182941
1.1531218121639561502
1.1531659065083839089
1.1531657050356196592
1.1515784236912534055
1.1516583831571505225
1.1517265726677523574
1.1517770671909570712
1.1518073371669965699
1.1518199338341521543
1.1518183120636282801
1.1518098611968303757
1.1517998597814593786
1.1517925780196132113
1.1517947558476049341
1.1518028516921936522
1.1518208337814004327
1.1518489545932917295
1.1528360490505895619
1.1529852674811651436
1.1531443432898293988
1.1532729884628223349
1.1533330993592754155
1.1533105081910357548
1.1532287866751456118
1.1531317129434850433
1.1530585504108386008
1.1530242611494745386
1.153014829360347715
1.1530087744356662949
1.1530062213281782046
1.1530315428517723397
1.153105767714483143
1.1532166712616531701
1.1533165564109881807
1.1533535083568577928
1.1533073241360050076
1.1532027793413732741
1.1530944825820477195
1.1530343280825130492
1.1530431885080725252
1.1531024921341523903
1.1531660279541136038
1.1531821100836585625
1.1517038274245905427
1.1517540868892774952
1.1517900042530346827
1.1518092433916107264
1.1518130654149720815
1.1518034965809975656
1.1517860212297903466
1.1517655799633479408
1.1517464117789102396
1.1517356733176806749
1.151731959170998465
1.1517397420827102383
1.1517616615951815628
1.1529807959393563177
1.1531595790368172061
1.1532724901178259547
1.1532949053878704948
1.1532475018496410879
1.1531821181672725629
1.1531495251355077247
1.1531724524667035237
1.1532355633110700222
1.1532993144168246502
1.1533345102686827222
1.1533488756035914502
1.1533784069323198551
1.1534495322187867661
1.1535469766109622825
1.1536173893912553545
1.1536052267704304253
1.1534936533447679441
1.1533186749574073637
1.1531466719352436723
1.153038880099240604
1.1530218242844141319
1.1530778966343142589
1.1531489995459420772
1.1531764859568853776
1.1518212638964062666
1.151841068951714675
1.1518458260813353444
1.15183639324258702
1.1518146660205825782
1.1517854563286571423
1.1517536443315465888
1.1517232952312992378
1.1517015915036810103
1.1516889643308856339
1.1516896098090605438
1.1517070538757097076
1.1531606827827434181
1.1532373984968504743
1.1532171274661615623
1.1531507800022084975
1.1531107849076622784
1.1531477126639220199
1.1532620287017605332
1.153406273982747976
1.1535199841556746936
1.1535729137491135265
1.1535833845749952076
1.153599881976870023
1.1536571188459541215
1.1537423703201412639
1.153799737750386134
1.1537690389136896485
1.1536292973136874629
1.1534167628737994615
1.1532045698737314332
1.1530631998452063325
1.1530232235016855125
1.1530680188791782026
1.1531404707842092261
1.1531715133200137746
1.1531199121107003069
1.1530769393589788141
1.1530203168572914496
1.1530253251757691668
1.1531315677294768918
1.1533208938107302188
1.1535267244023597044
1.1536762529930106869
1.1537367321852365354
1.1537331727897248701
1.1537245496867065686
1.1537577006852255401
1.1538289411623050551
1.1538836557491061185
1.1538562051412617482
1.153718031648190756
1.153498323601704012
1.1532684032538416119
1.1530996370881307911
1.153031569691612912
1.1530483755165978899
1.1531003271076367689
1.1531216502116645728
1.1529128320938717422
1.1529684831380826449
1.1531231503714651776
1.1533463141977091659
1.1535685365165748717
1.1537206940726258964
1.1537723638859205266
1.1537479509033985448
1.1537085130688014001
1.1537095847182470276
1.1537643566101287718
1.1538303484810998878
1.1538391539322445656
1.15374499136253994
1.1535610442562593825
1.153349416497376323
1.1531805970482744694
1.1530948227251189842
1.1530858971937505419
1.1531090066176377107
1.1531045584291708117
1.1535636709861447624
1.1536910472119481508
1.1537205532057486224
1.1536718519741870903
1.1536042685433240962
1.1535796125705892745
1.1536210318308364187
1.1536997328164957377
1.1537473185659947728
1.153710217646892966
1.1535848424904380227
1.1534162181324598695
1.1532655066617312212
1.1531730411548477555
1.1531382991381535774
1.1531228043530608041
1.1530755022320020586
1.1534103028610542818
1.1533658574663310237
1.1533947134952764468
1.1534780970947340339
1.1535572747693032536
1.153576432792121409
1.1535181354061749825
1.1534093858735470217
1.1532984121946174838
1.1532205687035430586
1.1531751676426311715
1.1531283263894758218
1.1530371624277135911
1.1531525629053491766
1.1531697607786577375
1.1532465093862278582
1.1533395951612239738
1.153397493615018421
1.1533946922077746855
1.1533438341645481096
1.1532789549331454726
1.153226423068071993
1.1531824014867164685
1.1531144689367271994
1.1529849599302814944
1.1472893571706153093
1.1477630592969190193
1.1476533559690274
1.1469184909500862446
1.1457109674604704086
1.1443222452040813231
1.1430775126371970352
1.1422148246344288047
1.1418279349814921542
1.1418791956895608664
1.1422642892014038818
1.1428609715808553116
1.1435355633029382627
1.1441532030510512818
1.1445925322426633297
1.1447878619067997086
1.1447649643515320772
1.1446227616008293193
1.1444747690100525173
1.144395145347715026
1.1458489344322664305
1.1468106460921938528
1.1475385975099892111
1.1477870971466535011
1.1474290997406570991
1.1465114988002285124
1.1452329729012622472
1.1438738758371276294
1.1427016697721306127
1.1418966283252851568
1.1415359024724274217
1.1416171683543212545
1.1420726840032828786
1.1427713626224000887
1.1435359021710020944
1.144196116564349941
1.1446338849092343448
1.1448269381105939946
1.1448339958145743456
1.1447379640316219795
1.1446157211405965093
1.1445198438306583011
1.1440752155874305274
1.1446592410004816642
1.1454701389809294199
1.1463806412562198567
1.147178745083356155
1.1476426576156872894
1.1476108674745912896
1.1470412467456896355
1.1460167422192033548
1.1447207545604471957
1.1433881192045791675
1.1422490655645927138
1.1414876088424867895
1.1412105258305054178
1.1414266752106676517
1.1420309666384773628
1.1428331136200970963
1.1436276060187711145
1.1442653627882219958
1.1446782891458460174
1.1448790050070698499
1.1449057133397138042
1.1448147001715487381
1.1446733882384134695
1.1445545010251370055
1.1445009890436703692
1.144066761796035836
1.144470695561485396
1.145051654335836222
1.1457480609072674405
1.146428309007779367
1.146918944082713665
1.1470764171102150186
1.1468327473426027652
1.1461998198420497719
1.1452619939535220173
1.1441441764309812079
1.1430039843787138665
1.1420194372309433462
1.1413512564582459774
1.1411096769924473637
1.1413077064349756995
1.1418463043487512287
1.1425441178713546808
1.1432216433016644253
1.143769643626703969
1.1441520812820822339
1.1443813684212000847
1.144470934647171978
1.144440724659365971
1.1443398762477543507
1.1442410043495718774
1.14419780866509746
1.1442085519490461376
1.1450658994961964154
1.14565679077273197
1.1461904451956730355
1.1465547066708459134
1.1466346623535066396
1.14635837742467106
1.14573960338409786
1.1449018146257270434
1.1440373982837228617
1.1433202481931110661
1.1428433923914014247
1.1425936467906727678
1.1424974024689511509
1.1424828305686860475
1.1425161148458911065
1.1425959719292577699
1.1427203324576240551
1.1428612204541090946
1.1429792950468711243
1.1430606392797786341
1.1431516979584053217
1.1433081490236320921
1.1435413135542813468
1.1437962247821720219
1.1439914487414917232
1.1440964644225930513
1.1441402839838350491
1.1441743117276377273
1.1442174740142037059
1.1442551141952392868
1.1456418507933985307
1.1459442464281970331
1.146175179907342967
1.1463065346859280247
1.1463192578214393968
1.1461952862865207869
1.1459285452968526187
1.1455497683416993038
1.1451430288418920078
1.1448134221368484464
1.1446258037561085619
1.1445516798627979327
1.1444959012652009545
1.1443613293259569108
1.1441205920839221388
1.1438391164821772872
1.1436244884009769684
1.1435573720814473653
1.1436460070013152457
1.1438437022503131768
1.1441159826492375284
1.1444688772010258582
1.1449280495542843994
1.1454589129069989717
1.1459719100623266819
1.1463697706561992717
1.1466318941856832314
1.146815449390950814
1.1469995991306487504
1.1472124102809035939
1.1474266788958882302
1.1476043002340827748
1.1478280135607765722
1.1480606598105453919
1.1482396378888679589
1.1483593988661695562
1.1483998365348642157
1.1483254774488749206
1.1481052179326496354
1.1477537242816291396
1.1473525904959989141
1.147020281758522664
1.1468330692450940944
1.1467660024022854337
1.1467125971307672305
1.1465695139320566387
1.1463113416784387333
1.1460131255403938066
1.1457873331316963394
1.1457091897430771166
1.1457689169682803154
1.1459059950008845252
1.1460832923772479308
1.1463203484262798337
1.146656608021880519
1.1470607544168067715
1.1474328547532692824
1.1476715065853060338
1.1477575362785954471
1.1477636479743174025
1.1477814895951941043
1.1478431105793271971
1.147914175758081301
1.1479476135389288238
1.1479317651923330867
1.1450258027997970434
1.1451689000064233515
1.1451906733681467276
1.1450244251230092818
1.1446745663816573213
1.1443908365529733562
1.1487104953483795455
1.1488879673544549753
1.1490209853974404641
1.1491017764302755566
1.1491010485235213512
1.1489750194274925832
1.1486855868046303986
1.1482502568511570029
1.1477607198300276981
1.1473493330203285989
1.1470963885929696957
1.14697394501181682
1.1468595648420691901
1.1466416864969970479
1.1462983358592919725
1.1459122117926034967
1.145605490393702075
1.1454557068090063243
1.1454481874251050133
1.1455143354901560215
1.1456199941970210965
1.145793769534819484
1.1460790497998740722
1.1464454360013252021
1.1467766339702527567
1.1469631205149228848
1.1469875519009624654
1.1469332798663238737
1.146900455568695687
1.1469249788811173296
1.1469674116908490369
1.1469736466571398559
1.1469308867904006721
1.1468685214869496214
1.1469226367457940885
1.1471962757631126717
1.1473397649657604003
1.1473506174342047448
1.1471709272806596136
1.146811302575179381
1.1465202270039274168
1.1488289294630138482
1.1489802257912293815
1.1490891399161273778
1.1491466346209269211
1.1491207185613157016
1.1489664621514317222
1.1486444199123546639
1.1481727305752500445
1.1476462378298182276
1.1472018567365944719
1.1469267209906786054
1.1467872416434692351
1.1466551933150495035
1.1464166514375171424
1.1460500970920048935
1.1456404258429422338
1.1453161346862732461
1.1451553682921749022
1.1451393301654608781
1.145197645270444875
1.1452940599468630634
1.1454636508094264702
1.1457490654032673749
1.1461227731718510725
1.1464564489176822804
1.1466361742163988513
1.146649148963535314
1.1465840024588269674
1.1465458686014484702
1.1465712854338505622
1.1466160383123769062
1.1466225708373554149
1.1465778412106688577
1.1465141141937149616
1.1464750142489079643
1.1516435044313493297
1.1518435344344255533
1.1520361272150598797
1.1522123450285248758
1.1523668465591725418
1.1524901611699804871
1.1525810806984637669
1.1526365570389069948
1.1526587780479053968
1.1526608259337565165
1.1526357226722689919
1.1524735008280351245
1.15251583074013908
1.1524767400289526176
1.1523775695438467359
1.1522862616647930878
1.1522711345037217612
1.1523581699925573574
1.1525122318181415526
1.1526573776248367764
1.1527261586840942265
1.1527008553628155241
1.1526199729234156699
1.152552866683026922
1.1525468381684584873
1.1525992015599517693
1.152667897274551212
1.1527091437402503526
1.1527108365584699534
1.152691675201571897
1.1526782127809298562
1.1526754209901413084
1.1526570328544012423
1.1525871698429459578
1.1524511710958715849
1.1522650937930427606
1.1520683441120460611
1.151901729288714149
1.1517908390349440584
1.1517377555094292507
1.1517284569561203611
1.151743641492162018
1.1517663980889369935
1.1517866518074308946
1.1518017793516270864
1.1518152333102007479
1.1518328333449441292
1.1507070973838611216
1.1506779546799641434
1.1506746872683104588
1.1507018299378328763
1.1507624428738842948
1.1508576031773880555
1.1509842873934799101
1.1511373972366778506
1.151310440134909685
1.1514987057330849929
1.1516964020393918311
1.1518976845298845024
1.1520953260482027503
1.1522803349830199604
1.1524471171020826965
1.1525854627080276416
1.1526930635966401439
1.152764598620348746
1.1527999921426577146
1.1528124448360743681
1.1527925546669866019
1.1523124210983299864
1.1522955186665833072
1.1522261405474005791
1.1521427861251567482
1.1521168742319711775
1.1522075045926798431
1.1524196026229203138
1.1526866699855746745
1.1529068978002114942
1.1529984427632504751
1.1529450241566170376
1.1528001319275134051
1.1526489048612333921
1.1525553984235876737
1.1525331619303063047
1.1525495032745483037
1.1525595924118501312
1.1525447077815322849
1.1525218056009784995
1.1525215053224591166
1.1525569904310180025
1.1526067221031457422
1.1526271830567362819
1.152582803059404748
1.1524659133645942521
1.1522978821498426338
1.1521141218231236714
1.1519454497956573835
1.1518123424678301525
1.151725674192666693
1.1516850809837690939
1.1516810597610209754
1.1517015111255841653
1.1517356012696016165
1.1517797580060595841
1.1518367159267650646
1.150740231552002113
1.1507306222378947957
1.1507443208348613339
1.1507859040059371658
1.1508575594834573597
1.150959730059458952
1.1510907548460009853
1.1512472471612242853
1.1514226630069979151
1.1516109200098691989
1.1518053421389469193
1.152000312039192842
1.1521901071569067287
1.1523666965221839309
1.1525257756238900253
1.1526585218559519674
1.1527647651793984096
1.1528406608781640585
1.1528856728997758374
1.1529121896705749606
1.1529075660560683669
1.1521131980395835637
1.1520183827333980719
1.151961529093464609
1.1520120202338282045
1.1522086879813087101
1.1525266871964525706
1.1528754134772469797
1.1531397985265456896
1.1532383364535867543
1.1531607545769329004
1.152962889430998894
1.1527327774453499654
1.1525496015958800466
1.1524447091334768523
1.1524008777648691026
1.1523784619565553555
1.1523545041595872895
1.1523419602169386877
1.1523699555875877021
1.1524541370880110325
1.1525771403088163058
1.1526924124619863932
1.1527458170458930731
1.152703272212721064
1.1525616867244066199
1.152347881043867428
1.152102665215967825
1.1518732399045208403
1.1516987324113270308
1.151599956667801461
1.1515759444849409388
1.1516096609994321831
1.151678891172103425
1.151769420285775114
1.1507800372290466484
1.1508178347219630844
1.1508822768389108671
1.1509760351987747828
1.1510986766784048196
1.1512465673161840218
1.1514146208311326625
1.1515950727998072178
1.1517806715388063665
1.1519633911616316002
1.1521372084163343796
1.1522987566947078264
1.1524434899640472185
1.1525717176334533409
1.152678696424316529
1.1527674255387250213
1.1528368722313362404
1.1528874751349023065
1.1529309579480797598
1.152951253309910884
1.1519738095620102314
1.1519045385497939105
1.151921265629404445
1.15206978252963399
1.1523540458648657836
1.1527202712720037159
1.1530739017999875884
1.1533168922924972311
1.1533840599108853286
1.1532718339547485265
1.1530318814373945457
1.1527463892973668358
1.1524953587698565372
1.1523214838473356814
1.1522287094570751176
1.1521917016620626395
1.1521869079951343462
1.1522200108777680416
1.1523055457467619167
1.1524470591610329606
1.1526282929462403626
1.1528078471488851786
1.1529249525969760271
1.1529299381391693302
1.1528013094805058536
1.1525536686526425267
1.1522385187740933343
1.1519255791884597251
1.1516776288355117241
1.1515333912017839957
1.1514969292905559151
1.1515455936596301623
1.1516476231701751054
1.1517803428604775906
1.1508265191637738756
1.1508961304164497808
1.15099297551146873
1.1511195600142951623
1.151274026916094817
1.1514495108214166663
1.1516364656120050558
1.1518227535200256106
1.151998416134603298
1.1521549334850211821
1.1522877097439401251
1.1523976570179650381
1.1524859183868856327
1.1525601698606924295
1.1526226625165769679
1.1526809555660222362
1.1527368758155602801
1.1527910871216555666
1.1528538878972462989
1.1529061568981737729
1.1519873239851463609
1.1521315964783103158
1.1523802005037526719
1.1526918255416245263
1.152999576558395356
1.1532379705105246792
1.1533585446717367073
1.1533421880207461729
1.1531966284716936855
1.1529547330984131204
1.152670938988440863
1.152405480385806813
1.1522068016892190734
1.1520980594409782061
1.1520761358913964578
1.1521261112183482922
1.1522292792598214373
1.1523729252594674399
1.1525478928802679324
1.1527381003683496719
1.1529174590159518843
1.1530364088993774185
1.1530459727385884428
1.1529198632559802817
1.152667942596363293
1.152338533500808504
1.1520030636646301225
1.1517330440202300235
1.1515742813207110462
1.1515338392440532811
1.1515880985115243273
1.15170399346206076
1.15100064571631866
1.1511397867294270725
1.1513067050656231594
1.1514958540534667719
1.1516961461119807897
1.1518941953146477619
1.1520751450683215378
1.1522276864079121772
1.1523440472338617457
1.1524221824107956369
1.1524677290550127129
1.152487595512902363
1.1524963286865912426
1.1525033389084220481