/*--------------------------------*- C++ -*----------------------------------*\
  =========                 |
  \\      /  F ield         | OpenFOAM: The Open Source CFD Toolbox
   \\    /   O peration     | Website:  https://openfoam.org
    \\  /    A nd           | Version:  12
     \\/     M anipulation  |
\*---------------------------------------------------------------------------*/
FoamFile
{
    format      ascii;
    class       volScalarField;
    location    "0.0062";
    object      T;
}
// * * * * * * * * * * * * * * * * * * * * * * * * * * * * * * * * * * * * * //

dimensions      [0 0 0 1 0 0 0];

internalField   nonuniform List<scalar> 
106891
(
299.2759194481417353
299.28262977709073311
299.29119552106857327
299.30198376678617933
299.31423389703337534
299.32784065059951217
299.34101848511784283
299.35323273028296853
299.36375379955808285
299.37017815817080191
299.37571381515817848
299.18767804330684612
299.17479716498479547
299.15970863561625492
299.14055334602380753
299.11929105599512013
299.101627008984849
299.09390283651856635
299.09885925931564543
299.11409125514086327
299.13401677057589723
299.15331906085924629
299.16941321985990498
299.18284856744128319
299.19513811808565151
299.20652254838853423
299.21537844654653782
299.21928655968775956
299.2174390771350545
299.21101253739493586
299.20194109262013171
299.19137829375125648
299.17951979524741546
299.16635349070560324
299.15389014323176298
299.14609403852307423
299.14660739107824838
299.15619327315363307
299.1713357770370294
299.18642342720454508
299.19662373162208269
299.20032717645847242
299.19981754778581262
299.19888093375232074
299.20014141418596409
299.20442717409173383
299.21102211723052733
299.21835026907177735
299.22451452420017404
299.21498659351811966
299.2256612165020897
299.23537158244755574
299.24405502736607332
299.25160846616495292
299.25797213376961281
299.26304409591494959
299.26730131757148001
299.2712116688131232
299.27570806262963288
299.28143605717298215
299.28890583183141416
299.29872597745440999
299.31032045740147396
299.3239285627291224
299.338031170010197
299.35201221163572427
299.36507260559704946
299.37417368998416123
299.38249264667865646
299.16184667498555427
299.15315911278190697
299.14225506726444337
299.12837737812191108
299.11513419395504343
299.10783822362230921
299.10946887733729227
299.11867257042882784
299.13140442784003881
299.1440436847964861
299.15554608587092389
299.16758718756341295
299.18204961784675788
299.1983139581769251
299.21297564857178486
299.22220631292714188
299.22397764320993474
299.21901133333182088
299.20916370325306843
299.19600685717011856
299.18047018487459354
299.16357832728868971
299.1480172467348666
299.13841731900220111
299.13891758676180643
299.15061738706930328
299.17001957961423386
299.1906478725092029
299.2065865211216078
299.21498502270088693
299.21719182192390463
299.21718272477249911
299.21836379965242259
299.22228563013004532
299.22882532100322805
299.23681958377818546
299.21642354102300487
299.22727545408883998
299.23714106429508774
299.24582769470561061
299.25316824479813249
299.25919565143504997
299.26388271464190893
299.26766990956309655
299.27094208998255453
299.27464264118469828
299.27954289235674423
299.28615706875393698
299.29523992186796022
299.30618900991584042
299.31937695451216541
299.33347835797650305
299.3479084773147747
299.36216059017789348
299.37296470232200818
299.38349099948538878
299.17983324487357777
299.17365654510581408
299.16296270403108792
299.14691288834512761
299.12922544481841669
299.11554030974559737
299.10987057110014575
299.11193723999690519
299.11836096458813472
299.1261763274762302
299.13495776678536231
299.14655971928095823
299.16271131811583928
299.18269443732083346
299.20285935390216991
299.21852362993149654
299.22649482963333867
299.22600956679838191
299.21796546909683912
299.20412259972272295
299.18646191793544631
299.16755849774330045
299.15113452054021081
299.14173560790828788
299.14336902857394307
299.15680547600737782
299.17871318700747452
299.20277694066072627
299.22264985419667482
299.2349714161886709
299.24041696169473425
299.24237785402499412
299.24455692566698417
299.24870972822191106
299.2550910727657083
299.26274057371375648
299.22421521340902473
299.23486406962922501
299.24444703425484704
299.25254111847414151
299.25896519796958728
299.2636211638007353
299.2670132046771414
299.26959390649585657
299.27235559695543543
299.27623938277793059
299.28182542005720279
299.2900659397388381
299.30032795387103306
299.3129839052475063
299.3267335647480536
299.34080217096089882
299.35494519512928946
299.36594716689450024
299.37726606697236775
299.1877268190939958
299.17843317782069334
299.16168200561878621
299.14164064067591653
299.12424781000714802
299.1135599409359429
299.10954349188017432
299.10930529493901986
299.11054847054043648
299.11368506801397871
299.12135940801113065
299.13572596518974933
299.15653312838583133
299.18076742080370423
299.20378607919860769
299.22086567799334489
299.22872485589329017
299.22628532764946385
299.21466788867320474
299.19662772101673909
299.17632122314063281
299.15826281352599381
299.1469290092111919
299.14563465011843846
299.15509961787648763
299.172964651883035
299.19426604445482099
299.21369870410774183
299.22808707976815867
299.23743574918455579
299.24397774497725777
299.25041264185068712
299.25812423283247199
299.2670784738149905
299.20543000111968013
299.21760610567099548
299.22953794440581987
299.24053807517384485
299.24992908042526096
299.25731092220041774
299.26243516408112555
299.26577785558140476
299.2678623923725354
299.26975752090311289
299.27256373007651291
299.27692859918892054
299.2840033101432482
299.29317891741771973
299.30483446786519153
299.31771728223435503
299.33082568989533456
299.34412284864691856
299.35440243128215343
299.36525269109313285
299.22268997330070306
299.2120897600645435
299.19049442478012679
299.16443045193898342
299.14058520619835235
299.12247309047143062
299.10972942007026631
299.10003013671439476
299.09253868312254099
299.08871980399385393
299.09179018760744384
299.10416617478716717
299.12568664173210209
299.15359132198665293
299.18321512581087518
299.20879181971565686
299.2251006495813499
299.22936319876259859
299.22200548090432903
299.20638103320328582
299.18741396802624877
299.16999589230903212
299.15798862341227959
299.15384698344757908
299.15846801796504906
299.17088824247605316
299.18830297732637291
299.20698997108814865
299.22404868542218992
299.23832819473886957
299.25035495580186762
299.26123451462200364
299.27171021205140278
299.20993609282891157
299.22331505060168411
299.2358692983056585
299.24659060872505734
299.25493472381128868
299.26063226339874745
299.26418861900589263
299.2661892891297839
299.26773374451630616
299.26995659972550357
299.27340945512543158
299.27926635638766584
299.28692206931447117
299.29683656804149905
299.30796192631873964
299.31923807628760414
299.33096198367940133
299.34000913368913643
299.34981385724847769
299.21342128201013111
299.18945489770288759
299.16406625551616116
299.143381190962657
299.12862332328012371
299.11731479528816635
299.10612158690793194
299.09500307963065779
299.08667324012918698
299.08457324377678788
299.09162307209720666
299.10854926828739053
299.13336945408514111
299.16151191235729812
299.18737855087010757
299.20613809228495938
299.21474297488879301
299.2129272899688317
299.20324068049484367
299.18964661323320797
299.17600293457445559
299.16509586923206143
299.15880473417746543
299.15874978239605753
299.16594436208345087
299.17999514128536021
299.19886719273381459
299.21981804606167543
299.24032102765750096
299.258821457569411
299.275022437846701
299.28924027103482786
299.20393344190165408
299.2185110152391303
299.23243365690950668
299.24439507134422911
299.25363482282313043
299.25984007008611343
299.26359874756224144
299.26563907807229725
299.2671294397094357
299.26921970197429346
299.27229952902860077
299.27738935612762816
299.28371702859016068
299.29168207056045503
299.30049179138092086
299.30916373416334864
299.31849862674346241
299.32567024391636323
299.33386614782529023
299.19759501066920393
299.1719749461337301
299.15216478619407781
299.13819493258284865
299.12689800640504245
299.11527644121952108
299.10291363110673046
299.09318044020488969
299.08990030495652945
299.09437792279118185
299.1062193216820333
299.12449796960265758
299.14612363998543287
299.16636772199257166
299.18204230174984559
299.19175515748867156
299.19555926875108298
299.1943993318000139
299.19003192044635853
299.18392639326629023
299.17715963922859146
299.17125213523269167
299.16877985891687786
299.17258683942736752
299.18421236144547493
299.20294472779340822
299.22594738533035752
299.24964040166179302
299.27120613821267625
299.28978511435656173
299.21536623291177648
299.22991336179745758
299.2429075255415114
299.25343140774845097
299.26095012392886474
299.26579574356958346
299.2685349821881573
299.27023023600770557
299.2720519516682316
299.27444634749605257
299.27854118842031994
299.28362277805388203
299.29002542155359379
299.29706816255310287
299.30366905639118613
299.31094950457645609
299.31633449142645986
299.32259577922695826
299.18646895917044048
299.17057881448471335
299.15934093862648524
299.15001276744754932
299.13970895779772263
299.12788716103733577
299.11818762895597956
299.11344336294553159
299.11520024565936637
299.12089302348579167
299.12707368250289619
299.13273567600873548
299.13813666306577943
299.14444641430014826
299.15257834942946147
299.16125427169686191
299.16878950347438604
299.1746620631244582
299.17784906246311039
299.17795061792406841
299.17624092925336754
299.17590629549613368
299.18062706233996551
299.19284426871314508
299.2121668858716248
299.23584645217687239
299.26043848904083688
299.28288336994035035
299.21338264495454951
299.22697839672269993
299.24010941982027134
299.25188621327117744
299.26148946163607434
299.26869163601946866
299.27347086798556575
299.27639181757677989
299.27841133626657211
299.28002576391077127
299.28260215550909606
299.28585387444024946
299.29043134901473877
299.29601479380909268
299.30143552651674099
299.3078551248422059
299.31271609008251744
299.31795723591704927
299.16273982327919612
299.15505731829517799
299.15202297446694502
299.15064327567125702
299.14967320823916452
299.1488452853567992
299.14967774390214572
299.15182710665163768
299.1519979120445214
299.14707665593766706
299.13721989491347131
299.12690956261570818
299.12079604354005369
299.12130430344336673
299.12917856229597646
299.14313392068663688
299.15900877664057589
299.17311843839513585
299.18346637097096163
299.19052152997591065
299.19666341353234884
299.20507151853553296
299.21802622654519155
299.2359670784642276
299.25708331838541199
299.27841566080184066
299.29812626894880623
299.22481472893576893
299.2369002687718762
299.2490789726717253
299.26033213153175438
299.26991527161050044
299.27717656883794461
299.28201777168436593
299.2849429502787757
299.28633003349187902
299.28766066979022753
299.28912123836863657
299.29174102728006801
299.29570026318629061
299.29995393432119499
299.30570765461038718
299.31049695006436195
299.31532518876247195
299.17914850545099625
299.17024949071270612
299.16574640257539386
299.16782974672645423
299.17563705893854831
299.18625588681038607
299.1965649291763043
299.20337799317388772
299.20304023680569117
299.19471532811058978
299.17914247585673593
299.15875005724183211
299.13805594979845637
299.12192695644603191
299.11419127036026566
299.11672379501425212
299.12896768767552658
299.14794891060432747
299.16912611204520545
299.18822758071070211
299.20331864088961993
299.21546266615740706
299.22768149419795236
299.2427309120209884
299.26119902405957873
299.28140733311641952
299.30075028722075103
299.2356845907129923
299.24717633548925733
299.25882382461418274
299.269510364962116
299.27819971563070567
299.2843562488010889
299.28811310129395906
299.28967640268979267
299.29040149047460773
299.29070738126478091
299.29175797626538724
299.29410652997734132
299.29689768011172646
299.30141099116792702
299.30559676991089191
299.30975993817628478
299.1708205711668711
299.16901742972959255
299.16970835005241725
299.17534636864803588
299.18686303561588602
299.20191006230817266
299.21590416289092218
299.22392641983879003
299.22304855600600604
299.21419398039392945
299.2005519226281649
299.18547676310225825
299.17135685483441421
299.15989380854307456
299.15313756818051161
299.15356531457655365
299.16246735275757374
299.17834773830219319
299.19698128406389515
299.2136018996308735
299.225586498893108
299.23389012541878174
299.24198583659142514
299.25322369960542801
299.26876191466078581
299.28703177652164413
299.30487277771283061
299.31911635822558537
299.24844400951047874
299.25877953192377845
299.26867604173133941
299.27707577229278968
299.28329078243172034
299.28723619488835084
299.28894320689920505
299.28945337444434927
299.28916152089971092
299.28908752734099608
299.28992989606871333
299.29102848955096761
299.29377028851843079
299.29673083885376172
299.29990814000228738
299.1659288165600401
299.17479525792754202
299.188009656184704
299.20484166814031823
299.22246204876682896
299.23611626815073805
299.24162937817357033
299.2382406531187371
299.22877773352712438
299.2174475201057362
299.20740793605421004
299.19917259154073008
299.19184028850810364
299.18602255944227863
299.18456411256056526
299.19018407639481438
299.20249648702161949
299.21756717363740563
299.23041963411083088
299.23837579966988187
299.24270498753310221
299.24762900709879432
299.25730051685229682
299.27312509165642496
299.29313012123708404
299.3132452126002363
299.32869821535570054
299.26174787101666652
299.26999927826960857
299.27714627464098385
299.28251773469321506
299.28594224627323683
299.2873532461712216
299.28749427613456646
299.28662627442264466
299.28555130526530093
299.28503167000280882
299.28463277572114976
299.28577276907202531
299.28755733407933803
299.28983499135421198
299.16777837714766974
299.1874044955690124
299.20944646905968511
299.22903859772219448
299.24159363258996791
299.24518955516646201
299.24203904503315243
299.23654385538651468
299.23256335013354601
299.23136480457060316
299.23124229367971338
299.22991800632246395
299.22774613081492134
299.22803258541364357
299.23397636012350631
299.24523105483729069
299.25741738243476675
299.26531004354666265
299.26670619851222455
299.26395620750804483
299.26248783105540952
299.26744473377510758
299.28071261061893438
299.30004940701763871
299.32027617998562619
299.3356274219761417
299.27492828412857762
299.2801951198754864
299.28402148697136909
299.28624846241262958
299.28675894411605896
299.28603587745834602
299.28426851329481906
299.28210390537645935
299.28033036391440191
299.27866197535252013
299.27842439856499368
299.27919462101561976
299.2807271390475421
299.19410744216889952
299.21613603757384681
299.23224650355558651
299.23938688523958263
299.23928442052169885
299.23707985036725177
299.23787062961724814
299.24375289950791057
299.25272493906658156
299.26023522636342022
299.26301741982996418
299.2621154413911313
299.26206857426643637
299.26677260918847878
299.27577633827309
299.28433213374034949
299.28700414766871063
299.28198852838715993
299.27275332677459119
299.26580428786672883
299.26704266899105278
299.27874279318575645
299.29860417191946453
299.32016031712436188
299.33693389922729011
299.28748487636664777
299.28962845011835725
299.29030824475063355
299.28943871589910941
299.28738777389088455
299.28440272598805905
299.28102408445687388
299.27802821179653847
299.27527167883670245
299.27394068905880431
299.27397695323196558
299.27501183551470376
299.20910732422186129
299.22199754547369821
299.22560633749509407
299.22455262825644695
299.22597346140997843
299.23494567698287483
299.25134086330547234
299.2698956552340519
299.28387614967374475
299.28982760765097737
299.28977085128883573
299.28938855026012789
299.29329660795053769
299.30120763525007987
299.30806801586589927
299.30797653701176841
299.29877072104250146
299.28403363476002141
299.2711103458539128
299.26701723915033426
299.27457538195443476
299.29169285257705724
299.31208837438663295
299.32824408750087741
299.2130807233198766
299.21402088955153431
299.21297585385138973
299.21751245368938044
299.23179488572253604
299.25404850041752525
299.27730585052574952
299.29376718943717606
299.2998368484547882
299.29824295014748259
299.29568799245089394
299.29793647040293081
299.30552160469397904
299.31339947231771248
299.31497383036128213
299.30718336383938549
299.29280384342877142
299.27895681727511601
299.27274644753543953
299.27795109567716736
299.29257644489467793
299.31109626710775728
299.32636708541974713
299.19808657843361743
299.20772663942722147
299.22713560345187034
299.25335168850608625
299.27913549990148567
299.29702792418402169
299.30354806542737833
299.30114539316463151
299.29648490240356296
299.29600898305255896
299.30187858732358563
299.31031843481156329
299.31452873215124555
299.3097533334702689
299.29722645473719922
299.28325816922063041
299.2750506123671812
299.27661192645336996
299.28706681900752073
299.30149879962374371
299.31342319185989709
299.26782946961691323
299.28581032795904093
299.29241505298125503
299.2892052656096098
299.28245190150539656
299.27925007415728942
299.28295244626417571
299.29147411738694018
299.29833067054511275
299.29820743560020446
299.29077542725542571
299.2806563223926446
299.27409448417500926
299.27509516463311456
299.28333631759738864
299.29447907652104277
299.30283285096317059
299.26611076559225921
299.26134983283469637
299.26386550871541203
299.27257616646539873
299.28196215332764041
299.28656870861732386
299.28475353698689787
299.27942242785672988
299.27564124582448812
299.27706201421847254
299.28346385078026515
299.29102643067250256
299.29487844742158131
299.23126292493816436
299.23344167202992594
299.24274474830491499
299.25500279239645351
299.26497683804217331
299.27002178582745273
299.27147117905582263
299.27291833023025447
299.27714701667122199
299.28370626271856736
299.28901004207955339
299.28876910838027925
300.40571708511527049
300.24056407673003832
300.22477158798562868
300.36252910633118063
300.61566111061802076
300.91480182221670248
301.18200905233680942
301.3530865218237409
301.39420437638028716
301.3077888960680184
301.12854995638440414
300.90965307614976609
300.70402213302418204
300.55048056401363965
300.46684720809304281
300.45172149810554174
300.49129444728146154
300.56490959862253476
300.64953141682866544
300.72479684202772887
300.91829740131430526
300.60467385077424751
300.34835957737533363
300.2111015126838538
300.22872614965905314
300.39584400324832814
300.66456111241109284
300.96011129461601286
301.2051671440364089
301.34264321699794209
301.35011781685216192
301.24204873874924715
301.05884368481440561
300.84999878845212606
300.65971332774040548
300.52001397252195147
300.44729346237892287
300.44336447389662226
300.49619258097578722
300.58179122043850384
300.67262925463285228
300.74685066527456456
301.56835154225706219
301.3703263658094329
301.09783162394063538
300.78474675666927851
300.48599001429164446
300.26614287561750416
300.17859826457890904
300.24583847913822865
300.44788119096529044
300.72717999641963615
301.00772657862654569
301.21960225616805928
301.31931879277334474
301.29808426652829212
301.17753976626255508
300.99651986686245664
300.79867938804341065
300.62429393154275203
300.50465545571506709
300.45554750374765263
300.47492169622000802
300.54209962246090981
300.62781487117615598
300.70607035467537571
300.76305701851902086
300.79720620453622359
301.64543508252245374
301.52607269285613256
301.3379840920016477
301.09553151113965441
300.83124242239489377
300.59150801382901363
300.42715651866706139
300.37748016006639773
300.4542831059626451
300.63566481261170793
300.87043322713765292
301.09512806820788455
301.25477515808330509
301.31740419864428304
301.2802869056279178
301.16441443213261664
301.00388590894164054
300.83534444246146222
300.69233487757685452
300.60053506104253529
300.57132947502401521
300.59915069661161624
300.6625657967528582
300.73447274875320545
300.7943055753845556
300.83424820021258483
300.85687921722285409
300.8692107806453464
301.40379117902278949
301.26894839978569962
301.12604014786847983
301.00276118081706045
300.9228965890379186
300.89935077551666609
300.93125605708536341
301.00650394253045761
301.10474362844126972
301.19937512429243043
301.26273432259972651
301.2721602048042655
301.2187589981557494
301.11237912360132896
300.9790621464107403
300.85121604738418455
300.75505216392593866
300.70183166977670908
300.68805500457301605
300.70222154198984299
300.73409053883955266
300.77499832291101711
300.81603710633623905
300.8473140261505705
300.86143569715636659
300.85987241598735409
300.85151128106218721
300.84628618248069643
300.84747687502181179
300.85079579688851936
301.23161826775145755
301.19880158259866221
301.16585274381844783
301.13752587630051494
301.11348925570086976
301.08813377016139157
301.05395960464937843
301.00700857024537527
300.95098071502945913
300.89498447557696181
300.84694777092028062
300.80673497465363653
300.76738962993510995
300.72080074106179381
300.6645372428595806
300.60429307502096208
300.54896664524386551
300.5041712042365134
300.46824868860699098
300.43469249868053339
300.39964615416869265
300.36496867701595193
300.33572534233275064
300.3110705883983087
300.28411699384452049
300.24648901855812255
300.19715566733214018
300.14276519098353901
300.09187359916666082
300.04720317079841152
300.00518959977341638
299.96096699063343749
300.67368149625224305
300.66331339313950366
300.64975857877493581
300.63166124329143258
300.60608165116576629
300.56865975303190908
300.51576882055576334
300.44876522574458022
300.37611876888882989
300.31022628766532989
300.2591892640733704
300.22058646029421425
300.18338350274973436
300.13671032072227263
300.07767780930396384
300.01399735129291457
299.95754577256303719
299.91668317703147295
299.89104490523101276
299.87485838391870629
299.86455739363447037
299.86230786108751545
299.87233066868094511
299.89141562980961453
299.90897624522096976
299.9142453697264159
299.90512394818915709
299.88935892200271383
299.8767881930036765
299.87080288233801184
299.8674611275352504
299.86137668482075469
299.85110452496473954
301.15283218227784801
301.16018054931123515
301.15576510588545034
301.13304118629565664
301.09152545775475573
301.0557187845775502
300.45313911708268506
300.45979958631255613
300.46208274304279939
300.45920074886271323
300.44838227052599677
300.42533274888290862
300.38601521489061952
300.33178945945263649
300.27167610484923443
300.21939716410548726
300.18381200887125715
300.16269928271515255
300.14359903511217453
300.11455649122774503
300.07268940871796303
300.0262189991572086
299.9879977877805004
299.96661264368600541
299.96105823926990297
299.96429442705255042
299.97248707676027379
299.98831380486319631
300.01621133815024223
300.05315445475054048
300.08697529384181735
300.10606956994445227
300.10846500478129428
300.10285754128830149
300.09982077064506711
300.10309695399780594
300.10839073117864473
300.10985034297482343
300.10611594735388508
300.10039718263391251
300.57302520959296999
300.59615092241659795
300.60526139136112533
300.60043364280204514
300.57537903981369709
300.53024490837219673
300.49037322670449157
300.4280982228223138
300.44280760219885451
300.45341030728911846
300.45914596285462039
300.45668307352553938
300.44112007291147393
300.40790263012775085
300.35845354270441021
300.30251848200134646
300.25475692400391381
300.22492191794304972
300.20999177935414082
300.19645275386363892
300.17186479125643928
300.13347078990756245
300.08990457852718237
300.05487501093455194
300.03705077232950771
300.03483841486740857
300.04084957798374944
300.05100639215481806
300.06880921453279143
300.09889360372818601
300.13873981815868319
300.17503379701423682
300.19550168495248954
300.1983506434888227
300.19250034776342773
300.18901948365925136
300.19207227384350745
300.19736266741278996
300.19895514972159845
300.19531377832515773
300.18957989290726118
300.1861151345400458
299.26879648525260791
299.29005310968869935
299.31050981794260224
299.329483940320074
299.34573536627073054
299.35930808334722997
299.36893987661471783
299.37495883361043525
299.37808234696547061
299.37715124879474615
299.37588971251602743
299.16415337751402603
299.16915350269374585
299.15982571916447341
299.13976107009057159
299.11840632585801814
299.10570128857722239
299.10691093973736088
299.11999989655430454
299.13739849338782051
299.15122543333040994
299.15809613689373236
299.16031909802757127
299.16369603334516114
299.17216432344088162
299.18477613974198448
299.19673786084001676
299.20337572537181359
299.20372928686771274
299.20044471356823124
299.19723621912623912
299.19560061314439281
299.19358559219898552
299.18792296447833223
299.17729138095444341
299.16339619151665374
299.15026059414384463
299.14193340050627512
299.14075821056036375
299.14654273357126613
299.15736448654314472
299.17080963891686451
299.18479609488883852
299.19806081935763586
299.21018211418140709
299.22139491823958224
299.23220051404365449
299.17169420962363802
299.1682906922710572
299.16754357660897767
299.17000935082455726
299.17608247145489031
299.18587202166821726
299.19915282595900408
299.21523729071219577
299.2336209626499226
299.25354312448070004
299.27457955041813875
299.29595735152793168
299.31684881900645223
299.33669555480804547
299.35415416687948209
299.36925966950764177
299.38060317871986626
299.38827330164042451
299.39283276532722766
299.39279812594037367
299.39241671241444465
299.14741177720088672
299.14461891586898901
299.13057576462364295
299.11078959232253283
299.09520640985181217
299.09292814505869273
299.10710557726997649
299.13240357567912042
299.1584016625151321
299.17554964771375126
299.18042393852289251
299.17678662557887037
299.17203797221156947
299.17182932378199212
299.17692331635419123
299.18358062922641238
299.18708821779131313
299.18579130682871892
299.18211710533762471
299.18015517807754122
299.18222999584440913
299.18690656035971642
299.19020336502984492
299.18871904306990928
299.1817615254549878
299.17150087914342294
299.16142864149787783
299.15440267357286075
299.15209791511875892
299.15517262927477304
299.16321114702572004
299.17493027407385853
299.18887446101444993
299.20373102027491541
299.21893998967925654
299.23460500785012073
299.17523935967233228
299.17391820224099774
299.17496461628718407
299.17893785521130212
299.18614756474806882
299.19665499532294461
299.21040372318856271
299.2268652870167216
299.24553282748746597
299.26549186391116564
299.2861875174959323
299.30694226565617555
299.32696035734642237
299.34589183717196192
299.36245305855084098
299.37686883750751576
299.38797946446283049
299.39600817422814316
299.40155931911624521
299.40283029323751407
299.40427611923416862
299.12614270881687162
299.11257584075707427
299.09810381363598708
299.09209569174481658
299.10128110790594747
299.12561171688190598
299.15739869433235754
299.18523248287692695
299.20014013097204497
299.199881683977992
299.18888290391572582
299.17496678169823099
299.16528662155889151
299.16228302725147614
299.16360443161426019
299.16487476311567661
299.16379297222380274
299.16220369486836717
299.16391825562101303
299.17146578422074299
299.18387733439431031
299.19698604664216646
299.20561143325244302
299.20642645332111442
299.19908770083941363
299.18613099458411853
299.17136663738307334
299.15915220649992534
299.15305555299556772
299.15484548588517555
299.16416093978835988
299.17906841586705013
299.19711670386249125
299.21669238336249919
299.17916436464628305
299.18276431542710725
299.18913412058157064
299.19863538508366219
299.21124483666147853
299.22672522240844728
299.24438201213934008
299.26360165754471154
299.28334117036217776
299.30285422190058853
299.3214788091664218
299.33853709555029354
299.35413182770895446
299.36739069159165183
299.3789687302312359
299.3881121151989646
299.39529746949631317
299.40134452333916215
299.4042538126176396
299.40839989033287338
299.11783988440583926
299.1106654877805795
299.10636560238106085
299.11140643228020508
299.12872986110181728
299.15546782089450062
299.18410640275277501
299.20589249332584814
299.21445474862002811
299.20884412177878175
299.19319562040516303
299.1744165792352419
299.15916625831113151
299.15041111190117817
299.14750898429053905
299.14735187294496654
299.14757398823820722
299.14942446131283305
299.15550557653642727
299.16737884381552703
299.18447573593516609
299.20344806468733623
299.21860619140318249
299.22502780666980016
299.22033786672881206
299.20553497587383163
299.18522451687152852
299.16589537299830681
299.15343095012616459
299.15139837711080872
299.15996983118554908
299.176635533850515
299.19800817026884943
299.22168011881404937
299.18399780851314063
299.19097511036682135
299.20074149405201069
299.21365172410378364
299.22955424521256873
299.2478967358955515
299.26752407881997442
299.28737995030189722
299.30613905822406196
299.32295841479680121
299.3373755294910552
299.34904341174933506
299.35873837691195831
299.36630631303029304
299.37309673156875078
299.37893806251236128
299.38451615757537638
299.39081056491886557
299.395651935123567
299.40307033834221784
299.1155628236888333
299.12488586527723555
299.14118568736125781
299.16267050218664281
299.18497406525165161
299.2034201593020839
299.21423076610972203
299.21564196947838354
299.20773287073183155
299.19247943089749242
299.17378207732633655
299.15620312057620822
299.14343361044632275
299.13710901740336112
299.13675592291053817
299.14129229315142311
299.1496643349819351
299.16163688626238581
299.17733430102299508
299.19601104920565149
299.21568840571711689
299.23166307425657351
299.23891562842948133
299.23445746791145439
299.2187903199958896
299.19629026914071801
299.17377089745662033
299.15818771145723076
299.15400433538502512
299.16174751288991729
299.17879072163958654
299.20155983148214318
299.20176376443367872
299.21599594133328992
299.23314243760671616
299.25267150982199382
299.27360717258159184
299.2944098264541708
299.31374608529080206
299.33015174383444901
299.34281738598184575
299.35158723163965533
299.35651253876341116
299.35903930581713439
299.35971770382866453
299.36058548521339162