/*--------------------------------*- C++ -*----------------------------------*\
  =========                 |
  \\      /  F ield         | OpenFOAM: The Open Source CFD Toolbox
   \\    /   O peration     | Website:  https://openfoam.org
    \\  /    A nd           | Version:  13
     \\/     M anipulation  |
\*---------------------------------------------------------------------------*/
FoamFile
{
    format      ascii;
    class       surfaceScalarField;
    location    "30";
    object      alphaRhoPhi.air3;
}
// * * * * * * * * * * * * * * * * * * * * * * * * * * * * * * * * * * * * * //

dimensions      [1 0 -1 0 0 0 0];

internalField   nonuniform List<scalar> 
109
(
-3.98884773e-64
-1.7299561e-58
-2.60599519e-46
2.48112911e-43
1.5253366e-16
3.15135028e-16
5.62647644e-16
1.25308822e-15
3.99792299e-15
1.42570953e-14
4.73339477e-14
1.40544684e-13
3.75610931e-13
9.16817147e-13
2.07210202e-12
4.38599215e-12
8.77501359e-12
1.67178364e-11
3.05140175e-11
5.36263487e-11
9.1122927e-11
1.50234037e-10
2.41044511e-10
3.77341362e-10
5.77619313e-10
8.66266373e-10
1.27495257e-09
1.84422604e-09
2.62532195e-09
3.68219817e-09
5.09379996e-09
6.95655391e-09
9.38709099e-09
1.25251924e-08
1.65369494e-08
2.1618126e-08
2.79977075e-08
3.59416165e-08
4.57565756e-08
5.77940916e-08
7.24545317e-08
9.01912648e-08
1.11514834e-07
1.36997128e-07
1.67275513e-07
2.03056899e-07
2.45121688e-07
2.94327584e-07
3.51613213e-07
4.18001537e-07
4.94602997e-07
5.82618388e-07
6.83341395e-07
7.98160797e-07
9.28562282e-07
1.07612986e-06
1.24254686e-06
1.42959646e-06
1.63916176e-06
1.87322539e-06
2.13386863e-06
2.42326997e-06
2.74370328e-06
3.09753538e-06
3.48722318e-06
3.91531022e-06
4.3844229e-06
4.89726602e-06
5.45661804e-06
6.06532581e-06
6.72629887e-06
7.4425034e-06
8.21695574e-06
9.05271561e-06
9.95287897e-06
1.09205706e-05
1.19589366e-05
1.3071136e-05
1.42603333e-05
1.55296898e-05
1.68823554e-05
1.832146e-05
1.98501052e-05
2.14713556e-05
2.31882302e-05
2.50036944e-05
2.6920651e-05
2.89419324e-05
3.10702923e-05
3.33083981e-05
3.56588227e-05
3.81240373e-05
4.07064042e-05
4.34081699e-05
4.62314586e-05
4.91782656e-05
5.22504519e-05
5.54497381e-05
5.87776997e-05
6.22357622e-05
6.58251969e-05
6.95471168e-05
7.34024734e-05
7.73920533e-05
8.15164701e-05
8.57761849e-05
9.01714525e-05
9.47019377e-05
9.93673591e-05
)
;

boundaryField
{
    inlet
    {
        type            calculated;
        value           uniform 0;
    }
    outlet
    {
        type            calculated;
        value           uniform 0.000104168546;
    }
    defaultFaces
    {
        type            empty;
    }
}


// ************************************************************************* //
