/*--------------------------------*- C++ -*----------------------------------*\
  =========                 |
  \\      /  F ield         | OpenFOAM: The Open Source CFD Toolbox
   \\    /   O peration     | Website:  https://openfoam.org
    \\  /    A nd           | Version:  13
     \\/     M anipulation  |
\*---------------------------------------------------------------------------*/
FoamFile
{
    format      ascii;
    class       volScalarField;
    location    "30";
    object      d.air2;
}
// * * * * * * * * * * * * * * * * * * * * * * * * * * * * * * * * * * * * * //

dimensions      [0 1 0 0 0 0 0];

internalField   nonuniform List<scalar> 
110
(
0.00306
0.00306
0.00306
0.00306
0.0030610809
0.00306034073
0.00306044251
0.00306054885
0.00306065509
0.00306076175
0.00306086915
0.00306097753
0.00306108704
0.0030611978
0.00306130987
0.00306142331
0.00306153818
0.00306165449
0.00306177227
0.00306189156
0.00306201235
0.00306213468
0.00306225854
0.00306238395
0.00306251091
0.00306263943
0.0030627695
0.00306290112
0.0030630343
0.00306316903
0.00306330529
0.00306344309
0.00306358241
0.00306372323
0.00306386556
0.00306400937
0.00306415464
0.00306430136
0.00306444951
0.00306459907
0.00306475002
0.00306490233
0.00306505597
0.00306521093
0.00306536717
0.00306552467
0.0030656834
0.00306584332
0.00306600441
0.00306616664
0.00306632996
0.00306649435
0.00306665976
0.00306682617
0.00306699354
0.00306716183
0.00306733101
0.00306750103
0.00306767185
0.00306784344
0.00306801575
0.00306818876
0.00306836241
0.00306853666
0.00306871148
0.00306888683
0.00306906266
0.00306923893
0.0030694156
0.00306959264
0.00306976999
0.00306994763
0.0030701255
0.00307030357
0.00307048181
0.00307066016
0.0030708386
0.00307101708
0.00307119556
0.00307137401
0.00307155239
0.00307173066
0.00307190879
0.00307208674
0.00307226448
0.00307244197
0.00307261917
0.00307279607
0.00307297261
0.00307314877
0.00307332453
0.00307349984
0.00307367469
0.00307384904
0.00307402286
0.00307419612
0.00307436881
0.00307454089
0.00307471234
0.00307488314
0.00307505326
0.00307522267
0.00307539137
0.00307555932
0.00307572651
0.00307589292
0.00307605852
0.00307622329
0.00307638719
0.00307655027
)
;

boundaryField
{
    inlet
    {
        type            calculated;
        value           uniform 0.00306;
    }
    outlet
    {
        type            calculated;
        value           uniform 0.00307655027;
    }
    defaultFaces
    {
        type            empty;
    }
}


// ************************************************************************* //
