/*--------------------------------*- C++ -*----------------------------------*\
  =========                 |
  \\      /  F ield         | OpenFOAM: The Open Source CFD Toolbox
   \\    /   O peration     | Website:  https://openfoam.org
    \\  /    A nd           | Version:  13
     \\/     M anipulation  |
\*---------------------------------------------------------------------------*/
FoamFile
{
    format      ascii;
    class       volScalarField;
    location    "30";
    object      d.air1;
}
// * * * * * * * * * * * * * * * * * * * * * * * * * * * * * * * * * * * * * //

dimensions      [0 1 0 0 0 0 0];

internalField   nonuniform List<scalar> 
110
(
0.003
0.003
0.003
0.003
0.00300031651
0.00300095463
0.00300159753
0.00300224058
0.00300288406
0.00300352772
0.00300417144
0.00300481505
0.00300545838
0.00300610121
0.00300674329
0.00300738434
0.00300802404
0.00300866205
0.003009298
0.00300993151
0.00301056216
0.00301118953
0.00301181319
0.00301243275
0.00301304777
0.00301365784
0.00301426255
0.00301486148
0.00301545428
0.00301604056
0.00301662
0.00301719228
0.00301775709
0.00301831418
0.00301886329
0.00301940421
0.00301993675
0.00302046073
0.00302097603
0.00302148252
0.00302198011
0.00302246872
0.00302294832
0.00302341888
0.00302388038
0.00302433283
0.00302477627
0.00302521073
0.00302563628
0.00302605298
0.00302646092
0.00302686018
0.00302725088
0.00302763312
0.00302800702
0.00302837271
0.00302873033
0.00302907999
0.00302942186
0.00302975606
0.00303008275
0.00303040207
0.00303071418
0.00303101922
0.00303131736
0.00303160872
0.00303189348
0.00303217178
0.00303244377
0.00303270959
0.00303296939
0.00303322333
0.00303347153
0.00303371414
0.0030339513
0.00303418315
0.00303440982
0.00303463144
0.00303484813
0.00303506003
0.00303526725
0.00303546992
0.00303566816
0.00303586207
0.00303605178
0.00303623738
0.003036419
0.00303659672
0.00303677066
0.0030369409
0.00303710756
0.00303727072
0.00303743046
0.00303758689
0.00303774008
0.00303789013
0.0030380371
0.00303818109
0.00303832216
0.0030384604
0.00303859587
0.00303872865
0.00303885881
0.0030389864
0.0030391115
0.00303923418
0.00303935448
0.00303947246
0.00303958818
0.00303970171
)
;

boundaryField
{
    inlet
    {
        type            calculated;
        value           uniform 0.003;
    }
    outlet
    {
        type            calculated;
        value           uniform 0.00303970171;
    }
    defaultFaces
    {
        type            empty;
    }
}


// ************************************************************************* //
