/*--------------------------------*- C++ -*----------------------------------*\
  =========                 |
  \\      /  F ield         | OpenFOAM: The Open Source CFD Toolbox
   \\    /   O peration     | Website:  https://openfoam.org
    \\  /    A nd           | Version:  13
     \\/     M anipulation  |
\*---------------------------------------------------------------------------*/
FoamFile
{
    format      ascii;
    class       volScalarField;
    location    "30";
    object      d.air3;
}
// * * * * * * * * * * * * * * * * * * * * * * * * * * * * * * * * * * * * * //

dimensions      [0 1 0 0 0 0 0];

internalField   nonuniform List<scalar> 
110
(
0.00311
0.00311
0.00311
0.00311
0.00311363837
0.00311434735
0.00311496198
0.00311549512
0.00311589181
0.00311606159
0.00311583151
0.00311501308
0.00311376498
0.00311263453
0.00311189877
0.00311148484
0.00311127685
0.0031111909
0.00311117348
0.00311119354
0.00311123411
0.00311128616
0.0031113449
0.00311140774
0.00311147325
0.00311154066
0.0031116095
0.00311167951
0.00311175053
0.00311182247
0.00311189527
0.0031119689
0.00311204333
0.00311211856
0.00311219458
0.00311227139
0.00311234899
0.00311242738
0.00311250657
0.00311258657
0.00311266737
0.00311274898
0.00311283141
0.00311291467
0.00311299875
0.00311308368
0.00311316945
0.00311325607
0.00311334355
0.00311343189
0.0031135211
0.00311361119
0.00311370216
0.00311379403
0.00311388679
0.00311398045
0.00311407503
0.00311417052
0.00311426693
0.00311436427
0.00311446255
0.00311456176
0.00311466193
0.00311476304
0.00311486512
0.00311496816
0.00311507217
0.00311517715
0.00311528312
0.00311539007
0.00311549801
0.00311560695
0.00311571689
0.00311582783
0.00311593978
0.00311605275
0.00311616674
0.00311628175
0.00311639778
0.00311651485
0.00311663295
0.00311675209
0.00311687227
0.00311699349
0.00311711576
0.00311723908
0.00311736344
0.00311748887
0.00311761534
0.00311774288
0.00311787147
0.00311800112
0.00311813183
0.00311826361
0.00311839644
0.00311853034
0.0031186653
0.00311880132
0.00311893841
0.00311907655
0.00311921576
0.00311935602
0.00311949734
0.00311963971
0.00311978313
0.0031199276
0.00312007312
0.00312021967
0.00312036724
0.00312051586
)
;

boundaryField
{
    inlet
    {
        type            calculated;
        value           uniform 0.00311;
    }
    outlet
    {
        type            calculated;
        value           uniform 0.00312051586;
    }
    defaultFaces
    {
        type            empty;
    }
}


// ************************************************************************* //
