/*--------------------------------*- C++ -*----------------------------------*\
  =========                 |
  \\      /  F ield         | OpenFOAM: The Open Source CFD Toolbox
   \\    /   O peration     | Website:  https://openfoam.org
    \\  /    A nd           | Version:  13
     \\/     M anipulation  |
\*---------------------------------------------------------------------------*/
FoamFile
{
    format      ascii;
    class       volScalarField;
    location    "30";
    object      d.bubbles;
}
// * * * * * * * * * * * * * * * * * * * * * * * * * * * * * * * * * * * * * //

dimensions      [0 1 0 0 0 0 0];

internalField   nonuniform List<scalar> 
110
(
0.00305600394
0.00305600394
0.00305600394
0.00305600394
0.003000317
0.00300095516
0.00300159805
0.0030022411
0.00300288462
0.00300352855
0.00300417278
0.00300481727
0.003005462
0.00300610695
0.00300675211
0.00300739745
0.00300804295
0.00300868859
0.00300933436
0.00300998023
0.00301062621
0.00301127226
0.00301191836
0.00301256455
0.00301321083
0.00301385717
0.00301450358
0.00301515004
0.00301579657
0.00301644317
0.00301708995
0.00301773684
0.00301838384
0.00301903098
0.00301967826
0.00302032571
0.00302097333
0.00302162114
0.00302226916
0.00302291741
0.00302356589
0.00302421463
0.00302486363
0.00302551292
0.00302616252
0.00302681242
0.00302746265
0.00302811322
0.00302876415
0.00302941543
0.00303006709
0.00303071914
0.00303137158
0.00303202442
0.00303267767
0.00303333133
0.00303398542
0.00303463994
0.00303529489
0.00303595028
0.00303660611
0.00303726238
0.0030379191
0.00303857627
0.00303923388
0.00303989194
0.00304055046
0.00304120942
0.00304186882
0.00304252868
0.00304318897
0.00304384971
0.00304451089
0.0030451725
0.00304583454
0.00304649701
0.0030471599
0.00304782321
0.00304848693
0.00304915106
0.00304981559
0.00305048052
0.00305114583
0.00305181153
0.0030524776
0.00305314404
0.00305381083
0.00305447798
0.00305514547
0.00305581328
0.00305648143
0.00305714988
0.00305781863
0.00305848768
0.003059157
0.00305982659
0.00306049643
0.00306116651
0.00306183682
0.00306250733
0.00306317805
0.00306384893
0.00306452002
0.00306519105
0.00306586305
0.0030665316
0.00306721559
0.00306783771
0.00306881107
0.00306948302
)
;

boundaryField
{
    inlet
    {
        type            calculated;
        value           uniform 0.00305600394;
    }
    outlet
    {
        type            calculated;
        value           uniform 0.00306948302;
    }
    defaultFaces
    {
        type            empty;
    }
}


// ************************************************************************* //
