/*--------------------------------*- C++ -*----------------------------------*\
  =========                 |
  \\      /  F ield         | OpenFOAM: The Open Source CFD Toolbox
   \\    /   O peration     | Website:  https://openfoam.org
    \\  /    A nd           | Version:  13
     \\/     M anipulation  |
\*---------------------------------------------------------------------------*/
FoamFile
{
    format      ascii;
    class       volScalarField;
    location    "30";
    object      f10.air2;
}
// * * * * * * * * * * * * * * * * * * * * * * * * * * * * * * * * * * * * * //

dimensions      [];

internalField   nonuniform List<scalar> 
110
(
2.21032288e-52
2.35576954e-40
3.18497016e-27
3.77287341e-12
0.00521387874
4.95192854e-05
1.11658132e-05
8.13550375e-06
1.1306215e-05
1.77570887e-05
2.73624339e-05
4.05589786e-05
5.79599691e-05
8.02621893e-05
0.000108216536
0.000142615784
0.000184287781
0.000234090572
0.000292908361
0.000361647887
0.000441234908
0.000532608542
0.000636722246
0.000754543208
0.000887042261
0.00103519116
0.00119996298
0.00138232932
0.00158325714
0.00180370615
0.00204462638
0.00230695585
0.00259161838
0.00289952144
0.00323155423
0.00358858573
0.00397146293
0.0043810092
0.00481802269
0.00528327492
0.00577750943
0.00630144056
0.00685575232
0.00744109734
0.00805809601
0.00870733563
0.0093893697
0.0101047173
0.0108538627
0.0116372546
0.0124553062
0.0133083947
0.0141968613
0.0151210109
0.0160811124
0.0170773985
0.0181100661
0.0191792764
0.0202851553
0.0214277935
0.0226072474
0.023823539
0.0250766571
0.0263665571
0.0276931626
0.0290563653
0.030456026
0.0318919754
0.033364015
0.0348719179
0.0364154292
0.0379942679
0.0396081266
0.0412566736
0.0429395529
0.0446563858
0.0464067716
0.0481902887
0.0500064955
0.0518549314
0.0537351179
0.0556465595
0.0575887449
0.0595611477
0.0615632274
0.0635944308
0.0656541923
0.0677419354
0.0698570735
0.0719990105
0.0741671423
0.0763608569
0.0785795362
0.080822556
0.0830892871
0.0853790966
0.0876913479
0.0900254018
0.0923806173
0.0947563524
0.0971519643
0.0995668107
0.10200025
0.104451642
0.106920345
0.109405729
0.111907149
0.114423734
0.116954768
0.119500209
)
;

boundaryField
{
    inlet
    {
        type            fixedValue;
        value           uniform 0;
    }
    outlet
    {
        type            zeroGradient;
    }
    defaultFaces
    {
        type            empty;
    }
}


// ************************************************************************* //
