/*--------------------------------*- C++ -*----------------------------------*\
  =========                 |
  \\      /  F ield         | OpenFOAM: The Open Source CFD Toolbox
   \\    /   O peration     | Website:  https://openfoam.org
    \\  /    A nd           | Version:  13
     \\/     M anipulation  |
\*---------------------------------------------------------------------------*/
FoamFile
{
    format      ascii;
    class       volScalarField;
    location    "30";
    object      f11.air3;
}
// * * * * * * * * * * * * * * * * * * * * * * * * * * * * * * * * * * * * * //

dimensions      [];

internalField   nonuniform List<scalar> 
110
(
1
1
1
1
0.735221412
0.686115233
0.64755187
0.618361209
0.600356057
0.598085335
0.62124539
0.678991546
0.757805187
0.823814248
0.864477678
0.886200348
0.89599465
0.89877926
0.897720203
0.894635813
0.890495382
0.885800485
0.880809781
0.875658337
0.870418295
0.865128936
0.85981225
0.854480891
0.849142339
0.843801147
0.838460173
0.833121277
0.827785713
0.822454357
0.817127852
0.811806684
0.806491241
0.801181842
0.795878757
0.790582222
0.785292451
0.780009636
0.774733957
0.769465583
0.764204674
0.758951382
0.753705855
0.748468235
0.74323866
0.738017266
0.732804185
0.727599546
0.722403477
0.717216104
0.712037551
0.706867943
0.7017074
0.696556045
0.691413998
0.68628138
0.68115831
0.676044908
0.670941293
0.665847585
0.660763903
0.655690368
0.650627098
0.645574214
0.640531836
0.635500086
0.630479085
0.625468956
0.620469821
0.615481803
0.610505027
0.605539617
0.600585701
0.595643403
0.590712852
0.585794176
0.580887505
0.575992969
0.571110699
0.566240828
0.56138349
0.556538819
0.551706951
0.546888022
0.542082171
0.537289538
0.532510261
0.527744483
0.522992347
0.518253996
0.513529575
0.508819231
0.504123112
0.499441365
0.494774141
0.490121591
0.485483868
0.480861124
0.476253514
0.471661195
0.46708433
0.462523063
0.457977585
0.453448491
0.448936012
0.444439303
)
;

boundaryField
{
    inlet
    {
        type            fixedValue;
        value           uniform 1;
    }
    outlet
    {
        type            zeroGradient;
    }
    defaultFaces
    {
        type            empty;
    }
}


// ************************************************************************* //
