/*--------------------------------*- C++ -*----------------------------------*\
  =========                 |
  \\      /  F ield         | OpenFOAM: The Open Source CFD Toolbox
   \\    /   O peration     | Website:  https://openfoam.org
    \\  /    A nd           | Version:  13
     \\/     M anipulation  |
\*---------------------------------------------------------------------------*/
FoamFile
{
    format      ascii;
    class       volScalarField;
    location    "30";
    object      f12.air3;
}
// * * * * * * * * * * * * * * * * * * * * * * * * * * * * * * * * * * * * * //

dimensions      [];

internalField   nonuniform List<scalar> 
110
(
1.2405133e-50
1.58817113e-38
1.57897463e-26
4.84110458e-13
0.228963716
0.250140663
0.262731297
0.267614709
0.266296126
0.256844372
0.234407658
0.195736332
0.151131043
0.118211996
0.0997167592
0.0906168497
0.0874066704
0.0877882902
0.0901431119
0.0934884766
0.0972985451
0.101309068
0.105390508
0.109479432
0.113544335
0.117569476
0.121546815
0.125472154
0.129343268
0.133158955
0.136918552
0.140621698
0.144268191
0.147857926
0.151390855
0.154866968
0.158286281
0.161648829
0.164954663
0.168203846
0.171396453
0.174532568
0.177612286
0.180635709
0.183602947
0.186514116
0.189369343
0.192168756
0.194912493
0.197600696
0.200233515
0.202811101
0.205333614
0.207801217
0.210214078
0.212572369
0.214876269
0.217125958
0.219321621
0.221463448
0.223551633
0.225586373
0.227567868
0.229496324
0.231371949
0.233194955
0.234965558
0.236683977
0.238350434
0.239965156
0.241528373
0.243040316
0.244501223
0.245911334
0.247270891
0.248580142
0.249839336
0.251048726
0.252208571
0.253319129
0.254380665
0.255393445
0.25635774
0.257273824
0.258141975
0.258962473
0.259735603
0.260461652
0.261140913
0.26177368
0.262360252
0.262900932
0.263396024
0.263845839
0.26425069
0.264610894
0.264926771
0.265198645
0.265426846
0.265611705
0.265753557
0.265852742
0.265909604
0.265924489
0.26589775
0.265829742
0.265720822
0.265571378
0.265381829
0.26515247
)
;

boundaryField
{
    inlet
    {
        type            fixedValue;
        value           uniform 0;
    }
    outlet
    {
        type            zeroGradient;
    }
    defaultFaces
    {
        type            empty;
    }
}


// ************************************************************************* //
