/*--------------------------------*- C++ -*----------------------------------*\
  =========                 |
  \\      /  F ield         | OpenFOAM: The Open Source CFD Toolbox
   \\    /   O peration     | Website:  https://openfoam.org
    \\  /    A nd           | Version:  13
     \\/     M anipulation  |
\*---------------------------------------------------------------------------*/
FoamFile
{
    format      ascii;
    class       volScalarField;
    location    "30";
    object      f13.air3;
}
// * * * * * * * * * * * * * * * * * * * * * * * * * * * * * * * * * * * * * //

dimensions      [];

internalField   nonuniform List<scalar> 
110
(
7.73017352e-101
1.70770577e-76
5.1174398e-39
6.99952905e-14
0.0541508463
0.0686474937
0.0811871959
0.0918658899
0.0993823943
0.102272541
0.097699976
0.0824355197
0.05918348
0.0380014179
0.0242981226
0.016597966
0.0125966745
0.0107463903
0.0101174997
0.0101770538
0.0106304977
0.0113176647
0.0121514086
0.0130837145
0.0140875298
0.0151472074
0.0162533845
0.0174002186
0.0185838755
0.0198016874
0.0210516757
0.022332275
0.0236421734
0.0249802165
0.0263453494
0.0277365813
0.0291529638
0.0305935769
0.0320575208
0.0335439099
0.0350518696
0.0365805341
0.0381290446
0.0396965484
0.0412821985
0.042885153
0.0445045752
0.0461396329
0.0477894988
0.0494533503
0.0511303695
0.0528197435
0.0545206638
0.0562323271
0.057953935
0.0596846939
0.0614238154
0.0631705163
0.0649240184
0.0666835489
0.0684483405
0.070217631
0.0719906641
0.0737666886
0.0755449595
0.077324737
0.0791052876
0.0808858833
0.0826658021
0.0844443284
0.0862207522
0.0879943701
0.0897644847
0.0915304051
0.0932914468
0.0950469319
0.0967961889
0.0985385531
0.100273367
0.101999978
0.103717744
0.105426027
0.107124196
0.10881163
0.110487712
0.112151834
0.113803396
0.115441804
0.117066473
0.118676825
0.120272291
0.121852307
0.123416321
0.124963786
0.126494165
0.128006928
0.129501555
0.130977533
0.132434358
0.133871536
0.13528858
0.136685013
0.138060366
0.139414181
0.140746005
0.142055403
0.143341934
0.144605057
0.14584435
0.147059688
)
;

boundaryField
{
    inlet
    {
        type            fixedValue;
        value           uniform 0;
    }
    outlet
    {
        type            zeroGradient;
    }
    defaultFaces
    {
        type            empty;
    }
}


// ************************************************************************* //
