/*--------------------------------*- C++ -*----------------------------------*\
  =========                 |
  \\      /  F ield         | OpenFOAM: The Open Source CFD Toolbox
   \\    /   O peration     | Website:  https://openfoam.org
    \\  /    A nd           | Version:  13
     \\/     M anipulation  |
\*---------------------------------------------------------------------------*/
FoamFile
{
    format      ascii;
    class       volScalarField;
    location    "30";
    object      f14.air3;
}
// * * * * * * * * * * * * * * * * * * * * * * * * * * * * * * * * * * * * * //

dimensions      [];

internalField   nonuniform List<scalar> 
110
(
2.83796881e-127
2.30466822e-77
2.6856514e-39
3.67337637e-14
0.0103898095
0.015186099
0.0202039432
0.0254810031
0.0301900672
0.0335274499
0.0341805662
0.030434367
0.0226061823
0.0143884535
0.00858805391
0.00513744235
0.00322037518
0.0021929451
0.00166535152
0.00141966246
0.00133706273
0.00135287175
0.00143152678
0.00155319166
0.00170663161
0.00188540552
0.00208579634
0.00230566402
0.00254379704
0.00279953871
0.00307256801
0.00336276656
0.00367014002
0.00399476822
0.00433677386
0.00469630263
0.00507351036
0.00546855467
0.00588158938
0.00631276097
0.00676220605
0.00723004974
0.00771640459
0.00822136983
0.00874503091
0.0092874592
0.00984871181
0.0104288315
0.0110278467
0.0116457713
0.0122826052
0.0129383337
0.0136129281
0.0143063458
0.0150185301
0.0157494105
0.0164989029
0.0172669095
0.0180533192
0.0188580078
0.0196808377
0.0205216585
0.021380307
0.0222566073
0.023150371
0.0240613975
0.0249894738
0.0259343752
0.026895865
0.0278736948
0.0288676048
0.0298773239
0.0309025698
0.0319430494
0.0329984586
0.034068483
0.0351527976
0.0362510674
0.037362947
0.0384880818
0.039626107
0.0407766488
0.041939324
0.0431137404
0.0442994971
0.0454961845
0.0467033848
0.047920672
0.049147612
0.0503837633
0.0516286766
0.0528818956
0.0541429569
0.0554113903
0.056686719
0.0579684601
0.0592561244
0.060549217
0.0618472375
0.06314968
0.0644560338
0.0657657831
0.0670784079
0.0683933835
0.0697101798
0.0710282683
0.0723471049
0.0736660222
0.0749844459
0.0763021364
)
;

boundaryField
{
    inlet
    {
        type            fixedValue;
        value           uniform 0;
    }
    outlet
    {
        type            zeroGradient;
    }
    defaultFaces
    {
        type            empty;
    }
}


// ************************************************************************* //
