/*--------------------------------*- C++ -*----------------------------------*\
  =========                 |
  \\      /  F ield         | OpenFOAM: The Open Source CFD Toolbox
   \\    /   O peration     | Website:  https://openfoam.org
    \\  /    A nd           | Version:  13
     \\/     M anipulation  |
\*---------------------------------------------------------------------------*/
FoamFile
{
    format      ascii;
    class       volScalarField;
    location    "30";
    object      f15.air3;
}
// * * * * * * * * * * * * * * * * * * * * * * * * * * * * * * * * * * * * * //

dimensions      [];

internalField   nonuniform List<scalar> 
110
(
3.15487451e-127
2.55909806e-77
2.98214088e-39
4.07890701e-14
0.00199110048
0.00340531612
0.00519210056
0.00745093688
0.00987886041
0.0121076225
0.0134931196
0.0130299673
0.0103906699
0.0069607061
0.00425770766
0.00253172739
0.00151899741
0.000941702706
0.000614409655
0.000429246118
0.000326220125
0.000272200014
0.000248717201
0.000245326363
0.000256039048
0.000277393919
0.000307397358
0.000344929883
0.00038940564
0.000440572826
0.000498394575
0.000562974625
0.000634512943
0.000713276638
0.000799581179
0.000893778049
0.000996246485
0.00110738785
0.00122762174
0.00135738323
0.00149712085
0.00164729519
0.00180837771
0.00198084997
0.00216520285
0.00236193607
0.00257155768
0.00279458365
0.00303153752
0.00328295003
0.00354935887
0.00383130832
0.00412934901
0.00444403762
0.00477593662
0.00512561402
0.00549364305
0.00588060198
0.00628707377
0.00671364586
0.00716090988
0.00762946138
0.0081198996
0.00863282711
0.00916884965
0.00972857573
0.0103126165
0.0109215852
0.0115560973
0.0122167698
0.012904221
0.0136190707
0.0143619389
0.0151334467
0.0159342151
0.0167648649
0.0176260166
0.0185182901
0.019442304
0.0203986756
0.0213880206
0.0224109525
0.0234680826
0.0245600194
0.0256873685
0.0268507319
0.0280507081
0.0292878914
0.0305628719
0.0318762346
0.0332285598
0.0346204219
0.0360523898
0.0375250261
0.0390388869
0.0405945212
0.0421924709
0.0438332702
0.0455174453
0.0472455138
0.0490179848
0.0508353581
0.052698124
0.0546067629
0.0565617419
0.0585635261
0.0606125512
0.0627090431
0.0648533473
0.0670463811
)
;

boundaryField
{
    inlet
    {
        type            fixedValue;
        value           uniform 0;
    }
    outlet
    {
        type            zeroGradient;
    }
    defaultFaces
    {
        type            empty;
    }
}


// ************************************************************************* //
