/*--------------------------------*- C++ -*----------------------------------*\
  =========                 |
  \\      /  F ield         | OpenFOAM: The Open Source CFD Toolbox
   \\    /   O peration     | Website:  https://openfoam.org
    \\  /    A nd           | Version:  13
     \\/     M anipulation  |
\*---------------------------------------------------------------------------*/
FoamFile
{
    format      ascii;
    class       volScalarField;
    location    "30";
    object      f3.air1;
}
// * * * * * * * * * * * * * * * * * * * * * * * * * * * * * * * * * * * * * //

dimensions      [];

internalField   nonuniform List<scalar> 
110
(
1.18267737e-102
5.00665176e-62
2.45342437e-31
1.21505664e-11
2.85246739e-05
0.000381674772
0.00117381439
0.00249910594
0.00442203485
0.00697810354
0.0101800319
0.0140217554
0.0184821937
0.0235283879
0.0291183318
0.0352033407
0.0417300963
0.0486424179
0.0558826848
0.0633931023
0.0711167147
0.078998058
0.0869840383
0.095024712
0.103073154
0.111085621
0.119022044
0.126846092
0.134525158
0.14203029
0.149336107
0.156420673
0.163265342
0.169854576
0.176175752
0.182218956
0.187976778
0.193444095
0.198617864
0.203496922
0.20808178
0.212374444
0.216378225
0.220097578
0.223537942
0.226705589
0.229607499
0.232251224
0.234644787
0.236796572
0.238715236
0.240409626
0.241888708
0.243161499
0.244237015
0.245124217
0.245831973
0.24636902
0.246743933
0.2469651
0.2470407
0.246978688
0.246786779
0.246472438
0.246042877
0.245505044
0.244865625
0.244131038
0.243307442
0.242400732
0.241416543
0.240360259
0.239237015
0.238051703
0.236808979
0.235513268
0.234168775
0.23277949
0.231349195
0.229881474
0.228379716
0.226847129
0.225286744
0.223701421
0.222093861
0.220466609
0.218822061
0.217162477
0.215489977
0.21380656
0.212114098
0.210414352
0.208708971
0.206999501
0.205287389
0.20357399
0.201860569
0.200148306
0.198438305
0.196731593
0.195029125
0.19333179
0.191640413
0.189955762
0.188278545
0.186609416
0.184948987
0.183297969
0.181656933
0.180025984
)
;

boundaryField
{
    inlet
    {
        type            fixedValue;
        value           uniform 0;
    }
    outlet
    {
        type            zeroGradient;
    }
    defaultFaces
    {
        type            empty;
    }
}

sources
{
    massSource
    {
        type            uniformFixedValue;
        uniformValue    
        {
            type            constant;
            value           0;
        }
    }
}


// ************************************************************************* //
