/*--------------------------------*- C++ -*----------------------------------*\
  =========                 |
  \\      /  F ield         | OpenFOAM: The Open Source CFD Toolbox
   \\    /   O peration     | Website:  https://openfoam.org
    \\  /    A nd           | Version:  13
     \\/     M anipulation  |
\*---------------------------------------------------------------------------*/
FoamFile
{
    format      ascii;
    class       volScalarField;
    location    "30";
    object      f6.air2;
}
// * * * * * * * * * * * * * * * * * * * * * * * * * * * * * * * * * * * * * //

dimensions      [];

internalField   nonuniform List<scalar> 
110
(
1
1
1
1
0.946478362
0.967413797
0.957514606
0.947697299
0.938102243
0.928646389
0.919290452
0.910011278
0.900794891
0.891632454
0.882518238
0.87344844
0.864420508
0.855432733
0.846484004
0.83757363
0.828701237
0.819866881
0.811070472
0.802311986
0.793591804
0.784910324
0.776268001
0.767665349
0.759102931
0.750581346
0.742101224
0.733663223
0.725268019
0.716916307
0.708608796
0.700346203
0.692129257
0.683958689
0.675835235
0.667759631
0.659732614
0.651754918
0.643827272
0.635950403
0.628125028
0.620351856
0.612631591
0.60496492
0.597352525
0.58979507
0.582293208
0.574847576
0.567458796
0.560127474
0.552854196
0.545639532
0.538484031
0.531388224
0.524352618
0.517377703
0.510463945
0.503611785
0.496821646
0.490093924
0.483428991
0.476827196
0.470288864
0.463814294
0.457403759
0.451057508
0.444775765
0.438558727
0.432406567
0.426319431
0.42029744
0.41434069
0.408449252
0.402623171
0.396862468
0.391167138
0.385537152
0.379972459
0.374472982
0.369038622
0.363669255
0.358364737
0.353124902
0.34794956
0.342838503
0.337791499
0.3328083
0.327888635
0.323032217
0.31823874
0.313507878
0.308839291
0.304232621
0.299687494
0.295203523
0.290780302
0.286417416
0.282114433
0.27787091
0.273686391
0.269560415
0.265492492
0.261482158
0.25752928
0.253633446
0.249793272
)
;

boundaryField
{
    inlet
    {
        type            fixedValue;
        value           uniform 1;
    }
    outlet
    {
        type            zeroGradient;
    }
    defaultFaces
    {
        type            empty;
    }
}


// ************************************************************************* //
