/*--------------------------------*- C++ -*----------------------------------*\
  =========                 |
  \\      /  F ield         | OpenFOAM: The Open Source CFD Toolbox
   \\    /   O peration     | Website:  https://openfoam.org
    \\  /    A nd           | Version:  13
     \\/     M anipulation  |
\*---------------------------------------------------------------------------*/
FoamFile
{
    format      ascii;
    class       volScalarField;
    location    "30";
    object      p_rgh;
}
// * * * * * * * * * * * * * * * * * * * * * * * * * * * * * * * * * * * * * //

dimensions      [1 -1 -2 0 0 0 0];

internalField   nonuniform List<scalar> 
110
(
96454.209
96454.209
96454.2085
96454.2077
100092.19
99859.2638
99881.5448
99876.8106
99878.5461
99880.5175
99882.6997
99884.9127
99887.127
99889.3275
99891.5104
99893.6743
99895.8188
99897.9437
99900.0491
99902.1377
99904.1945
99906.2437
99908.6817
99910.4335
99912.2641
99914.2028
99916.1452
99918.0669
99919.9678
99921.8487
99923.7083
99925.5479
99927.3662
99929.1642
99930.9407
99932.6969
99934.4315
99936.1455
99937.8385
99939.5103
99941.1608
99942.7899
99944.3975
99945.9836
99947.5481
99949.091
99950.6121
99952.1115
99953.5891
99955.0448
99956.4786
99957.8903
99959.2799
99960.6475
99961.9928
99963.3158
99964.6166
99965.8949
99967.1509
99968.3843
99969.5951
99970.7833
99971.9489
99973.0917
99974.2116
99975.3087
99976.3829
99977.434
99978.4621
99979.4671
99980.4489
99981.4075
99982.3427
99983.2546
99984.143
99985.0079
99985.8493
99986.667
99987.4611
99988.2314
99988.9779
99989.7004
99990.3991
99991.0737
99991.7243
99992.3506
99992.9528
99993.5307
99994.0843
99994.6134
99995.118
99995.5981
99996.0536
99996.4844
99996.8904
99997.2716
99997.6279
99997.9592
99998.2655
99998.5467
99998.8026
99999.0334
99999.2388
99999.4187
99999.5733
99999.7039
99999.8032
99999.8892
99999.984
100000
)
;

boundaryField
{
    inlet
    {
        type            fixedFluxPressure;
        gradient        uniform 0;
        value           uniform 96454.209;
    }
    outlet
    {
        type            prghPressure;
        p               uniform 100000;
        value           uniform 100000;
        rho             rho;
    }
    defaultFaces
    {
        type            empty;
    }
}


// ************************************************************************* //
