/*--------------------------------*- C++ -*----------------------------------*\
  =========                 |
  \\      /  F ield         | OpenFOAM: The Open Source CFD Toolbox
   \\    /   O peration     | Website:  https://openfoam.org
    \\  /    A nd           | Version:  13
     \\/     M anipulation  |
\*---------------------------------------------------------------------------*/
FoamFile
{
    format      ascii;
    class       surfaceScalarField;
    location    "30";
    object      phi.water;
}
// * * * * * * * * * * * * * * * * * * * * * * * * * * * * * * * * * * * * * //

dimensions      [0 3 -1 0 0 0 0];

internalField   nonuniform List<scalar> 
109
(
-2.81203637e-16
-6.46896246e-16
-7.66489995e-16
-0.000469301969
1.98393064e-11
-3.86818704e-06
8.50420332e-12
-3.05878778e-07
-2.43851424e-08
-2.21972757e-08
-5.37225111e-09
-2.88866909e-09
-1.74477236e-09
-1.63322572e-09
-1.7369459e-09
-2.01954385e-09
-2.34344514e-09
-2.74214055e-09
-3.50746563e-09
-2.93173874e-09
-5.95892655e-09
-4.6424462e-08
-6.15137365e-08
-2.32245159e-08
-3.08655232e-09
4.57056275e-12
-1.63893752e-12
-4.17159254e-12
8.77757848e-13
4.12470555e-12
3.47104287e-12
2.40606853e-12
1.7571679e-12
1.21131563e-12
5.60655262e-13
2.26188832e-14
2.93987382e-14
-6.85728807e-11
-1.60489229e-10
-2.51205692e-10
-3.34283349e-10
-4.08655837e-10
-4.75003099e-10
-5.34092536e-10
-5.86759926e-10
-6.3381664e-10
-6.75850096e-10
-7.13537061e-10
-7.47458045e-10
-7.78205686e-10
-8.06292423e-10
-8.32199889e-10
-8.56234305e-10
-8.78724416e-10
-8.99885778e-10
-9.19956485e-10
-9.3915197e-10
-9.57710877e-10
-9.7581229e-10
-9.93595095e-10
-1.01115809e-09
-1.02857911e-09
-1.04586762e-09
-1.06311374e-09
-1.08041249e-09
-1.09795952e-09
-1.1159351e-09
-1.13459071e-09
-1.15406486e-09
-1.174503e-09
-1.19593078e-09
-1.21830317e-09
-1.24158392e-09
-1.26570575e-09
-1.29067679e-09
-1.31651466e-09
-1.34332923e-09
-1.37123046e-09
-1.4003606e-09
-1.43081763e-09
-1.46271038e-09
-1.49610789e-09
-1.53106681e-09
-1.56760779e-09
-1.60576649e-09
-1.64558116e-09
-1.68707047e-09
-1.73026216e-09
-1.77518769e-09
-1.82189689e-09
-1.87047491e-09
-1.92103427e-09
-1.97378384e-09
-2.02897281e-09
-2.08691756e-09
-2.14796212e-09
-2.21246531e-09
-2.28077817e-09
-2.35323202e-09
-2.42998619e-09
-2.51197994e-09
-2.6115544e-09
-2.58267994e-09
-3.0995538e-09
-5.50130685e-09
5.00484048e-11
-2.72563231e-08
-2.43720197e-07
-3.51652838e-07
)
;

boundaryField
{
    inlet
    {
        type            fixedValue;
        value           uniform 0;
    }
    outlet
    {
        type            calculated;
        value           uniform 6.41375032e-11;
    }
    defaultFaces
    {
        type            empty;
    }
}


// ************************************************************************* //
