/*--------------------------------*- C++ -*----------------------------------*\
  =========                 |
  \\      /  F ield         | OpenFOAM: The Open Source CFD Toolbox
   \\    /   O peration     | Website:  https://openfoam.org
    \\  /    A nd           | Version:  13
     \\/     M anipulation  |
\*---------------------------------------------------------------------------*/
FoamFile
{
    format      ascii;
    class       surfaceScalarField;
    location    "30";
    object      phi.air3;
}
// * * * * * * * * * * * * * * * * * * * * * * * * * * * * * * * * * * * * * //

dimensions      [0 3 -1 0 0 0 0];

internalField   nonuniform List<scalar> 
109
(
0.00314161055
0.00301344216
0.0030882197
0.00230076329
0.00243744726
0.00251594905
0.00250373192
0.00250684695
0.00250631174
0.00250603572
0.00250542012
0.00250457899
0.00250366368
0.00250286952
0.00250222831
0.00250169132
0.0025012178
0.00250078053
0.00250036224
0.00249995512
0.00249956084
0.00249906587
0.00249863131
0.00249833168
0.00249797103
0.00249757885
0.00249718219
0.00249678545
0.00249638799
0.00249599085
0.00249559393
0.00249519654
0.00249479879
0.00249440067
0.00249400218
0.00249360331
0.0024932041
0.00249280435
0.0024924042
0.00249200369
0.00249160283
0.00249120163
0.00249080009
0.00249039822
0.00248999601
0.00248959346
0.00248919058
0.00248878736
0.00248838381
0.00248797993
0.00248757572
0.00248717118
0.0024867663
0.00248636111
0.00248595558
0.00248554973
0.00248514356
0.00248473706
0.00248433023
0.00248392309
0.00248351562
0.00248310783
0.00248269972
0.00248229129
0.00248188254
0.00248147347
0.00248106408
0.00248065436
0.00248024433
0.00247983397
0.00247942329
0.00247901229
0.00247860096
0.00247818931
0.00247777734
0.00247736504
0.00247695241
0.00247653945
0.00247612617
0.00247571255
0.0024752986
0.00247488432
0.0024744697
0.00247405475
0.00247363945
0.00247322381
0.00247280782
0.00247239149
0.00247197481
0.00247155777
0.00247114038
0.00247072263
0.00247030451
0.00246988603
0.00246946718
0.00246904795
0.00246862834
0.00246820834
0.00246778796
0.00246736717
0.00246694599
0.00246652437
0.00246610246
0.0024656804
0.00246524983
0.00246483752
0.00246441024
0.00246348944
0.00246280113
)
;

boundaryField
{
    inlet
    {
        type            fixedValue;
        value           uniform -0.00246;
    }
    outlet
    {
        type            calculated;
        value           uniform 0.00246307787;
    }
    defaultFaces
    {
        type            empty;
    }
}


// ************************************************************************* //
