/*--------------------------------*- C++ -*----------------------------------*\
  =========                 |
  \\      /  F ield         | OpenFOAM: The Open Source CFD Toolbox
   \\    /   O peration     | Website:  https://openfoam.org
    \\  /    A nd           | Version:  13
     \\/     M anipulation  |
\*---------------------------------------------------------------------------*/
FoamFile
{
    format      ascii;
    class       surfaceScalarField;
    location    "30";
    object      phi.air2;
}
// * * * * * * * * * * * * * * * * * * * * * * * * * * * * * * * * * * * * * //

dimensions      [0 3 -1 0 0 0 0];

internalField   nonuniform List<scalar> 
109
(
0.00311269637
0.00298970987
0.0030632747
0.00227793053
0.00241642891
0.0024938825
0.00248163484
0.00248456121
0.00248395954
0.00248373174
0.00248337327
0.00248301637
0.00248265188
0.00248228613
0.00248191952
0.00248155264
0.00248118538
0.00248081791
0.00248044963
0.00248008202
0.0024797216
0.00247925812
0.00247885335
0.00247858217
0.00247825017
0.00247788675
0.00247751912
0.0024771517
0.00247678412
0.00247641651
0.00247604881
0.00247568103
0.00247531318
0.00247494523
0.0024745772
0.00247420907
0.00247384086
0.00247347236
0.00247310372
0.00247273496
0.00247236607
0.00247199706
0.00247162791
0.00247125861
0.00247088915
0.0024705195
0.00247014967
0.00246977963
0.00246940938
0.00246903889
0.00246866814
0.00246829714
0.00246792585
0.00246755426
0.00246718236
0.00246681012
0.00246643754
0.0024660646
0.00246569127
0.00246531754
0.00246494339
0.0024645688
0.00246419376
0.00246381825
0.00246344224
0.00246306573
0.00246268869
0.0024623111
0.00246193294
0.0024615542
0.00246117485
0.00246079488
0.00246041428
0.00246003301
0.00245965107
0.00245926843
0.00245888508
0.002458501
0.00245811617
0.00245773057
0.00245734419
0.00245695701
0.002456569
0.00245618017
0.00245579048
0.00245539992
0.00245500847
0.00245461613
0.00245422286
0.00245382867
0.00245343352
0.00245303742
0.00245264033
0.00245224225
0.00245184316
0.00245144305
0.0024510419
0.00245063969
0.00245023642
0.00244983207
0.00244942662
0.00244902004
0.00244861246
0.00244820401
0.00244778636
0.00244738617
0.00244697018
0.00244606198
0.00244538512
)
;

boundaryField
{
    inlet
    {
        type            fixedValue;
        value           uniform -0.00246;
    }
    outlet
    {
        type            calculated;
        value           uniform 0.00244566618;
    }
    defaultFaces
    {
        type            empty;
    }
}


// ************************************************************************* //
