/*--------------------------------*- C++ -*----------------------------------*\
  =========                 |
  \\      /  F ield         | OpenFOAM: The Open Source CFD Toolbox
   \\    /   O peration     | Website:  https://openfoam.org
    \\  /    A nd           | Version:  13
     \\/     M anipulation  |
\*---------------------------------------------------------------------------*/
FoamFile
{
    format      ascii;
    class       volVectorField;
    location    "30";
    object      U.air2;
}
// * * * * * * * * * * * * * * * * * * * * * * * * * * * * * * * * * * * * * //

dimensions      [0 1 -1 0 0 0 0];

internalField   nonuniform List<vector> 
110
(
(0 0.278634818 0)
(0 0.305120312 0)
(0 0.302649228 0)
(0 0.267060261 0)
(0 0.234717972 0)
(0 0.245515571 0)
(0 0.248775867 0)
(0 0.248309803 0)
(0 0.248426038 0)
(0 0.248384564 0)
(0 0.248355251 0)
(0 0.248319482 0)
(0 0.248283413 0)
(0 0.248246901 0)
(0 0.248210283 0)
(0 0.248173608 0)
(0 0.248136901 0)
(0 0.248100164 0)
(0 0.248063377 0)
(0 0.248026583 0)
(0 0.247990181 0)
(0 0.247948986 0)
(0 0.247905573 0)
(0 0.247871776 0)
(0 0.247841617 0)
(0 0.247806846 0)
(0 0.247770294 0)
(0 0.247733541 0)
(0 0.247696791 0)
(0 0.247660031 0)
(0 0.247623266 0)
(0 0.247586492 0)
(0 0.24754971 0)
(0 0.24751292 0)
(0 0.247476122 0)
(0 0.247439313 0)
(0 0.247402496 0)
(0 0.247365661 0)
(0 0.247328804 0)
(0 0.247291934 0)
(0 0.247255051 0)
(0 0.247218157 0)
(0 0.247181249 0)
(0 0.247144326 0)
(0 0.247107388 0)
(0 0.247070433 0)
(0 0.247033459 0)
(0 0.246996465 0)
(0 0.246959451 0)
(0 0.246922413 0)
(0 0.246885351 0)
(0 0.246848264 0)
(0 0.246811149 0)
(0 0.246774005 0)
(0 0.246736831 0)
(0 0.246699624 0)
(0 0.246662383 0)
(0 0.246625107 0)
(0 0.246587793 0)
(0 0.24655044 0)
(0 0.246513046 0)
(0 0.246475609 0)
(0 0.246438128 0)
(0 0.2464006 0)
(0 0.246363025 0)
(0 0.246325399 0)
(0 0.246287721 0)
(0 0.246249989 0)
(0 0.246212202 0)
(0 0.246174357 0)
(0 0.246136452 0)
(0 0.246098487 0)
(0 0.246060458 0)
(0 0.246022364 0)
(0 0.245984204 0)
(0 0.245945975 0)
(0 0.245907676 0)
(0 0.245869304 0)
(0 0.245830858 0)
(0 0.245792337 0)
(0 0.245753738 0)
(0 0.24571506 0)
(0 0.2456763 0)
(0 0.245637458 0)
(0 0.245598532 0)
(0 0.24555952 0)
(0 0.245520419 0)
(0 0.24548123 0)
(0 0.245441949 0)
(0 0.245402577 0)
(0 0.24536311 0)
(0 0.245323547 0)
(0 0.245283887 0)
(0 0.245244129 0)
(0 0.245204271 0)
(0 0.245164311 0)
(0 0.245124247 0)
(0 0.24508408 0)
(0 0.245043806 0)
(0 0.245003424 0)
(0 0.244962934 0)
(0 0.244922333 0)
(0 0.244881625 0)
(0 0.244840823 0)
(0 0.244799519 0)
(0 0.244758627 0)
(0 0.244717817 0)
(0 0.244651608 0)
(0 0.244572355 0)
(0 0.244552565 0)
)
;

boundaryField
{
    inlet
    {
        type            fixedValue;
        value           uniform (0 0.246 0);
    }
    outlet
    {
        type            zeroGradient;
    }
    defaultFaces
    {
        type            empty;
    }
}

sources
{
    massSource
    {
        type            uniformFixedValue;
        uniformValue    
        {
            type            constant;
            value           (0 0 0);
        }
    }
}


// ************************************************************************* //
