/*--------------------------------*- C++ -*----------------------------------*\
  =========                 |
  \\      /  F ield         | OpenFOAM: The Open Source CFD Toolbox
   \\    /   O peration     | Website:  https://openfoam.org
    \\  /    A nd           | Version:  13
     \\/     M anipulation  |
\*---------------------------------------------------------------------------*/
FoamFile
{
    format      ascii;
    class       volVectorField;
    location    "30";
    object      U.air3;
}
// * * * * * * * * * * * * * * * * * * * * * * * * * * * * * * * * * * * * * //

dimensions      [0 1 -1 0 0 0 0];

internalField   nonuniform List<vector> 
110
(
(0 0.280080528 0)
(0 0.307752636 0)
(0 0.305083093 0)
(0 0.26944915 0)
(0 0.236910527 0)
(0 0.247669816 0)
(0 0.250984049 0)
(0 0.250528944 0)
(0 0.250657935 0)
(0 0.250617373 0)
(0 0.250572792 0)
(0 0.250499956 0)
(0 0.250412134 0)
(0 0.25032666 0)
(0 0.250254892 0)
(0 0.250195981 0)
(0 0.250145456 0)
(0 0.250099917 0)
(0 0.250057138 0)
(0 0.250015868 0)
(0 0.249975798 0)
(0 0.249931336 0)
(0 0.249884859 0)
(0 0.24984815 0)
(0 0.249815136 0)
(0 0.249777494 0)
(0 0.249738052 0)
(0 0.249698382 0)
(0 0.249658672 0)
(0 0.249618942 0)
(0 0.249579239 0)
(0 0.249539523 0)
(0 0.249499766 0)
(0 0.249459973 0)
(0 0.249420143 0)
(0 0.249380275 0)
(0 0.249340371 0)
(0 0.249300423 0)
(0 0.249260427 0)
(0 0.249220394 0)
(0 0.249180326 0)
(0 0.249140223 0)
(0 0.249100086 0)
(0 0.249059916 0)
(0 0.249019711 0)
(0 0.248979473 0)
(0 0.248939202 0)
(0 0.248898897 0)
(0 0.248858559 0)
(0 0.248818187 0)
(0 0.248777782 0)
(0 0.248737345 0)
(0 0.248696874 0)
(0 0.248656371 0)
(0 0.248615834 0)
(0 0.248575266 0)
(0 0.248534664 0)
(0 0.248494031 0)
(0 0.248453364 0)
(0 0.248412666 0)
(0 0.248371935 0)
(0 0.248331173 0)
(0 0.248290378 0)
(0 0.248249551 0)
(0 0.248208692 0)
(0 0.2481678 0)
(0 0.248126877 0)
(0 0.248085922 0)
(0 0.248044935 0)
(0 0.248003915 0)
(0 0.247962863 0)
(0 0.247921779 0)
(0 0.247880662 0)
(0 0.247839514 0)
(0 0.247798332 0)
(0 0.247757119 0)
(0 0.247715872 0)
(0 0.247674593 0)
(0 0.247633281 0)
(0 0.247591936 0)
(0 0.247550558 0)
(0 0.247509146 0)
(0 0.247467701 0)
(0 0.247426222 0)
(0 0.24738471 0)
(0 0.247343163 0)
(0 0.247301581 0)
(0 0.247259966 0)
(0 0.247218315 0)
(0 0.247176629 0)
(0 0.247134908 0)
(0 0.24709315 0)
(0 0.247051357 0)
(0 0.247009527 0)
(0 0.246967661 0)
(0 0.246925756 0)
(0 0.246883815 0)
(0 0.246841834 0)
(0 0.246799815 0)
(0 0.246757757 0)
(0 0.246715658 0)
(0 0.246673518 0)
(0 0.246631342 0)
(0 0.246589143 0)
(0 0.246546512 0)
(0 0.246504368 0)
(0 0.246462388 0)
(0 0.246394984 0)
(0 0.246314529 0)
(0 0.24629395 0)
)
;

boundaryField
{
    inlet
    {
        type            fixedValue;
        value           uniform (0 0.246 0);
    }
    outlet
    {
        type            zeroGradient;
    }
    defaultFaces
    {
        type            empty;
    }
}

sources
{
    massSource
    {
        type            uniformFixedValue;
        uniformValue    
        {
            type            constant;
            value           (0 0 0);
        }
    }
}


// ************************************************************************* //
