/*--------------------------------*- C++ -*----------------------------------*\
  =========                 |
  \\      /  F ield         | OpenFOAM: The Open Source CFD Toolbox
   \\    /   O peration     | Website:  https://openfoam.org
    \\  /    A nd           | Version:  13
     \\/     M anipulation  |
\*---------------------------------------------------------------------------*/
FoamFile
{
    format      ascii;
    class       volVectorField;
    location    "30";
    object      U.bubbles;
}
// * * * * * * * * * * * * * * * * * * * * * * * * * * * * * * * * * * * * * //

dimensions      [0 1 -1 0 0 0 0];

internalField   nonuniform List<vector> 
110
(
(0 0.278438794 0)
(0 0.305386208 0)
(0 0.299835461 0)
(0 0.264242492 0)
(0 0.233460287 0)
(0 0.242864642 0)
(0 0.246413143 0)
(0 0.245926623 0)
(0 0.246072493 0)
(0 0.246052048 0)
(0 0.246045232 0)
(0 0.246031685 0)
(0 0.24601786 0)
(0 0.24600355 0)
(0 0.245989094 0)
(0 0.245974533 0)
(0 0.245959887 0)
(0 0.245945156 0)
(0 0.245930317 0)
(0 0.24591541 0)
(0 0.245900828 0)
(0 0.245881413 0)
(0 0.245859729 0)
(0 0.245847548 0)
(0 0.245838924 0)
(0 0.245825647 0)
(0 0.245810529 0)
(0 0.245795144 0)
(0 0.245779696 0)
(0 0.245764173 0)
(0 0.245748584 0)
(0 0.245732923 0)
(0 0.245717192 0)
(0 0.245701391 0)
(0 0.245685521 0)
(0 0.245669582 0)
(0 0.245653576 0)
(0 0.245637496 0)
(0 0.245621338 0)
(0 0.245605113 0)
(0 0.245588824 0)
(0 0.24557247 0)
(0 0.245556054 0)
(0 0.245539576 0)
(0 0.245523035 0)
(0 0.245506432 0)
(0 0.245489767 0)
(0 0.245473041 0)
(0 0.245456253 0)
(0 0.245439405 0)
(0 0.245422495 0)
(0 0.245405524 0)
(0 0.245388492 0)
(0 0.245371399 0)
(0 0.245354246 0)
(0 0.245337032 0)
(0 0.245319756 0)
(0 0.24530242 0)
(0 0.245285023 0)
(0 0.245267564 0)
(0 0.245250044 0)
(0 0.245232462 0)
(0 0.245214819 0)
(0 0.245197114 0)
(0 0.245179346 0)
(0 0.245161516 0)
(0 0.245143623 0)
(0 0.245125667 0)
(0 0.245107647 0)
(0 0.245089563 0)
(0 0.245071415 0)
(0 0.245053202 0)
(0 0.245034925 0)
(0 0.245016581 0)
(0 0.244998172 0)
(0 0.244979696 0)
(0 0.244961153 0)
(0 0.244942543 0)
(0 0.244923866 0)
(0 0.244905119 0)
(0 0.244886304 0)
(0 0.244867419 0)
(0 0.244848464 0)
(0 0.244829438 0)
(0 0.244810341 0)
(0 0.244791172 0)
(0 0.24477193 0)
(0 0.244752616 0)
(0 0.244733227 0)
(0 0.244713763 0)
(0 0.244694224 0)
(0 0.244674609 0)
(0 0.244654917 0)
(0 0.244635147 0)
(0 0.244615298 0)
(0 0.24459537 0)
(0 0.24457536 0)
(0 0.24455527 0)
(0 0.244535096 0)
(0 0.244514838 0)
(0 0.244494496 0)
(0 0.244474066 0)
(0 0.244453555 0)
(0 0.244432968 0)
(0 0.244411935 0)
(0 0.244391197 0)
(0 0.244371177 0)
(0 0.244323331 0)
(0 0.244276466 0)
(0 0.24427715 0)
)
;

boundaryField
{
    inlet
    {
        type            calculated;
        value           uniform (0 0.246 0);
    }
    outlet
    {
        type            calculated;
        value           uniform (0 0.24427715 0);
    }
    defaultFaces
    {
        type            empty;
    }
}


// ************************************************************************* //
