# Selection       : all
# Cells           : 1
# Volume          : 1.0000000000e+00
# Time            	volAverage(alpha.gas)	volAverage(alpha.liquid)	volAverage(air.gas)	volAverage(H2O.gas)	volAverage(H2O.liquid)	volAverage(C3H8O.gas)	volAverage(C3H8O.liquid)	volAverage(p)	volAverage(T.gas)	volAverage(T.liquid)	volAverage(phaseChange:Ts)	volAverage(dMass.gas)	volAverage(dMass.liquid)	volAverage(dMass)	volAverage(dEnergy.gas)	volAverage(dEnergy.liquid)	volAverage(dEnergy)
0                 	9.9000000000e-01	1.0000000000e-02	1.0000000000e+00	0.0000000000e+00	5.0000000000e-01	0.0000000000e+00	5.0000000000e-01	1.0000000000e+05	3.5000000000e+02	3.5000000000e+02	3.5000000000e+02	0.0000000000e+00	0.0000000000e+00	0.0000000000e+00	0.0000000000e+00	0.0000000000e+00	0.0000000000e+00
0.0025            	9.9002477883e-01	9.9752211655e-03	9.7511656512e-01	3.9773583635e-03	5.0096597795e-01	2.0906076512e-02	4.9903402205e-01	1.1492784590e+05	3.4954673895e+02	3.4533163609e+02	3.3770905764e+02	1.5818826103e-01	-1.9783317789e-02	1.3840494324e-01	-1.6876609644e+05	-2.6741264668e+04	-1.9550736110e+05
0.005             	9.9004175907e-01	9.9582409288e-03	9.6266444037e-01	9.2318166280e-03	5.0110908695e-01	2.8103743001e-02	4.9889091305e-01	1.1659257625e+05	3.5027195966e+02	3.4459638621e+02	3.3759087366e+02	1.7299589762e-01	-3.4570228446e-02	1.3842566917e-01	-2.8748012709e+05	9.1854317324e+04	-1.9562580977e+05
0.0075            	9.9005824638e-01	9.9417536162e-03	9.5095213596e-01	1.3697079916e-02	5.0131067525e-01	3.5350784126e-02	4.9868932475e-01	1.1809251098e+05	3.5080781256e+02	3.4390942208e+02	3.3739121743e+02	1.8735647655e-01	-4.8781446292e-02	1.3857503026e-01	-3.9694283653e+05	2.0058144208e+05	-1.9636139445e+05
0.01              	9.9007422542e-01	9.9257745769e-03	9.3994617833e-01	1.7636615660e-02	5.0153970684e-01	4.2417206013e-02	4.9846029316e-01	1.1946245936e+05	3.5120586716e+02	3.4326234424e+02	3.3713576178e+02	2.0115306876e-01	-6.2476857894e-02	1.3867621087e-01	-4.9956074267e+05	3.0270437812e+05	-1.9685636455e+05
0.0125            	9.9008961109e-01	9.9103889114e-03	9.2963488267e-01	2.1162157457e-02	5.0178233320e-01	4.9202959870e-02	4.9821766680e-01	1.2072068314e+05	3.5149244751e+02	3.4265155384e+02	3.3687451442e+02	2.1435638636e-01	-7.5613374654e-02	1.3874301170e-01	-5.9614089690e+05	3.9894685479e+05	-1.9719404211e+05
0.015             	9.9010437606e-01	9.8956239416e-03	9.1998307721e-01	2.4343567271e-02	5.0203135356e-01	5.5673355516e-02	4.9796864644e-01	1.2188034017e+05	3.5168688520e+02	3.4207426385e+02	3.3661784127e+02	2.2697091820e-01	-8.8183575498e-02	1.3878734270e-01	-6.8723622918e+05	4.8980685211e+05	-1.9742937707e+05
0.0175            	9.9011852296e-01	9.8814770384e-03	9.1094600194e-01	2.7230481482e-02	5.0228272796e-01	6.1823516582e-02	4.9771727204e-01	1.2295188043e+05	3.5180428606e+02	3.4152804590e+02	3.3636824724e+02	2.3901635837e-01	-1.0019921697e-01	1.3881714140e-01	-7.7329470492e+05	5.7569826776e+05	-1.9759643716e+05
0.02              	9.9013206933e-01	9.8679306740e-03	9.0247673830e-01	2.9860896678e-02	5.0253406661e-01	6.7662365027e-02	4.9746593339e-01	1.2394400153e+05	3.5185681466e+02	3.4101071242e+02	3.3612628585e+02	2.5051883766e-01	-1.1168141959e-01	1.3883741808e-01	-8.5470344596e+05	6.5698671186e+05	-1.9771673410e+05
0.0225            	9.9014503970e-01	9.8549602965e-03	8.9452976011e-01	3.2265284473e-02	5.0278389788e-01	7.3204955420e-02	4.9721610212e-01	1.2486413952e+05	3.5185444351e+02	3.4052027166e+02	3.3589198126e+02	2.6150672725e-01	-1.2265539385e-01	1.3885133339e-01	-9.3180593273e+05	7.3400170058e+05	-1.9780423214e+05
0.025             	9.9015746155e-01	9.8425384484e-03	8.8706246214e-01	3.4468834856e-02	5.0303128866e-01	7.8468702999e-02	4.9696871134e-01	1.2571875977e+05	3.5180544846e+02	3.4005490255e+02	3.3566520236e+02	2.7200858701e-01	-1.3314767298e-01	1.3886091403e-01	-1.0049107460e+06	8.0704249681e+05	-1.9786824922e+05
0.0275            	9.9016936306e-01	9.8306369403e-03	8.8003569224e-01	3.6492807369e-02	5.0327563609e-01	8.3471500386e-02	4.9672436391e-01	1.2651354806e+05	3.5171676091e+02	3.3961293627e+02	3.3544576826e+02	2.8205215836e-01	-1.4318467105e-01	1.3886748731e-01	-1.0742970607e+06	8.7638189935e+05	-1.9791516133e+05
0.03              	9.9018077200e-01	9.8192279984e-03	8.7341380611e-01	3.8355411544e-02	5.0351654768e-01	8.8230782350e-02	4.9648345232e-01	1.2725354566e+05	3.5159422939e+02	3.3919284094e+02	3.3523347989e+02	2.9166388556e-01	-1.5279194414e-01	1.3887194141e-01	-1.1402186151e+06	9.4226918524e+05	-1.9794942987e+05
0.0325            	9.9019171514e-01	9.8082848599e-03	8.6716450265e-01	4.0072417222e-02	5.0375376926e-01	9.2763080128e-02	4.9624623074e-01	1.2794325047e+05	3.5144281945e+02	3.3879320828e+02	3.3502813030e+02	3.0086871307e-01	-1.6199383023e-01	1.3887488283e-01	-1.2029068233e+06	1.0049325849e+06	-1.9797423834e+05
0.035             	9.9020221794e-01	9.7977820635e-03	8.6125856800e-01	4.1657598519e-02	5.0398714006e-01	9.7083833477e-02	4.9601285994e-01	1.2858669562e+05	3.5126676963e+02	3.3841274180e+02	3.3482950861e+02	3.0969002935e-01	-1.7081329600e-01	1.3887673335e-01	-1.2625733283e+06	1.0645814308e+06	-1.9799189755e+05
0.0375            	9.9021230443e-01	9.7876955694e-03	8.5566959151e-01	4.3123069103e-02	5.0421656382e-01	1.0120733938e-01	4.9578343618e-01	1.2918751246e+05	3.5106971489e+02	3.3805024623e+02	3.3463740218e+02	3.1814968868e-01	-1.7927189758e-01	1.3887779110e-01	-1.3194121556e+06	1.1214080455e+06	-1.9800411010e+05
0.04              	9.9022199722e-01	9.7780027838e-03	8.5037368469e-01	4.4479542870e-02	5.0444198965e-01	1.0514677244e-01	4.9555801035e-01	1.2974898213e+05	3.5085478554e+02	3.3770461813e+02	3.3445159812e+02	3.2626807356e-01	-1.8738980366e-01	1.3887826990e-01	-1.3736015569e+06	1.1755894100e+06	-1.9801214697e+05
0.0425            	9.9023131747e-01	9.7686825287e-03	8.4534921732e-01	4.5736541279e-02	5.0466339905e-01	1.0891424140e-01	4.9533660095e-01	1.3027407838e+05	3.5062468724e+02	3.3737483746e+02	3.3427188454e+02	3.3406417674e-01	-1.9518585175e-01	1.3887832498e-01	-1.4253056088e+06	1.2272886410e+06	-1.9801696775e+05
0.045             	9.9024028502e-01	9.7597149840e-03	8.4057657655e-01	4.6902561270e-02	5.0488079694e-01	1.1252086218e-01	4.9511920306e-01	1.3076550371e+05	3.5038176641e+02	3.3705996006e+02	3.3409805172e+02	3.4155569125e-01	-2.0267762094e-01	1.3887807031e-01	-1.4746756074e+06	1.2766563032e+06	-1.9801930421e+05
0.0475            	9.9024891839e-01	9.7510816143e-03	8.3603795022e-01	4.7985213243e-02	5.0509420527e-01	1.1597683654e-01	4.9490579473e-01	1.3122572011e+05	3.5012806384e+02	3.3675911088e+02	3.3392989300e+02	3.4875910168e-01	-2.0988151140e-01	1.3887759028e-01	-1.5218512947e+06	1.3238315755e+06	-1.9801971925e+05
0.05              	9.9025723491e-01	9.7427650897e-03	8.3171713392e-01	4.8991335786e-02	5.0530365851e-01	1.1929153030e-01	4.9469634149e-01	1.3165697533e+05	3.4986535927e+02	3.3647147798e+02	3.3376720561e+02	3.5568977310e-01	-2.1681282519e-01	1.3887694791e-01	-1.5669619399e+06	1.3689432908e+06	-1.9801864914e+05
0.0525            	9.9026525079e-01	9.7347492056e-03	8.2759935987e-01	4.9927092014e-02	5.0550920027e-01	1.2247354811e-01	4.9449079973e-01	1.3206132574e+05	3.4959520834e+02	3.3619630704e+02	3.3360979131e+02	3.6236203560e-01	-2.2348584508e-01	1.3887619052e-01	-1.6101272980e+06	1.4121108638e+06	-1.9801643422e+05
0.055             	9.9027298120e-01	9.7270188041e-03	8.2367114566e-01	5.0798051141e-02	5.0571088089e-01	1.2553080320e-01	4.9428911911e-01	1.3244065607e+05	3.4931897363e+02	3.3593289651e+02	3.3345745687e+02	3.6878926360e-01	-2.2991390978e-01	1.3887535383e-01	-1.6514584629e+06	1.4534451214e+06	-1.9801334146e+05
0.0575            	9.9028044030e-01	9.7195596996e-03	8.1992016058e-01	5.1609258045e-02	5.0590875559e-01	1.2847058137e-01	4.9409124441e-01	1.3279669668e+05	3.4903785076e+02	3.3568059320e+02	3.3331001445e+02	3.7498394946e-01	-2.3610948458e-01	1.3887446488e-01	-1.6910586273e+06	1.4930490461e+06	-1.9800958126e+05
0.06              	9.9028764139e-01	9.7123586076e-03	8.1633510763e-01	5.2365292953e-02	5.0610288309e-01	1.3129959942e-01	4.9389711691e-01	1.3313103875e+05	3.4875289047e+02	3.3543878829e+02	3.3316728191e+02	3.8095777148e-01	-2.4208422729e-01	1.3887354419e-01	-1.7290237643e+06	1.5310184442e+06	-1.9800532010e+05
0.0625            	9.9029459692e-01	9.7054030787e-03	8.1290561915e-01	5.3070322947e-02	5.0629332456e-01	1.3402405790e-01	4.9370667544e-01	1.3344514763e+05	3.4846501737e+02	3.3520691378e+02	3.3302908294e+02	3.8672165646e-01	-2.4784904913e-01	1.3887260733e-01	-1.7654432367e+06	1.5674425466e+06	-1.9800069009e+05
0.065             	9.9030131856e-01	9.6986814378e-03	8.0962216462e-01	5.3728146612e-02	5.0648014281e-01	1.3664968877e-01	4.9351985719e-01	1.3374037465e+05	3.4817504592e+02	3.3498443918e+02	3.3289524721e+02	3.9228583710e-01	-2.5341417102e-01	1.3887166608e-01	-1.8004003468e+06	1.6024045505e+06	-1.9799579626e+05
0.0675            	9.9030781727e-01	9.6921827269e-03	8.0647596879e-01	5.4342232923e-02	5.0666340168e-01	1.3918179828e-01	4.9333659832e-01	1.3401796762e+05	3.4788369415e+02	3.3477086863e+02	3.3276561036e+02	3.9765990459e-01	-2.5878917524e-01	1.3887072934e-01	-1.8339728306e+06	1.6359821083e+06	-1.9799072228e+05
0.07              	9.9031410335e-01	9.6858966528e-03	8.0345893923e-01	5.4915755237e-02	5.0684316555e-01	1.4162530553e-01	4.9315683445e-01	1.3427908016e+05	3.4759159544e+02	3.3456573818e+02	3.3264001403e+02	4.0285285680e-01	-2.6398305303e-01	1.3886980377e-01	-1.8662333047e+06	1.6682477699e+06	-1.9798553479e+05
0.0725            	9.9032018646e-01	9.6798135392e-03	8.0056360179e-01	5.5451621130e-02	5.0701949899e-01	1.4398477708e-01	4.9298050101e-01	1.3452478003e+05	3.4729930864e+02	3.3436861337e+02	3.3251830576e+02	4.0787314241e-01	-2.6900424810e-01	1.3886889431e-01	-1.8972496704e+06	1.6992693835e+06	-1.9798028686e+05
0.075             	9.9032607572e-01	9.6739242821e-03	7.9778304322e-01	5.5952498667e-02	5.0719246643e-01	1.4626445811e-01	4.9280753357e-01	1.3475605661e+05	3.4700732688e+02	3.3417908700e+02	3.3240033896e+02	4.1272870123e-01	-2.7386069667e-01	1.3886800455e-01	-1.9270854804e+06	1.7291104598e+06	-1.9797502066e+05
0.0775            	9.9033177969e-01	9.6682203092e-03	7.9511085996e-01	5.6420839604e-02	5.0736213196e-01	1.4846830044e-01	4.9263786804e-01	1.3497382755e+05	3.4671608523e+02	3.3399677713e+02	3.3228597273e+02	4.1742700126e-01	-2.7855986420e-01	1.3886713707e-01	-1.9558002714e+06	1.7578305018e+06	-1.9796976960e+05
0.08              	9.9033730646e-01	9.6626935420e-03	7.9254111238e-01	5.6858899941e-02	5.0752855915e-01	1.5059998768e-01	4.9247144085e-01	1.3517894482e+05	3.4642596728e+02	3.3382132522e+02	3.3217507176e+02	4.2197507259e-01	-2.8310877898e-01	1.3886629361e-01	-1.9834498672e+06	1.7854853071e+06	-1.9796456007e+05
0.0825            	9.9034266364e-01	9.6573363618e-03	7.9006828385e-01	5.7268758187e-02	5.0769181090e-01	1.5266295797e-01	4.9230818910e-01	1.3537220016e+05	3.4613731099e+02	3.3365239445e+02	3.3206750618e+02	4.2637953843e-01	-2.8751406312e-01	1.3886547531e-01	-2.0100866541e+06	1.8121272414e+06	-1.9795941271e+05
0.085             	9.9034785842e-01	9.6521415777e-03	7.8768724398e-01	5.7652331616e-02	5.0785194934e-01	1.5466042441e-01	4.9214805066e-01	1.3555432993e+05	3.4585041373e+02	3.3348966815e+02	3.3196315139e+02	4.3064664376e-01	-2.9178196094e-01	1.3886468282e-01	-2.0357598336e+06	1.8378054900e+06	-1.9795434355e+05
0.0875            	9.9035289760e-01	9.6471023974e-03	7.8539321566e-01	5.8011390791e-02	5.0800903576e-01	1.5659539355e-01	4.9199096424e-01	1.3572601958e+05	3.4556553676e+02	3.3333284841e+02	3.3186188787e+02	4.3478228144e-01	-2.9591836504e-01	1.3886391640e-01	-2.0605156517e+06	1.8625662868e+06	-1.9794936489e+05
0.09              	9.9035778760e-01	9.6422124000e-03	7.8318174534e-01	5.8347572553e-02	5.0816313054e-01	1.5847068210e-01	4.9183686946e-01	1.3588790769e+05	3.4528290915e+02	3.3318165475e+02	3.3176360104e+02	4.3879201639e-01	-2.9992884035e-01	1.3886317604e-01	-2.0843976104e+06	1.8864531244e+06	-1.9794448599e+05
0.0925            	9.9036253449e-01	9.6374655118e-03	7.8104867630e-01	5.8662391674e-02	5.0831429308e-01	1.6028893203e-01	4.9168570692e-01	1.3604058956e+05	3.4500273122e+02	3.3303582293e+02	3.3166818107e+02	4.4268110775e-01	-3.0381864626e-01	1.3886246149e-01	-2.1074466601e+06	1.9095069465e+06	-1.9793971361e+05
0.095             	9.9036714402e-01	9.6328559830e-03	7.7899012444e-01	5.8957251329e-02	5.0846258180e-01	1.6205262423e-01	4.9153741820e-01	1.3618462061e+05	3.4472517760e+02	3.3289510387e+02	3.3157552269e+02	4.4645452931e-01	-3.0759275695e-01	1.3886177236e-01	-2.1297013774e+06	1.9317663248e+06	-1.9793505255e+05
0.0975            	9.9037162163e-01	9.6283783663e-03	7.7700245647e-01	5.9233452518e-02	5.0860805410e-01	1.6376409101e-01	4.9139194590e-01	1.3632051937e+05	3.4445039994e+02	3.3275926259e+02	3.3148552502e+02	4.5011698834e-01	-3.1125588023e-01	1.3886110811e-01	-2.1511981277e+06	1.9532676217e+06	-1.9793050595e+05
0.1               	9.9037597250e-01	9.6240274981e-03	7.7508227008e-01	5.9492202581e-02	5.0875076636e-01	1.6542552734e-01	4.9124923364e-01	1.3644877023e+05	3.4417852931e+02	3.3262807733e+02	3.3139809142e+02	4.5367294301e-01	-3.1481247489e-01	1.3886046812e-01	-2.1719712153e+06	1.9740451396e+06	-1.9792607566e+05
0.1025            	9.9038020152e-01	9.6197984798e-03	7.7322637599e-01	5.9734622879e-02	5.0889077389e-01	1.6703900113e-01	4.9110922611e-01	1.3656982603e+05	3.4390967833e+02	3.3250133863e+02	3.3131312927e+02	4.5712661842e-01	-3.1826676671e-01	1.3885985171e-01	-2.1920530212e+06	1.9941312588e+06	-1.9792176246e+05
0.105             	9.9038431334e-01	9.6156866615e-03	7.7143178165e-01	5.9961755753e-02	5.0902813099e-01	1.6860646260e-01	4.9097186901e-01	1.3668411028e+05	3.4364394306e+02	3.3237884854e+02	3.3123054984e+02	4.6048202146e-01	-3.2162276332e-01	1.3885925815e-01	-2.2114741307e+06	2.0135565644e+06	-1.9791756628e+05
0.1075            	9.9038831237e-01	9.6116876261e-03	7.6969567635e-01	6.0174570840e-02	5.0916289088e-01	1.7012975281e-01	4.9083710912e-01	1.3679201938e+05	3.4338140472e+02	3.3226041992e+02	3.3115026810e+02	4.6374295456e-01	-3.2488426789e-01	1.3885868667e-01	-2.2302634506e+06	2.0323499642e+06	-1.9791348637e+05
0.11              	9.9039220282e-01	9.6077971755e-03	7.6801541773e-01	6.0373970798e-02	5.0929510576e-01	1.7161061147e-01	4.9070489424e-01	1.3689392448e+05	3.4312213117e+02	3.3214587570e+02	3.3107220261e+02	4.6691302840e-01	-3.2805489188e-01	1.3885813652e-01	-2.2484483180e+06	2.0505387966e+06	-1.9790952143e+05
0.1125            	9.9039598868e-01	9.6040113168e-03	7.6638851940e-01	6.0560796525e-02	5.0942482679e-01	1.7305068407e-01	4.9057517321e-01	1.3699017333e+05	3.4286617831e+02	3.3203504829e+02	3.3099627530e+02	4.6999567374e-01	-3.3113806682e-01	1.3885760692e-01	-2.2660546010e+06	2.0681489312e+06	-1.9790566974e+05
0.115             	9.9039967375e-01	9.6003262501e-03	7.6481263970e-01	6.0735831906e-02	5.0955210412e-01	1.7445152840e-01	4.9044789588e-01	1.3708109186e+05	3.4261359124e+02	3.3192777897e+02	3.3092241137e+02	4.7299415234e-01	-3.3413705524e-01	1.3885709710e-01	-2.2831067912e+06	2.0852048620e+06	-1.9790192925e+05
0.1175            	9.9040326164e-01	9.5967383572e-03	7.6328557132e-01	6.0899808144e-02	5.0967698687e-01	1.7581462054e-01	4.9032301313e-01	1.3716698576e+05	3.4236440539e+02	3.3182391732e+02	3.3085053913e+02	4.7591156715e-01	-3.3705496085e-01	1.3885660630e-01	-2.2996280907e+06	2.1017297931e+06	-1.9789829765e+05
0.12              	9.9040675581e-01	9.5932441906e-03	7.6180523191e-01	6.1053407721e-02	5.0979952316e-01	1.7714136036e-01	4.9020047684e-01	1.3724814183e+05	3.4211864751e+02	3.3172332076e+02	3.3078058985e+02	4.7875087176e-01	-3.3989473800e-01	1.3885613376e-01	-2.3156404914e+06	2.1177457190e+06	-1.9789477244e+05
0.1225            	9.9041015954e-01	9.5898404639e-03	7.6036965537e-01	6.1197268012e-02	5.0991976014e-01	1.7843307661e-01	4.9008023986e-01	1.3732482927e+05	3.4187633649e+02	3.3162585405e+02	3.3071249766e+02	4.8151487921e-01	-3.4265920043e-01	1.3885567878e-01	-2.3311648497e+06	2.1332734988e+06	-1.9789135099e+05
0.125             	9.9041347596e-01	9.5865240420e-03	7.5897698389e-01	6.1331984602e-02	5.1003774397e-01	1.7969103150e-01	4.8996225603e-01	1.3739730090e+05	3.4163748422e+02	3.3153138882e+02	3.3064619939e+02	4.8420627013e-01	-3.4535102950e-01	1.3885524063e-01	-2.3462209555e+06	2.1483329250e+06	-1.9788803057e+05
0.1275            	9.9041670807e-01	9.5832919333e-03	7.5762546064e-01	6.1458114324e-02	5.1015351988e-01	1.8091642504e-01	4.8984648012e-01	1.3746579420e+05	3.4140209626e+02	3.3143980323e+02	3.3058163448e+02	4.8682760044e-01	-3.4797278180e-01	1.3885481863e-01	-2.3608275963e+06	2.1629427879e+06	-1.9788480840e+05
0.13              	9.9041985872e-01	9.5801412806e-03	7.5631342300e-01	6.1576178047e-02	5.1026713213e-01	1.8211039895e-01	4.8973286787e-01	1.3753053239e+05	3.4117017253e+02	3.3135098153e+02	3.3051874483e+02	4.8938130839e-01	-3.5052689626e-01	1.3885441212e-01	-2.3750026171e+06	2.1771209355e+06	-1.9788168166e+05
0.1325            	9.9042293065e-01	9.5770693546e-03	7.5503929642e-01	6.1686663238e-02	5.1037862408e-01	1.8327404034e-01	4.8962137592e-01	1.3759172532e+05	3.4094170783e+02	3.3126481371e+02	3.3045747471e+02	4.9186972126e-01	-3.5301570080e-01	1.3885402046e-01	-2.3887629760e+06	2.1908843285e+06	-1.9787864752e+05
0.135             	9.9042592645e-01	9.5740735460e-03	7.5380158861e-01	6.1790026320e-02	5.1048803818e-01	1.8440838507e-01	4.8951196182e-01	1.3764957038e+05	3.4071669244e+02	3.3118119519e+02	3.3039777065e+02	4.9429506153e-01	-3.5544141849e-01	1.3885364303e-01	-2.4021247962e+06	2.2042490930e+06	-1.9787570318e+05
0.1375            	9.9042884864e-01	9.5711513595e-03	7.5259888432e-01	6.1886694841e-02	5.1059541596e-01	1.8551442084e-01	4.8940458404e-01	1.3770425326e+05	3.4049511255e+02	3.3110002650e+02	3.3033958133e+02	4.9665945268e-01	-3.5780617343e-01	1.3885327925e-01	-2.4151034144e+06	2.2172305686e+06	-1.9787284585e+05
0.14              	9.9043169959e-01	9.5683004075e-03	7.5142984039e-01	6.1977069475e-02	5.1070079813e-01	1.8659309014e-01	4.8929920187e-01	1.3775594877e+05	3.4027695070e+02	3.3102121298e+02	3.3028285751e+02	4.9896492461e-01	-3.6011199607e-01	1.3885292854e-01	-2.4277134260e+06	2.2298433532e+06	-1.9787007278e+05
0.1425            	9.9043448160e-01	9.5655184042e-03	7.5029318128e-01	6.2061525865e-02	5.1080422450e-01	1.8764529285e-01	4.8919577550e-01	1.3780482146e+05	3.4006218618e+02	3.3094466452e+02	3.3022755189e+02	5.0121341872e-01	-3.6236082836e-01	1.3885259036e-01	-2.4399687274e+06	2.2421013461e+06	-1.9786738129e+05
0.145             	9.9043719684e-01	9.5628031604e-03	7.4918769486e-01	6.2140416330e-02	5.1090573407e-01	1.8867188881e-01	4.8909426593e-01	1.3785102634e+05	3.3985079539e+02	3.3087029528e+02	3.3017361906e+02	5.0340679263e-01	-3.6455452844e-01	1.3885226419e-01	-2.4518825555e+06	2.2540177867e+06	-1.9786476873e+05
0.1475            	9.9043984742e-01	9.5601525783e-03	7.4811222851e-01	6.2214071436e-02	5.1100536499e-01	1.8967370006e-01	4.8899463501e-01	1.3789470941e+05	3.3964275215e+02	3.3079802348e+02	3.3012101541e+02	5.0554682468e-01	-3.6669487515e-01	1.3885194953e-01	-2.4634675244e+06	2.2656052919e+06	-1.9786223253e+05
0.15              	9.9044243535e-01	9.5575646466e-03	7.4706568555e-01	6.2282801456e-02	5.1110315462e-01	1.9065151300e-01	4.8889684538e-01	1.3793600829e+05	3.3943802801e+02	3.3072777118e+02	3.3006969904e+02	5.0763521806e-01	-3.6878357215e-01	1.3885164591e-01	-2.4747356605e+06	2.2768758903e+06	-1.9785977017e+05
0.1525            	9.9044496256e-01	9.5550374366e-03	7.4604702186e-01	6.2346897714e-02	5.1119913954e-01	1.9160608043e-01	4.8880086046e-01	1.3797505270e+05	3.3923659248e+02	3.3065946405e+02	3.3001962967e+02	5.0967360476e-01	-3.7082225189e-01	1.3885135287e-01	-2.4856984344e+06	2.2878410552e+06	-1.9785737922e+05
0.155             	9.9044743090e-01	9.5525690974e-03	7.4505524280e-01	6.2406633839e-02	5.1129335554e-01	1.9253812336e-01	4.8870664446e-01	1.3801196495e+05	3.3903841333e+02	3.3059303117e+02	3.2997076862e+02	5.1166354919e-01	-3.7281247923e-01	1.3885106997e-01	-2.4963667914e+06	2.2985117341e+06	-1.9785505729e+05
0.1575            	9.9044984215e-01	9.5501578522e-03	7.4408940030e-01	6.2462266918e-02	5.1138583766e-01	1.9344833278e-01	4.8861416234e-01	1.3804686040e+05	3.3884345675e+02	3.3052840486e+02	3.2992307866e+02	5.1360655173e-01	-3.7475575493e-01	1.3885079679e-01	-2.5067511802e+06	2.3088983781e+06	-1.9785280210e+05
0.16              	9.9045219801e-01	9.5478019948e-03	7.4314859016e-01	6.2514038573e-02	5.1147662020e-01	1.9433737127e-01	4.8852337980e-01	1.3807984791e+05	3.3865168759e+02	3.3046552052e+02	3.2987652402e+02	5.1550405187e-01	-3.7665351892e-01	1.3885053295e-01	-2.5168615792e+06	2.3190109677e+06	-1.9785061142e+05
0.1625            	9.9045450011e-01	9.5454998859e-03	7.4223194956e-01	6.2562175961e-02	5.1156573673e-01	1.9520587448e-01	4.8843426327e-01	1.3811103018e+05	3.3846306952e+02	3.3040431643e+02	3.2983107029e+02	5.1735743136e-01	-3.7850715330e-01	1.3885027806e-01	-2.5267075219e+06	2.3288590388e+06	-1.9784848308e+05
0.165             	9.9045675005e-01	9.5432499496e-03	7.4133865469e-01	6.2606892696e-02	5.1165322012e-01	1.9605445261e-01	4.8834677988e-01	1.3814050417e+05	3.3827756522e+02	3.3034473363e+02	3.2978668434e+02	5.1916801701e-01	-3.8031798526e-01	1.3885003175e-01	-2.5362981203e+06	2.3384517053e+06	-1.9784641500e+05
0.1675            	9.9045894933e-01	9.5410506708e-03	7.4046791860e-01	6.2648389713e-02	5.1173910253e-01	1.9688369168e-01	4.8826089747e-01	1.3816836140e+05	3.3809513649e+02	3.3028671576e+02	3.2974333433e+02	5.2093708343e-01	-3.8208728974e-01	1.3884979368e-01	-2.5456420872e+06	2.3477976820e+06	-1.9784440518e+05
0.17              	9.9046109941e-01	9.5389005921e-03	7.3961898914e-01	6.2686856073e-02	5.1182341546e-01	1.9769415479e-01	4.8817658454e-01	1.3819468833e+05	3.3791574443e+02	3.3023020892e+02	3.2970098956e+02	5.2266585558e-01	-3.8381629205e-01	1.3884956353e-01	-2.5547477567e+06	2.3569053050e+06	-1.9784245167e+05
0.1725            	9.9046320169e-01	9.5367983107e-03	7.3879114704e-01	6.2722469704e-02	5.1190618972e-01	1.9848638326e-01	4.8809381028e-01	1.3821956661e+05	3.3773934953e+02	3.3017516157e+02	3.2965962051e+02	5.2435551118e-01	-3.8550617021e-01	1.3884934097e-01	-2.5636231039e+06	2.3657825513e+06	-1.9784055259e+05
0.175             	9.9046525752e-01	9.5347424766e-03	7.3798370414e-01	6.2755398100e-02	5.1198745550e-01	1.9926089776e-01	4.8801254450e-01	1.3824307337e+05	3.3756591181e+02	3.3012152438e+02	3.2961919874e+02	5.2600718295e-01	-3.8715805724e-01	1.3884912571e-01	-2.5722757637e+06	2.3744370575e+06	-1.9783870614e+05
0.1775            	9.9046726821e-01	9.5327317892e-03	7.3719600175e-01	6.2785798966e-02	5.1206724232e-01	2.0001819929e-01	4.8793275768e-01	1.3826528152e+05	3.3739539090e+02	3.3006925012e+02	3.2957969683e+02	5.2762196076e-01	-3.8877304331e-01	1.3884891745e-01	-2.5807130473e+06	2.3828761368e+06	-1.9783691056e+05
0.18              	9.9046923500e-01	9.5307649957e-03	7.3642740901e-01	6.2813820826e-02	5.1214557911e-01	2.0075877016e-01	4.8785442089e-01	1.3828625996e+05	3.3722774616e+02	3.3001829359e+02	3.2954108840e+02	5.2920089368e-01	-3.9035217776e-01	1.3884871592e-01	-2.5889419596e+06	2.3911067954e+06	-1.9783516419e+05
0.1825            	9.9047115911e-01	9.5288408886e-03	7.3567732151e-01	6.2839603585e-02	5.1222249416e-01	2.0148307490e-01	4.8777750584e-01	1.3830607382e+05	3.3706293672e+02	3.2996861145e+02	3.2950334800e+02	5.3074499184e-01	-3.9189647097e-01	1.3884852087e-01	-2.5969692136e+06	2.3991357482e+06	-1.9783346540e+05
0.185             	9.9047304170e-01	9.5269583038e-03	7.3494515987e-01	6.2863279053e-02	5.1229801519e-01	2.0219156108e-01	4.8770198481e-01	1.3832478470e+05	3.3690092160e+02	3.2992016220e+02	3.2946645108e+02	5.3225522824e-01	-3.9340689621e-01	1.3884833203e-01	-2.6048012456e+06	2.4069694329e+06	-1.9783181263e+05
0.1875            	9.9047488388e-01	9.5251161183e-03	7.3423036842e-01	6.2884971442e-02	5.1237216932e-01	2.0288466014e-01	4.8762783068e-01	1.3834245085e+05	3.3674165978e+02	3.2987290605e+02	3.2943037400e+02	5.3373254049e-01	-3.9488439132e-01	1.3884814917e-01	-2.6124442285e+06	2.4146140242e+06	-1.9783020437e+05
0.19              	9.9047668675e-01	9.5233132491e-03	7.3353241407e-01	6.2904797819e-02	5.1244498310e-01	2.0356278811e-01	4.8755501690e-01	1.3835912735e+05	3.3658511021e+02	3.2982680483e+02	3.2939509393e+02	5.3517783240e-01	-3.9632986033e-01	1.3884797206e-01	-2.6199040851e+06	2.4220754459e+06	-1.9782863918e+05
0.1925            	9.9047845135e-01	9.5215486503e-03	7.3285078510e-01	6.2922868542e-02	5.1251648255e-01	2.0422634635e-01	4.8748351745e-01	1.3837486633e+05	3.3643123195e+02	3.2978182194e+02	3.2936058885e+02	5.3659197547e-01	-3.9774417498e-01	1.3884780049e-01	-2.6271864999e+06	2.4293593842e+06	-1.9782711567e+05
0.195             	9.9048017869e-01	9.5198213127e-03	7.3218499013e-01	6.2939287654e-02	5.1258669311e-01	2.0487572222e-01	4.8741330689e-01	1.3838971713e+05	3.3627998413e+02	3.2973792225e+02	3.2932683752e+02	5.3797581039e-01	-3.9912817616e-01	1.3884763423e-01	-2.6342969308e+06	2.4364712983e+06	-1.9782563247e+05
0.1975            	9.9048186974e-01	9.5181302613e-03	7.3153455707e-01	6.2954153269e-02	5.1265563969e-01	2.0551128966e-01	4.8734436031e-01	1.3840372640e+05	3.3613132607e+02	3.2969507203e+02	3.2929381943e+02	5.3933014839e-01	-4.0048267529e-01	1.3884747310e-01	-2.6412406201e+06	2.4434164317e+06	-1.9782418831e+05
0.2               	9.9048352545e-01	9.5164745542e-03	7.3089903223e-01	6.2967557913e-02	5.1272334671e-01	2.0613340985e-01	4.8727665329e-01	1.3841693834e+05	3.3598521729e+02	3.2965323891e+02	3.2926151477e+02	5.4065577252e-01	-4.0180845561e-01	1.3884731690e-01	-2.6480226044e+06	2.4501998225e+06	-1.9782278193e+05
0.2025            	9.9048514672e-01	9.5148532812e-03	7.3027797939e-01	6.2979588861e-02	5.1278983805e-01	2.0674243175e-01	4.8721016195e-01	1.3842939478e+05	3.3584161754e+02	3.2961239176e+02	3.2922990442e+02	5.4195343886e-01	-4.0310627341e-01	1.3884716545e-01	-2.6546477250e+06	2.4568263129e+06	-1.9782141214e+05
0.205             	9.9048673444e-01	9.5132655622e-03	7.2967097895e-01	6.2990328445e-02	5.1285513710e-01	2.0733869260e-01	4.8714486290e-01	1.3844113530e+05	3.3570048688e+02	3.2957250072e+02	3.2919896989e+02	5.4322387776e-01	-4.0437685918e-01	1.3884701857e-01	-2.6611206364e+06	2.4633005586e+06	-1.9782007777e+05
0.2075            	9.9048828945e-01	9.5117105463e-03	7.2907762717e-01	6.2999854338e-02	5.1291926676e-01	2.0792251849e-01	4.8708073324e-01	1.3845219742e+05	3.3556178562e+02	3.2953353703e+02	3.2916869333e+02	5.4446779486e-01	-4.0562091875e-01	1.3884687610e-01	-2.6674458153e+06	2.4696270376e+06	-1.9781877772e+05
0.21              	9.9048981259e-01	9.5101874103e-03	7.2849753540e-01	6.3008239834e-02	5.1298224946e-01	2.0849422477e-01	4.8701775054e-01	1.3846261666e+05	3.3542547446e+02	3.2949547307e+02	3.2913905748e+02	5.4568587218e-01	-4.0683913430e-01	1.3884673788e-01	-2.6736275691e+06	2.4758100582e+06	-1.9781751091e+05
0.2125            	9.9049130464e-01	9.5086953578e-03	7.2793032937e-01	6.3015554094e-02	5.1304410716e-01	2.0905411654e-01	4.8695589284e-01	1.3847242665e+05	3.3529151441e+02	3.2945828226e+02	3.2911004566e+02	5.4687876913e-01	-4.0803216538e-01	1.3884660375e-01	-2.6796700431e+06	2.4818537668e+06	-1.9781627631e+05
0.215             	9.9049276638e-01	9.5072336177e-03	7.2737564853e-01	6.3021862391e-02	5.1310486136e-01	2.0960248907e-01	4.8689513864e-01	1.3848165928e+05	3.3515986690e+02	3.2942193904e+02	3.2908164174e+02	5.4804712342e-01	-4.0920064985e-01	1.3884647357e-01	-2.6855772285e+06	2.4877621556e+06	-1.9781507292e+05
0.2175            	9.9049419856e-01	9.5058014437e-03	7.2683314544e-01	6.3027226331e-02	5.1316453313e-01	2.1013962823e-01	4.8683546687e-01	1.3849034474e+05	3.3503049372e+02	3.2938641880e+02	3.2905383010e+02	5.4919155198e-01	-4.1034520479e-01	1.3884634719e-01	-2.6913529690e+06	2.4935390693e+06	-1.9781389978e+05
0.22              	9.9049560189e-01	9.5043981128e-03	7.2630248513e-01	6.3031704064e-02	5.1322314308e-01	2.1066581081e-01	4.8677685692e-01	1.3849851165e+05	3.3490335710e+02	3.2935169784e+02	3.2902659564e+02	5.5031265180e-01	-4.1146642732e-01	1.3884622448e-01	-2.6970009677e+06	2.4991882118e+06	-1.9781275597e+05
0.2225            	9.9049697708e-01	9.5030229247e-03	7.2578334457e-01	6.3035350483e-02	5.1328071141e-01	2.1118130495e-01	4.8671928859e-01	1.3850618714e+05	3.3477841969e+02	3.2931775334e+02	3.2899992375e+02	5.5141100076e-01	-4.1256489545e-01	1.3884610531e-01	-2.7025247932e+06	2.5047131526e+06	-1.9781164059e+05
0.225             	9.9049832480e-01	9.5016752008e-03	7.2527541212e-01	6.3038217408e-02	5.1333725789e-01	2.1168637047e-01	4.8666274211e-01	1.3851339690e+05	3.3465564458e+02	3.2928456331e+02	3.2897380030e+02	5.5248715841e-01	-4.1364116884e-01	1.3884598956e-01	-2.7079278856e+06	2.5101173328e+06	-1.9781055279e+05
0.2275            	9.9049964572e-01	9.5003542835e-03	7.2477838704e-01	6.3040353763e-02	5.1339280191e-01	2.1218125920e-01	4.8660719809e-01	1.3852016531e+05	3.3453499530e+02	3.2925210658e+02	3.2894821157e+02	5.5354166666e-01	-4.1469578955e-01	1.3884587711e-01	-2.7132135623e+06	2.5154040706e+06	-1.9780949174e+05
0.23              	9.9050094047e-01	9.4990595349e-03	7.2429197901e-01	6.3041805738e-02	5.1344736244e-01	2.1266621526e-01	4.8655263756e-01	1.3852651548e+05	3.3441643587e+02	3.2922036271e+02	3.2892314431e+02	5.5457505054e-01	-4.1572928269e-01	1.3884576785e-01	-2.7183850233e+06	2.5205765667e+06	-1.9780845663e+05
0.2325            	9.9050220966e-01	9.4977903366e-03	7.2381590765e-01	6.3042616942e-02	5.1350095805e-01	2.1314147541e-01	4.8649904195e-01	1.3853246930e+05	3.3429993075e+02	3.2918931202e+02	3.2889858567e+02	5.5558781882e-01	-4.1674215716e-01	1.3884566166e-01	-2.7234453563e+06	2.5256379096e+06	-1.9780744670e+05