/*--------------------------------*- C++ -*----------------------------------*\
  =========                 |
  \\      /  F ield         | OpenFOAM: The Open Source CFD Toolbox
   \\    /   O peration     | Website:  https://openfoam.org
    \\  /    A nd           | Version:  12
     \\/     M anipulation  |
\*---------------------------------------------------------------------------*/
FoamFile
{
    format      ascii;
    class       volScalarField;
    location    "0.0068";
    object      alphat;
}
// * * * * * * * * * * * * * * * * * * * * * * * * * * * * * * * * * * * * * //

dimensions      [1 -1 -1 0 0 0 0];

internalField   nonuniform List<scalar> 
106891
(
8.8179101533718116544e-06
8.8092914299718633891e-06
8.799242576560275698e-06
8.7904861468733480216e-06
8.7805506343934202452e-06
8.7719725646123099949e-06
8.7623042966455901606e-06
8.7543752454405785504e-06
8.7453490502527993033e-06
8.7381711257756304107e-06
8.7290729072066532439e-06
1.1362599399633562327e-05
1.1390579520563293088e-05
1.1417829732312653455e-05
1.1444466314710945097e-05
1.1471871127191654962e-05
1.1501724448643945882e-05
1.1535364199088688546e-05
1.1572877893681996985e-05
1.1611971645380637452e-05
1.1648195196104094913e-05
1.1677089454489865034e-05
1.1695441059954152804e-05
1.1703027735957581689e-05
1.1702496301075639411e-05
1.1698448151768408337e-05
1.1695141428279883389e-05
1.1695565898123966715e-05
1.1703364571900484918e-05
1.1721380924948139843e-05
1.1747269566225625106e-05
1.1780173574543168722e-05
1.1818359749677585487e-05
1.1859458132838648036e-05
1.1899250128548186252e-05
1.193445683439232422e-05
1.1962206988137445438e-05
1.1981476172660273128e-05
1.1992738907515351963e-05
1.1998673925006540111e-05
1.20017933206676224e-05
1.2004989312482118897e-05
1.2010768695838468492e-05
1.2020112833484119754e-05
1.2033511313493054409e-05
1.2049929100916654531e-05
1.2067743024200287605e-05
1.2085034937105571979e-05
1.2100634206873604813e-05
9.3637067866319827929e-06
9.352739992115475639e-06
9.3433699427668043171e-06
9.3326938045190478086e-06
9.3236528042910012261e-06
9.3132822205582130618e-06
9.3045122884688032187e-06
9.294159359309798438e-06
9.2852812125433977777e-06
9.2746980666178341764e-06
9.2655561961326400507e-06
9.2547739141410885022e-06
9.2455059114629219147e-06
9.2348099642526184852e-06
9.2257295192040642814e-06
9.2153064870882964269e-06
9.2068331427205402616e-06
9.1970210876548277667e-06
9.1893167895413845682e-06
9.1793670324375911906e-06
1.2006581023842916197e-05
1.202811426747951071e-05
1.2050587968171810316e-05
1.2076216279223188065e-05
1.2106897166371200503e-05
1.2143373876549601732e-05
1.2184577632257054543e-05
1.2227596696197176054e-05
1.2267830682594778709e-05
1.2300378864461959476e-05
1.2322276793079735179e-05
1.2333108852061957126e-05
1.233517747630906295e-05
1.2332016893738888039e-05
1.2327374221872688197e-05
1.2322952745059735736e-05
1.2319715531944787836e-05
1.2319373327788710141e-05
1.2329483110345039931e-05
1.2368747038340784653e-05
1.2422482495244864301e-05
1.24773587859930293e-05
1.252935672312370459e-05
1.2573344325620556801e-05
1.260649288522393502e-05
1.2626641799143619577e-05
1.263519228742454756e-05
1.2635070719495655446e-05
1.2630572299743766319e-05
1.262638277367025888e-05
1.2625742692081256242e-05
1.2631563132285866834e-05
1.2643764126453229185e-05
1.2661626002664710076e-05
1.268261610389406275e-05
1.2703992381027908929e-05
9.8503519536683702411e-06
9.8385167109027090186e-06
9.8285285333912471225e-06
9.8169325964443450737e-06
9.8072625477444783088e-06
9.7959629811802267658e-06
9.7866060558697021696e-06
9.7753873934068908507e-06
9.7659729183840324391e-06
9.7545974591843600605e-06
9.7448969049814234745e-06
9.7333451615465830267e-06
9.7235571165363703116e-06
9.7120589691552283897e-06
9.7024536277061953875e-06
9.6912461654515474679e-06
9.6822275128343656547e-06
9.6716084485042599038e-06
9.6633527807823906848e-06
9.6524931271118359492e-06
1.2697858905090614223e-05
1.2713680147754680957e-05
1.2728226070064611118e-05
1.2745342432238590066e-05
1.276737095947293761e-05
1.2795624559068581485e-05
1.2828736921067656845e-05
1.2864056917564905432e-05
1.289700705978144022e-05
1.2924819811436713546e-05
1.2945087013610000258e-05
1.2959494926901086976e-05
1.2970441089320155391e-05
1.2982750550284110949e-05
1.299895552041126497e-05
1.3020579447064192381e-05
1.3046907994853938341e-05
1.30760264988364044e-05
1.3106262195275585096e-05
1.3136028009905524337e-05
1.3165260304865648161e-05
1.3192941977934551407e-05
1.3218580602542812273e-05
1.32405416911415869e-05
1.3258028082706027333e-05
1.326975417027798009e-05
1.3276512630798080515e-05
1.3280391197248519553e-05
1.3284263322841283029e-05
1.3291362079034283342e-05
1.3303698370060163913e-05
1.3322923484617178714e-05
1.3347817391027152071e-05
1.3376416702025619544e-05
1.3405059809472722303e-05
1.3430836508087179269e-05
1.0349041798251107724e-05
1.0338256395777881266e-05
1.0325549816048911009e-05
1.0315139481679111308e-05
1.0302837523146122199e-05
1.0292855684735123723e-05
1.0280778375120658053e-05
1.0270867757412517781e-05
1.0258761036127539914e-05
1.0248592441818268995e-05
1.0236236591209908948e-05
1.0225885887882041613e-05
1.0213536616428144207e-05
1.0203340285827550043e-05
1.0191264463417356527e-05
1.0181687289041259204e-05
1.0170223225342552321e-05
1.0161392424136505574e-05
1.0149531465553236268e-05
1.3371068309769539492e-05
1.3376076456006045134e-05
1.3374903606922203099e-05
1.33738096832972436e-05
1.3379394824959662952e-05
1.3404870636628561097e-05
1.3457506217987445077e-05
1.351736496937427489e-05
1.3575662323094675531e-05
1.3626459909525645824e-05
1.3665472956295669145e-05
1.3693396096065527603e-05
1.3712533680736830352e-05
1.3726984607533070649e-05
1.374058331114962193e-05
1.3755026122080665608e-05
1.3772455425674521391e-05
1.3792361593543884287e-05
1.3815147648594797682e-05
1.3838926229221840399e-05
1.3863120711593526728e-05
1.388546647249675328e-05
1.3904852346464857809e-05
1.3921209879891844967e-05
1.3935504749547423836e-05
1.3949117422370398909e-05
1.3963481031548152843e-05
1.3980868392240946945e-05
1.4001497441416105826e-05
1.4026964711983131782e-05
1.4056111446046476907e-05
1.408824233428694988e-05
1.4120584356822708238e-05
1.4150931761391118125e-05
1.0899346041007367095e-05
1.0885162217457839982e-05
1.0873415875701477996e-05
1.0859509759662673998e-05
1.0848274503773246543e-05
1.0834932734764086149e-05
1.0824324746932097548e-05
1.0811461256833062637e-05
1.080112633922796426e-05
1.0788288555986021521e-05
1.077769742090180688e-05
1.0764552486432194369e-05
1.0753632473975909223e-05
1.0740374842512398729e-05
1.0729544584082019348e-05
1.0716515851025856337e-05
1.070631294941452157e-05
1.0693924797610953288e-05
1.0684467331736839166e-05
1.0671483188504791637e-05
1.4106825758405608322e-05
1.412156124077229715e-05
1.4135518847233617497e-05
1.4153052928055603047e-05
1.4177870413678231518e-05
1.4209707544917727935e-05
1.4246799786238605349e-05
1.4284409014727339425e-05
1.4319055810556427215e-05
1.4347150716333085529e-05
1.4367992639852249394e-05
1.4382809418045369447e-05
1.4394213029960630136e-05
1.4406290393242264782e-05
1.4421719879747898891e-05
1.4443190311924006383e-05
1.4471000725853507674e-05
1.4505163247272568247e-05
1.4543189971476739032e-05
1.4582330279746228782e-05
1.461854470098238779e-05
1.4648517164340001166e-05
1.4670385359426515087e-05
1.4683311738548332392e-05
1.4688723662338756573e-05
1.4689050912479818245e-05
1.4688449591707059748e-05
1.4689639470449601023e-05
1.4696203722652196474e-05
1.4709837164757590391e-05
1.4731126347019499805e-05
1.4759360742049608799e-05
1.4791891284575245412e-05
1.1447920427498144095e-05
1.1435067322832086041e-05
1.141980191839061082e-05
1.1407729262590666263e-05
1.1393400889745461193e-05
1.1382277008248345703e-05
1.1368674704889887548e-05
1.1358018075475471737e-05
1.1344541016574832238e-05
1.1333577911085265113e-05
1.1319643907211145129e-05
1.1308179791777546241e-05
1.1293985044593465324e-05
1.1282538480339334751e-05
1.1268518078113230854e-05
1.1257636128297990622e-05
1.1244182608019330426e-05
1.1233964987263609864e-05
1.1219636693941672918e-05
1.4880239913788522138e-05
1.4890520035532265266e-05
1.4901688060621403145e-05
1.4918214128825007717e-05
1.4940638405392956396e-05
1.496916822663445935e-05
1.5000523017726301691e-05
1.5033140625606855476e-05
1.5064223058233591477e-05
1.509274842347156054e-05
1.5118745390702630231e-05
1.5142488933647575168e-05
1.5165622197225995228e-05
1.51889131044250611e-05
1.5214369245776002991e-05
1.5241954778536770705e-05
1.5272092616527052877e-05
1.5303116707749112344e-05
1.5333517834351066277e-05
1.536029137523376402e-05
1.5381241361714005378e-05
1.5395358132779709257e-05
1.5403205656914086984e-05
1.5407050154344995323e-05
1.5409585596357661011e-05
1.5415048701521687761e-05
1.5425256782484302596e-05
1.5442053272921592001e-05
1.5465155790937688027e-05
1.5493802194736726297e-05
1.5526351512792675865e-05
1.5560895341872805933e-05
1.2038661963441807108e-05
1.2024698788099291412e-05
1.2008098195584878556e-05
1.1995185831930541822e-05
1.1979828864384467984e-05
1.1968201672085985871e-05
1.1953889461170443155e-05
1.1942922227513089241e-05
1.1928867603777339656e-05
1.1917617205149859277e-05
1.1903009295060194131e-05
1.1891092779693750181e-05
1.187597510588316324e-05
1.1863899986312645559e-05
1.184879452777340811e-05
1.1837136400105857558e-05
1.1822503114799062042e-05
1.1811406921454491745e-05
1.179554459080755713e-05
1.5676667140691720134e-05
1.5684971674873477441e-05
1.5695061603361570022e-05
1.5710451249654301876e-05
1.5731757575785451783e-05
1.5758647843817590294e-05
1.5790223832608101131e-05
1.5825296189841389551e-05
1.5862959554110998611e-05
1.5901707473796762436e-05
1.5940876006746444097e-05
1.597889457459365366e-05
1.6015441572166823602e-05
1.6049204102441729652e-05
1.6080537686559317182e-05
1.6108864561535422789e-05
1.6133389979612025085e-05
1.6153617672456069179e-05
1.6168929218469461451e-05
1.6178639650802035204e-05
1.6183145285829473063e-05
1.618478392628791069e-05
1.6186434785637679457e-05
1.6191910096622207663e-05
1.6203465111139737697e-05
1.6223315911911797058e-05
1.6250988097361535945e-05
1.6284235683498296602e-05
1.6320610152507921239e-05
1.6357483133551699024e-05
1.2646109221350648161e-05
1.2628425067091002317e-05
1.2614764462855814091e-05
1.2598409696985532117e-05
1.2586106793691466927e-05
1.2570903845634887267e-05
1.2559387216321980709e-05
1.2544628186182017743e-05
1.2533013045369446867e-05
1.2517821988113589195e-05
1.2505605352790589318e-05
1.2489713312297104475e-05
1.247703324203544433e-05
1.2460814130622232515e-05
1.2448274473931142408e-05
1.2432373936353510971e-05
1.2420279286133202647e-05
1.2402850262467684657e-05
1.6476804124013401414e-05
1.6483297787316958806e-05
1.6498508013905363703e-05
1.6524808168734875344e-05
1.6561988424511753096e-05
1.660657718202815451e-05
1.6655307490179794893e-05
1.6703877587719880146e-05
1.6749532561382998817e-05
1.6789870096842765502e-05
1.6824619252961798909e-05
1.6853887222839622392e-05
1.687893841273159875e-05
1.6901752632127108961e-05
1.6923384867393848183e-05
1.6943888116353161258e-05
1.6962182358601236425e-05
1.6977639943025366553e-05
1.6988986850164632542e-05
1.6996718146863693883e-05
1.7003105004192369481e-05
1.7011747977875316199e-05
1.7025847832388713986e-05
1.7047058321354406759e-05
1.7075435871604880013e-05
1.7108996798687719219e-05
1.7144759884177676498e-05
1.7179567404197797166e-05
1.3318571556493599556e-05
1.3300876246347626146e-05
1.3286720608390845981e-05
1.3270073969259150711e-05
1.3257063562802243802e-05
1.3241348663009749973e-05
1.3229085980929351492e-05
1.3213881447497492899e-05
1.3201743788016697748e-05
1.3186347871785516304e-05
1.317380979067334219e-05
1.3157634373997781192e-05
1.3144484491137677437e-05
1.312762997590910214e-05
1.3114278597636026163e-05
1.3097400465789646093e-05
1.3084342980760011195e-05
1.3066628769687686605e-05
1.7336246486672088026e-05
1.7359480768562487573e-05
1.7390697627226872022e-05
1.7428469202137598768e-05
1.7469590019346641351e-05
1.7511510608840954122e-05
1.7551076325296992585e-05
1.758714092729297054e-05
1.7619035890932250134e-05
1.7648509426422115252e-05
1.767613698962463542e-05
1.7703011857177704843e-05
1.7729673776162171664e-05
1.7755644021200076178e-05
1.7780961018814056616e-05
1.7805327032753704558e-05
1.7828988805683507987e-05
1.7851197209966217905e-05
1.7871525815088446393e-05
1.7889945350010310075e-05
1.7907180287755708828e-05
1.7924657770266185614e-05
1.7943657222294355676e-05
1.7965580422249795007e-05
1.7990519196338034463e-05
1.8017639114677939217e-05
1.8045477846227275624e-05
1.3936311874819752094e-05
1.3916483305049484913e-05
1.3899751430429281896e-05
1.3880663021106588449e-05
1.3864239567572680061e-05
1.3845455538419665977e-05
1.3829644380548478566e-05
1.3810718561733741931e-05
1.3795179187477780435e-05
1.377602557562599973e-05
1.3759882377872217023e-05
1.3740330383229448698e-05
1.3723272569823694953e-05
1.3703306325775262701e-05
1.3685850844611861557e-05
1.3665728285302494404e-05
1.3648566674878896728e-05
1.8039617107913531334e-05
1.8093525549445977138e-05
1.8148821980638275213e-05
1.820173404098405362e-05
1.824710248782611757e-05
1.8280535224382962669e-05
1.8299556227075512797e-05
1.8305479555322452697e-05
1.8302240976104334406e-05
1.8297089413109262317e-05
1.8297400877225706369e-05
1.8309069511017954352e-05
1.8335923750373614411e-05
1.8377645964334868864e-05
1.8431460423691093075e-05
1.8491700647300095977e-05
1.8552870678449857932e-05
1.8608359959292514906e-05
1.8654582447310777703e-05
1.8688417131695278598e-05
1.8709090099686459985e-05
1.8718493503094959439e-05
1.8719080587775020796e-05
1.8716160211442225134e-05
1.871453214483325157e-05
1.8719165503685112619e-05
1.8732075327357161339e-05
1.4274571351479002672e-05
1.4256729781387727371e-05
1.423084305186764949e-05
1.4212857658533936792e-05
1.4186761310254671363e-05
1.4168774337769237371e-05
1.4142679592086221822e-05
1.4124897014203159618e-05
1.4098680501933064072e-05
1.4080682888300854563e-05
1.4053971096408461952e-05
1.4035524874909857318e-05
1.4008121032415355982e-05
1.3989355478479556082e-05
1.395708896546629275e-05
1.3949008760687159073e-05
1.4067802254871273479e-05
1.4115477280144659206e-05
1.4161406909763122502e-05
1.420297077322770445e-05
1.4237076682587928466e-05
1.4260629475718185447e-05
1.4272966356431217598e-05
1.4275101837207242403e-05
1.4270183540789455227e-05
1.4261620480866649097e-05
1.4252217065218784442e-05
1.424348869602596892e-05
1.4235742295054114957e-05
1.4229449602714401796e-05
1.4228705626524496041e-05
1.4249100603284092567e-05
1.4325183163433687319e-05
1.4417359663410735722e-05
1.4498076380280242991e-05
1.4563065527557824083e-05
1.460933289118752126e-05
1.4636474539760390407e-05
1.4647654431743707568e-05
1.4647579571414178637e-05
1.4641276983445502006e-05
1.4632770635636835154e-05
1.4624204520127312418e-05
1.4616244066970571325e-05
1.1080905999940867599e-05
1.1060924722719825487e-05
1.1046526561418915528e-05
1.1026308815678753861e-05
1.1012057189914881573e-05
1.0991897364290905762e-05
1.0977895387657403295e-05
1.0957933660835746513e-05
1.0944083643930381861e-05
1.0924038630753983505e-05
1.0910078202282800022e-05
1.0889744025391278438e-05
1.0875703547180361438e-05
1.0851994420358215433e-05
1.0848757897669831382e-05
1.336101119798745441e-05
1.338550425183992069e-05
1.3420675999249967011e-05
1.3463135632065677646e-05
1.3507278295962005788e-05
1.3547515632464681692e-05
1.3579218192650911224e-05
1.3600280884484547471e-05
1.3611278998865520147e-05
1.3614327468173873355e-05
1.3612170471724369041e-05
1.3608016382440720043e-05
1.3604731670686571297e-05
1.3605848775467942332e-05
1.3622709816086990347e-05
1.3671811457223179275e-05
1.3727379569685311446e-05
1.3779398663595846669e-05
1.3823038280593634986e-05
1.3854119772751888478e-05
1.3871970282900339169e-05
1.3878943753414523535e-05
1.3878864253309263627e-05
1.3877129262199327324e-05
1.3877888212479988744e-05
1.388542678790233821e-05
1.3901287090573518986e-05
1.0556887234683915314e-05
1.054401678003613068e-05
1.0526236718817040896e-05
1.0513327921128796182e-05
1.0495506367812572731e-05
1.0482685385885523238e-05
1.0464983466316505424e-05
1.0452364809132229262e-05
1.0434676670273653992e-05
1.0422043714546084983e-05
1.0404218919334976936e-05
1.0391632325471889686e-05
1.0371900412129202989e-05
1.0363162363678112658e-05
1.2839512811626725233e-05
1.2885655151839886295e-05
1.293625231380044216e-05
1.2984478848618793436e-05
1.3025009760022898325e-05
1.3054273612030175644e-05
1.3072417056402345326e-05
1.3081136682620395596e-05
1.3084989863193782764e-05
1.3087972053692526557e-05
1.3094233213817452882e-05
1.3106006501041908796e-05
1.3124309574068894341e-05
1.3148970741932364183e-05
1.3178234653163090808e-05
1.3210082477005525003e-05
1.324099653323547343e-05
1.3269362706391676069e-05
1.3293065800362418579e-05
1.3312372791220289438e-05
1.3327925426735934012e-05
1.3341110138406827576e-05
1.3353417485828389461e-05
1.3366369996755112558e-05
1.3381573508536989198e-05
1.3399715881589031069e-05
1.0158113413064297895e-05
1.0141166086379163711e-05
1.0128793720535245621e-05
1.0111725799149402411e-05
1.0099349807736707712e-05
1.0082314537781318138e-05
1.0070057289148189172e-05
1.0053036065015979271e-05
1.0040851105204670114e-05
1.002378835028468433e-05
1.0011704034483240156e-05
9.9931752334984836928e-06
9.9842130548840239088e-06
1.2423575430015263498e-05
1.2469985990639765084e-05
1.2511263313698521999e-05
1.2543943402440875545e-05
1.2566136609432988823e-05
1.2578922173742902772e-05
1.2584680087349962941e-05
1.2587730785486542459e-05
1.259118976905246044e-05
1.2598231988671730508e-05
1.2610621487079948613e-05
1.2629428949665721764e-05
1.2654612329145058708e-05
1.268447737874325802e-05
1.2716932058686543274e-05
1.2748388034813816757e-05
1.2776968628692462074e-05
1.2800593581019266827e-05
1.2819234274028357435e-05
1.2833739262366238368e-05
1.2845673959135763052e-05
1.2856579081422652181e-05
1.2868195451270210717e-05
1.2881730803083847668e-05
1.2897436131418665782e-05
9.7571224091207864874e-06
9.7452290546591466757e-06
9.7287279422553724431e-06
9.716740979394726001e-06
9.7001828077475860861e-06
9.6882110078259152077e-06
9.6715982843247507285e-06
9.6597156355103798003e-06
9.6430865976209188025e-06
9.6313199060203885172e-06
9.613281734483889544e-06
9.6046003794369344439e-06
1.1986515883715695031e-05
1.2033558609180220196e-05
1.2076585475953840052e-05
1.211263591095602566e-05
1.2140143196081805194e-05
1.2158475921658779809e-05
1.2168549622030213085e-05
1.2171502438964612141e-05
1.2169281589456711401e-05
1.2164475665235221352e-05
1.2159667229736529286e-05
1.2158079988407418976e-05
1.2168875776596434733e-05
1.2205238467719757288e-05
1.2245661246467917673e-05
1.2283846506500237285e-05
1.2316853622614187274e-05
1.2343914872658618348e-05
1.2365000524698449796e-05
1.238174265802375072e-05
1.2396188832304674509e-05
1.2409903219565311802e-05
1.2424528118717811234e-05
1.244067310186168397e-05
1.1604880780090193554e-05
1.1642966544617653813e-05
1.1672944386727474614e-05
1.1694006521907830871e-05
1.1706488179639354933e-05
1.1711869073778398276e-05
1.1711744345214037877e-05
1.1708268521313710341e-05
1.1703661880994422674e-05
1.1700263752979991956e-05
1.1702405533027772968e-05
1.1723416180655719644e-05
1.1763528948244961593e-05
1.1802872326231372014e-05
1.1838972796522322507e-05
1.1869431088499383023e-05
1.1893956479038502052e-05
1.1913460438050092901e-05
1.1929291594687717136e-05
1.1943240285805381559e-05
1.1956805251176301556e-05
1.1970748162447361737e-05
1.1985369942520320555e-05
1.120467556185783455e-05
1.1221932366306481893e-05
1.1234981682602189864e-05
1.1246292076671405598e-05
1.1257445589150854117e-05
1.1270014928241769072e-05
1.128441632589663831e-05
1.1300515889433496205e-05
1.1317818004971325676e-05
1.1335290241553751375e-05
1.1352405955692165294e-05
1.1367727472367267707e-05
1.13817423179085071e-05
1.1394520713964166578e-05
1.1407721956077566705e-05
1.1422331972671105298e-05
1.1440002447976465336e-05
1.1460982806446448761e-05
1.1485298819574757615e-05
1.1512803275082961199e-05
1.1541592690077025064e-05
1.0851518748792077476e-05
1.0861787533154870986e-05
1.0871591550905402272e-05
1.0882437090346584556e-05
1.0895181386640962029e-05
1.0909302459254453376e-05
1.0924626216877027864e-05
1.0940034642295451401e-05
1.0955675016924381444e-05
1.0970956669445823845e-05
1.0987286374745201529e-05
1.1004801208319231693e-05
1.1023566994466686486e-05
1.1043419411980757652e-05
1.1063611943402269563e-05
1.1084743296930828514e-05
1.1106624929392859601e-05
1.0513190948835599882e-05
1.0542155777339698788e-05
1.0570659599474513735e-05
1.0594813974674342256e-05
1.0613278773643932727e-05
1.06251508139273517e-05
1.0632922739750933551e-05
1.0638992410040412271e-05
1.0645715109778951037e-05
1.0654969606518010323e-05
1.0666982958188684968e-05
1.0682566026090314264e-05
1.0701179367978994262e-05
1.0125521678074635406e-05
1.0162333180474138303e-05
1.019681569238426846e-05
1.0225642549847364197e-05
1.0246845509679200676e-05
1.0259881059868069668e-05
1.0265116127883480707e-05
1.026423992014331955e-05
1.0259828125512867296e-05
1.0254727156493340876e-05
1.0251618688981257443e-05
1.0255404013407143479e-05
5.1160105311146975756e-06
5.0909584179990214446e-06
5.0865113398564300073e-06
5.0931106697246367342e-06
5.1335965904316123968e-06
5.292412479497363758e-06
5.691994398191773443e-06
6.0398796534528993737e-06
6.2589848177333856934e-06
6.3674744694732763234e-06
6.3995147726807740391e-06
6.3936919688436540918e-06
6.3700851957314086956e-06
6.2859849778390272868e-06
6.0564368174714129926e-06
5.8219889105056728653e-06
5.6465325084374711666e-06
5.5289712214478852132e-06
5.4616011130223282685e-06
5.432798160745138264e-06
7.5248761566901980791e-06
7.4316779788788033364e-06
7.3901985015943574633e-06
7.3803908629760985185e-06
7.3886304339652131444e-06
7.446241706650706221e-06
7.6737048698309017196e-06
8.128064916657274218e-06
8.4710679653178413121e-06
8.6775096126755079951e-06
8.7698732652630380266e-06
8.7899994840871469281e-06
8.7784362943530317249e-06
8.7462736866539781083e-06
8.6433348562384881868e-06
8.3526973579738915149e-06
8.013479658658655491e-06
7.7325190730623730948e-06
7.5196693980391044753e-06
7.3812107806148886209e-06
7.3074856819128414381e-06
7.2801685152251028314e-06
1.3220693486161183368e-05
1.3084395365193153638e-05
1.3008992958434888269e-05
1.2976325991504063917e-05
1.2970532081085450762e-05
1.2989033117118263825e-05
1.3088673920219727955e-05
1.3410760050644512581e-05
1.3794292908395839998e-05
1.4055565959496009386e-05
1.4188838223957604473e-05
1.4229552791604465213e-05
1.4221944625393886981e-05
1.4192595876280635715e-05
1.4109007477736955778e-05
1.3877738422428004012e-05
1.3528396561692668452e-05
1.3200084851022621965e-05
1.293679466117070294e-05
1.2762102887157632995e-05
1.2672557286292193197e-05
1.2642481596573771038e-05
1.2636834015563109314e-05
1.2657473614096684302e-05
1.2747225417221008564e-05
1.3004497338964603707e-05
2.9925771273233209486e-05
2.9898496451043009005e-05
2.988461568465415239e-05
2.991764068676338597e-05
3.0093374701438260955e-05
3.0531113380259163753e-05
3.0988932938385333642e-05
3.1377111580435701791e-05
3.1633603528331199963e-05
3.1752992026705455187e-05
3.1765023821309987663e-05
3.1737814981171766056e-05
3.164598402992229722e-05
3.1374204505119030958e-05
3.0948948107130337584e-05
3.0564759093462323864e-05
3.0261522963814668926e-05
3.0053949081356292548e-05
2.9934398696192835939e-05
2.988214386656099441e-05
2.9853630608656429353e-05
2.9860939696341253321e-05
2.995121633664589187e-05
3.0244909366046782671e-05
3.064761632604703532e-05
3.1009471508793246073e-05
3.1283174919607585141e-05
3.1440988831154636877e-05
6.6095522104715184524e-05
6.60964196082966483e-05
6.6165821086971649055e-05
6.6316884928318916193e-05
6.6520213149117639155e-05
6.6758165438045871882e-05
6.6974945934609816001e-05
6.7108606377855420681e-05
6.7148512688899392653e-05
6.7118700276163543962e-05
6.7040536703879508463e-05
6.6851607970527370667e-05
6.6461316776853622003e-05
6.6069632371362245417e-05
6.571277212231399923e-05
6.542353509250326579e-05
6.5213944651254857261e-05
6.5079701521889019088e-05
6.5011353793364740246e-05
6.4968054874513006514e-05
6.4971184382272333872e-05
6.5089376038831434274e-05
6.5294648631253893721e-05
6.547719365744596523e-05
6.5614984716527610361e-05
6.5680486291206068971e-05
6.5672473011484314566e-05
6.5622757882295810073e-05
6.5522297577219986613e-05
6.5296165348941969373e-05
0.00010248320847888010236
0.00010231012963086272673
0.0001021390496333733042
0.0001019655335831753148
0.00010178355148098174173
0.00010158569439598900302
0.00010136512258507361867
0.00010111843264647133226
0.00010084846072929630175
0.00010056596512447484244
0.00010028308483530914898
0.00010000875587726886634
9.9747007381749717503e-05
9.9500779165824043649e-05
9.9272900793480206853e-05
9.9070518119472129122e-05
9.8900045979796445705e-05
9.8761900312287719244e-05
9.864722952858371338e-05
9.8539989381853232008e-05
9.8423627288075964201e-05
9.8289372313646242293e-05
9.8134658591726977249e-05
9.7958830224295168152e-05
9.7756687373670085421e-05
9.7521251979350881303e-05
9.7249641912006774738e-05
9.6952721059632049577e-05
9.6650484711965380363e-05
9.6363841840812133346e-05
9.6108469594220736175e-05
9.5887465831489876369e-05
0.00012294634898423471066
0.0001226805588263891729
0.00012241877958310868561
0.00012215281526708142955
0.00012187923676074612989
0.00012159983829027562767
0.00012131994248624229768
0.00012104709727014428594
0.00012078988571740115405
0.00012055550539046675407
0.00012034524964547413405
0.00012015109649350011586
0.00011995915348701660218
0.00011975508476217868847
0.00011953517261472348585
0.00011930553031632376993
0.00011907810993414100122
0.00011885974883135019429
0.00011864516885620260693
0.00011842035788528253377
0.0001181737445674365365
0.00011790637485050544568
0.00011763144536804409255
0.00011736418450690375679
0.00011711054047436663197
0.00011686632302350176166
0.00011662595708187770138
0.00011639232721637529904
0.00011617449218390618268
0.00011598017487190157048
0.00011580423295810649096
0.00011563371936926345341
0.00011545323157377218267
0.00016241420899399091672
0.0001615223680666827259
0.00016069357859693910611
0.00015986975595181783689
0.00015901711643691383413
0.00015815129146363202193
0.00013406797223705066218
0.00013384846334845701128
0.00013362932836783053005
0.00013340065011802529457
0.00013315902454431093678
0.00013290797735500653031
0.00013265625004775670926
0.0001324157248012665974
0.00013219820280831580612
0.0001320110760432036557
0.0001318526220543234811
0.00013170933840852194416
0.00013155892678223742335
0.00013138311181141852126
0.00013117779193209637835
0.00013095423245389301459
0.00013072999797587365372
0.00013051529297779544594
0.00013030495751259688476
0.00013008319317537206882
0.00012983842177492714424
0.00012957372134293838515
0.00012930585896657429703
0.00012905148325389640762
0.00012881572500910166957
0.00012859102064950118168
0.00012836856794787025369
0.00012815038054147240894
0.00012794736898058713245
0.00012776722761707805676
0.00012760367422372416446
0.0001274380040490598429
0.00012725467648999950099
0.00012704943535691946973
0.00015611243557079118528
0.00015526036287895241938
0.00015448451864980938635
0.00015373814527079961894
0.00015295936566661819784
0.00015213515131817656879
0.00015130508315064136325
0.00013235871497689914635
0.00013215376353243839919
0.00013193265530138194763
0.0001316921002198029279
0.00013143718181329617101
0.00013117897155019510899
0.00013093074711414417295
0.00013070340944830127175
0.0001305043784723125815
0.00013033246015882566054
0.0001301762746401717108
0.00013001297489556560313
0.00012981853293639292906
0.00012958075918370474174
0.00012930583584848831958
0.000129014015187295508
0.00012872548509053840138
0.0001284465970358010837
0.00012816669725847849967
0.00012786926229866474054
0.00012755002614186822154
0.00012722325010383113029
0.00012691318044742065999
0.00012663492882813333763
0.00012638626928079094939
0.0001261539866418098343
0.00012592934672987229168
0.00012571699819243851016
0.00012552674224311952361
0.00012535840013711208518
0.0001251969107397737967
0.00012501963301293826745
0.00012481511615182274192
0.00012458790128691478883
0.00012435153907708828246
8.6259829637768052416e-08
8.6298207459877579114e-08
8.6367022040350937795e-08
8.6451230660397216189e-08
8.6518683803112247682e-08
8.6721255463316869011e-08
8.6803587802306204586e-08
8.7030920035153503033e-08
8.7144229481173992656e-08
8.7452603286214561868e-08
8.7521071800805091309e-08
6.7175646724625791199e-07
6.7146078554615921519e-07
6.7161711441714317398e-07
6.7315080351211221934e-07
6.7478340592313877954e-07
6.7593697163921841673e-07
6.766692239190852465e-07
6.7702842960375167822e-07
6.7707609084013929317e-07
6.7686808297650910934e-07
6.7646024080542762274e-07
6.7599154227919930649e-07
6.7564725377537791011e-07
6.7562472406418111039e-07
6.7636008333502316917e-07
6.7937548545238686979e-07
6.8474472961796255255e-07
6.8930934468391655581e-07
6.9253068139495172022e-07
6.9438889042346354367e-07
6.9500885765344225427e-07
6.9475459967030074472e-07
6.9415286726079707962e-07
6.9337081403872275541e-07
6.921276251664520906e-07
6.8943885560019953976e-07
6.8615196362735009539e-07
6.8343041799891368704e-07
6.8136759014855328555e-07
6.799186032225340619e-07
6.7892143330136606815e-07
6.7817149664668240881e-07
6.7742213344076153046e-07
6.7659198292227630215e-07
6.7571866245582928042e-07
6.7491852252227040037e-07
9.1556518495821590686e-08
9.1520024728173044944e-08
9.1508491698933070159e-08
9.1487478746223907426e-08
9.1438706403538587463e-08
9.137464815374979713e-08
9.1301851336820158081e-08
9.1228081713274815439e-08
9.1159276642054690893e-08
9.1112930610842932666e-08
9.1081903795984296568e-08
9.1094159054986721397e-08
9.1165851682889872847e-08
9.1261744404250349917e-08
9.1372513040383169878e-08
9.1589858795885738856e-08
9.1681287292781194257e-08
9.1934744635848912892e-08
9.2055056228385788792e-08
9.2376618434993185673e-08
9.241452631464310546e-08
6.7753819036048580349e-07
6.7702380534517841517e-07
6.7668093840572000331e-07