/*--------------------------------*- C++ -*----------------------------------*\
  =========                 |
  \\      /  F ield         | OpenFOAM: The Open Source CFD Toolbox
   \\    /   O peration     | Website:  https://openfoam.org
    \\  /    A nd           | Version:  12
     \\/     M anipulation  |
\*---------------------------------------------------------------------------*/
FoamFile
{
    format      ascii;
    class       volScalarField;
    location    "0.0068";
    object      p;
}
// * * * * * * * * * * * * * * * * * * * * * * * * * * * * * * * * * * * * * //

dimensions      [1 -1 -2 0 0 0 0];

internalField   nonuniform List<scalar> 
106891
(
99777.210775264858967
99774.272518608981045
99769.403643834128161
99763.238826318993233
99756.832470103574451
99751.385942456356133
99748.007918017174234
99747.498303291184129
99750.090874248635373
99755.434824009047588
99762.555540473578731
99441.154456326708896
99458.890999895214918
99481.638817592334817
99500.825760989144328
99508.677002250115038
99503.914760984742315
99493.100566681139753
99485.769421622011578
99486.761999457899947
99492.441751738107996
99493.45188032965234
99482.861171850614483
99462.827740352964611
99443.037325237877667
99435.208853391726734
99445.682968952896772
99469.869383496508817
99495.742364588280907
99512.097650056384737
99515.713970725279069
99512.819678712068708
99513.594768792230752
99525.487231204810087
99548.362331921118312
99574.80692169177928
99594.637376502898405
99600.498654604860349
99590.619313947696355
99568.348514343684656
99540.347250186707242
99514.104113655092078
99495.528327463369351
99487.332573495761608
99489.004790829640115
99496.889822758705122
99505.082987516987487
99508.03844210189709
99503.299369982429198
99752.151107272424269
99755.069875000030152
99758.049983757751761
99761.139280727540608
99764.334916479914682
99767.49079073080793
99770.256406890839571
99772.157817268423969
99772.7874777502293
99771.872826918508508
99769.306178067126893
99765.246856507874327
99760.17901950016676
99754.927462854815531
99750.526458564942004
99747.980958746135002
99748.073438182007521
99751.14749025463243
99756.991875904088374
99764.942231674038339
99466.923526946542552
99486.722113587995409
99504.044554135092767
99512.176924747822341
99510.150120924183284
99503.760022548929555
99501.225566152992542
99506.419435134390369
99515.147539918776602
99517.685625066136708
99507.097938467035419
99485.133733253635
99462.730191575741628
99451.728167948895134
99458.077617794740945
99476.842185936431633
99495.89979517487518
99505.013518000036129
99502.637123594409786
99496.39119001236395
99497.701093893760117
99514.58689783171576
99545.858955536838039
99582.446269071762799
99612.369464369970956
99625.71416703912837
99618.431350832077442
99593.404678535807761
99558.118551555016893
99521.684398694269476
99492.570799672830617
99476.478125948779052
99474.852089683088707
99484.446892571795615
99498.350557939047576
99508.819258758900105
99745.243170869711321
99747.294595083149034
99749.492906382787623
99751.787399732915219
99754.163983241887763
99756.592852447982295
99758.901060907242936
99760.723856536045787
99761.638333157417946
99761.341769744540215
99759.70856117909716
99756.842842591344379
99753.122085750394035
99749.205693250434706
99745.961030985621619
99744.29644005667069
99745.012860398579505
99748.563995460106526
99754.822266877206857
99763.364588381460635
99479.747043632873101
99496.324119313881965
99510.303868466857239
99517.635582008791971
99518.436057129249093
99517.226071446129936
99519.530370213804417
99527.302947830568883
99535.975599544297438
99537.396422162753879
99525.948203940875828
99504.069720889106975
99481.946002581040375
99470.179891921943636
99472.427229636785341
99483.815617029104033
99493.923742423794465
99495.204020016899449
99488.243821820346056
99481.288344666463672
99484.972647840622813
99505.399932702639489
99540.406398420236656
99580.617942615441279
99613.670029914443148
99629.463812183923437
99623.984639773480012
99599.636784785383497
99563.135005552481744
99523.517615519740502
99490.159649869572604
99470.285123646288412
99466.485997182375286
99475.890489281286136
99491.74266529630404
99506.174774685045122
99735.728288616315695
99735.596506571615464
99735.880032535613282
99736.664467087335652
99738.030835835874313
99739.958123369186069
99742.194228007138008
99744.243554912958643
99745.559931565119768
99745.725636094924994
99744.575514060692512
99742.318213045553421
99739.570731478132075
99737.261185599825694
99736.366155288895243
99737.723814307348221
99741.840057993031223
99748.590356976143084
99757.597458119824296
99508.744779019092675
99517.455129451176617
99523.218795975466492
99527.526956391084241
99532.559412317656097
99539.836140881336178
99548.385533844237216
99553.931094009385561
99551.324903341548634
99538.084724916072446
99517.832776214039768
99498.527391456766054
99487.424498347027111
99486.243013800791232
99489.943041920720134
99491.213109418924432
99486.014394992453163
99476.963736393634463
99471.772223261752515
99478.273474683810491
99499.525780755342566
99532.01244746951852
99566.957196654257132
99594.449028667688253
99607.397071212646551
99603.081263412168482
99583.283791626192397
99553.273237753397552
99520.244342674384825
99491.621678259558394
99473.158703239634633
99467.285853451146977
99472.473438186236308
99484.215526441505062
99723.641946506264503
99719.784151427520555
99716.267727106489474
99713.721207680224325
99712.582258848065976
99713.078274828934809
99715.186337990482571
99718.528687092242762
99722.369002885418013
99725.825385904827272
99728.17442401254084
99729.036305819958216
99728.443477473236271
99726.891156845231308
99725.33893428837473
99724.949092256632866
99726.745619356282987
99731.286873369899695
99738.345592091340222
99747.478808787622256
99517.000009859009879
99519.757840057165595
99524.521141146149603
99533.689138224537601
99546.213649805475143
99558.930432406341424
99567.537789172856719
99568.517806366769946
99560.304913544940064
99544.391957754094619
99525.780644491213025
99510.135951883959933
99500.762823672150262
99496.731007450842299
99494.162655233434634
99488.666357270383742
99479.570023348598625
99470.945524567723623
99468.78795305575477
99476.91682265237614
99494.843380817095749
99518.136211431046831
99540.263033888797509
99555.652502346012625
99561.638568155191024
99558.116711026348639
99547.020897141919704
99531.457741959922714
99514.208464530049241
99497.646893770623137
99484.006752691828297
99474.859516379670822
99471.062918746552896
99698.122115152989863
99690.812194776037359
99685.24827201354492
99682.413692654197803
99682.705610386285116
99685.926744384210906
99691.371732164712739
99697.922668088212959
99704.263144933443982
99709.256436731986469
99712.312971115941764
99713.496451997765689
99713.383703313898877
99712.901410813981784
99713.11522653119755
99715.053728513696115
99719.374187750625424
99725.880408498618635
99734.111042045668
99509.899978281871881
99515.929363947085221
99531.480252381632454
99552.46571763632528
99571.046364796537091
99580.307421218240052
99577.276793493510922
99564.035574836001615
99545.851909658827935
99528.457083523739129
99515.698159275416401
99507.948958686130936
99502.156707853588159
99495.180798656423576
99485.762394422534271
99475.52167838976311
99468.402294394632918
99468.035931096062995
99474.958945944323204
99486.271295850325259
99497.318927221058402
99504.323743507615291
99505.937794285811833
99503.658956282612053
99501.010316235275241
99500.865374096436426
99503.109878259710968
99505.006598086169106
99502.968155971248052
99494.477402415752294
99480.215822921090876
99464.471578663666151
99670.975314192124642
99660.695165855358937
99652.71153693908127
99648.445852290460607
99648.63271982211154
99653.123064681858523
99660.959695817728061
99670.631340686348267
99680.401615965427482
99688.689037323711091
99694.488950846411171
99697.652964562817942
99698.832753832437447
99699.168856429227162
99699.818814837795799
99701.704947803111281
99705.34833677111601
99710.544513696397189
99716.930784526659409
99494.17644175697933
99516.025281654990977
99543.35480321443174
99567.046721049599
99579.156990270319511
99576.992320938414196
99563.799590161288506
99545.907601787897875
99528.892483269533841
99516.042064801891684
99507.084082328452496
99499.221734944818309
99490.134659239745815
99479.928119834585232
99470.236005610393477
99463.703585677183582
99462.214455212277244
99465.018842571807909
99468.910434875098872
99469.83409593248507
99465.635075752143166
99457.626807546243072
99450.342832716632984
99449.375785578624345
99457.662632212231983
99473.410394821417867
99490.062480991517077
99498.651465734379599
99493.091219677080517
99473.861229164656834
99631.797756274274434
99623.217968031705823
99618.746599135061842
99619.128932322768378
99624.261544792767381
99633.218596366059501
99644.484348644225975
99656.306459255240043
99667.044352539509418
99675.475799798921798
99681.042529107144219
99683.945780517926323
99685.053364269915619
99685.503709528886247
99686.33218297555868
99688.182348664238816
99690.993225394471665
99694.571446124566137
99485.280894915995304
99514.477369432337582
99541.305512097736937
99558.833520437357947
99563.45785428857198
99556.366418060584692
99542.108754333137767
99525.349438488963642
99509.868697456666268
99496.916852934926283
99486.206942743214313
99476.645470645482419
99467.978928929995163
99460.140095848648343
99453.399335544731002
99448.540043575849268
99445.704654229062726
99443.268656987464055
99438.845282592621516
99431.158437623016653
99421.479404639219865
99414.125151395361172
99414.75084248521307
99426.309355995879741
99446.242753720973269
99466.602618324672221
99477.485131653826102
99472.323962154550827
99608.814777049876284
99602.420153080965974
99599.640853539807722
99601.008215415582526
99606.426952976675238
99615.169510169434943
99626.03724972360942
99637.629040114799864
99648.603105058253277
99657.878373030223884
99664.768488937115762
99669.045375655550743
99670.993109898568946
99671.277906255985727
99670.778169803175842
99670.312468029529555
99670.228136185440235
99670.71172026504064
99468.617921773897251
99494.456001754486351
99516.588156985730166
99530.100399513044977
99532.334832029562676
99524.400503407581709
99509.533676284132525
99491.541664095260785
99474.421356005826965
99461.750026931447792
99454.436872910897364
99450.24514129034651
99446.383891377074178
99440.47640937428514
99431.751744161214447
99422.152747689324315
99414.026831444702111
99408.375438801027485
99404.255590553410002
99400.444047300552484
99397.437890349538065
99397.925133994096541
99404.94621840439504
99418.211198231147137
99432.888047330052359
99441.522823603212601
99438.70503254517098
99589.535269288753625
99590.209056988474913
99593.217685054885806
99598.402594648461672
99605.425693566488917
99613.75758487280109
99622.719542155406089
99631.564607379375957
99639.565830623338115
99646.103752850307501
99650.733980285091093
99653.305625534179853
99653.976050063982257
99653.215171928342897
99651.704132901548292
99650.018286334394361
99648.710801755063585
99399.437593131675385
99415.621643666672753
99435.006071133131627
99454.868042125512147
99471.286958150740247
99480.058381140930578
99478.828924447137979
99468.547129256316111
99453.134800872212509
99438.343938882695511
99429.223852425857331
99427.389770918875001
99430.344637288537342
99432.377401189150987
99428.472145163133973
99418.079301381658297
99404.778921874982188
99394.156663366709836
99389.409668464650167
99389.119639146447298
99389.853097055820399
99389.752101922029397
99388.9704803066561
99389.485066176595865
99393.448287204329972
99400.675961854576599
99408.662281705823261
99587.043880497498321
99590.950670074482332
99594.847345106652938
99598.699755910900421
99602.655295911376015
99606.895151504286332
99611.466635901015252
99616.185826620130683
99620.658707429902279
99624.394551753910491
99626.989760026321164
99628.243276594934287
99628.265239122105413
99627.469917229347629
99626.359742788452422
99625.507623380908626
99371.207755068709957
99376.113784458240843
99385.065141016821144
99396.984998653046205
99408.74418223061366
99415.99776199083135
99416.106562023502192
99409.778366845333949
99400.874288153470843
99394.53931976055901
99395.03618465900945
99403.090830970933894
99414.677351600897964
99422.961327763405279
99422.867165720323101
99414.510061629931442
99402.404455668583978
99392.189477630323381
99386.853386970760766
99385.56219306778803
99385.253158824532875
99383.327779897823348
99379.847780253665405
99377.284715731278993
99378.586663972193492
99385.309605176880723
99396.877447091421345
99410.682608220464317
99592.579992384766228
99594.857866266465862
99595.954258984798798
99596.319531656859908
99596.52730885175697
99597.054749141592765
99598.118052345409524
99599.631037016340997
99601.272188243790879
99602.662969466982759
99603.523228559759445
99603.798928298187093
99603.680582247994607
99603.489905785187148
99603.656447895627934
99349.542939099337673
99351.709464987550746
99357.673890557402046
99363.388416018657153
99365.510865717908018
99363.11288738566509
99358.261097090682597
99354.873482400216744
99357.303976408729795
99367.968076442135498
99385.437744270529947
99404.032446514742333
99416.83525624255708
99419.842087099270429
99414.046576229520724
99404.497969785821624
99396.48073551102425
99392.067881221344578
99389.577238094381755
99386.127636790886754
99380.620152362796944
99374.720958724996308
99371.507717812986812
99373.575532813018071
99382.138705131103052
99396.704186596602085
99414.901711280530435
99597.183826108011999
99596.910240741228336
99595.489899099033209
99593.524283725855639
99591.574775798682822
99590.020620085400878
99589.007289073124412
99588.455215823414619
99588.161688220017822
99587.91787458244653
99587.638628134634928
99587.418273150426103
99587.472845990341739
99588.096732035992318
99323.337219912515138
99326.400199387644534
99328.469452364559402
99326.483485868840944
99321.289526593522169
99316.816582765270141
99317.757766068534693
99328.124861155069084
99347.99525410134811
99373.41458769509336
99397.215704755319166
99412.825755343626952
99417.777078608036391
99414.386098032657173
99407.999405954338727
99402.991141477818019
99399.899729697135626
99396.617672639666125
99390.772130960074719
99383.148114609357435
99376.282807216979563
99373.95604674446804
99378.168140184308868
99388.748270990196033
99404.17497430217918
99422.104212802631082
99601.430563080546563
99599.859173731543706
99597.335438540350879
99594.309119240147993
99591.17683502494765
99588.226477868534857
99585.622968091600342
99583.43850522863795
99581.674088764353655
99580.324634317905293
99579.429645476455335
99579.08402623598522
99579.429532193171326
99301.525803934084252
99303.991986693901708
99301.500778463698225
99295.440604011979303
99291.618816734699067
99295.63476495249779
99310.813482288154773
99336.074146618571831
99365.977566650908557
99392.407184577023145
99409.322579851927003
99415.278970661282074
99413.897542856168002
99410.413632872514427
99408.4365420324757
99407.437602343794424
99404.631744881451596
99398.92097070471209
99391.434684667096008
99385.819062830298208
99384.957922885674634
99390.330935835445416
99400.998885571578285
99414.56232403361355
99428.260367854381911
99608.571184529107995
99606.887890049925772
99604.114794405730208
99600.553593655669829
99596.568950104585383
99592.522186829461134
99588.737102667990257
99585.456400199094787
99582.814491139521124
99580.848315799157717
99579.555855600832729
99578.924332595444866
99287.280458144698059
99288.401636984184734
99285.141492072623805
99283.348227967217099
99289.086671548080631
99305.714594630611828
99332.034904654647107
99361.825769172530272
99387.606118038500426
99404.014489354172838
99410.627342230713111
99411.202886306244181
99410.787668335469789
99411.931925869939732
99413.549261729800492
99412.845821779992548
99409.303725815858343
99404.084771237816312
99400.274541884020437
99400.937577283984865
99406.796753792979871
99415.798576616900391
99424.896187668986386
99431.455786727776285
99283.445309823247953
99287.419396165641956
99289.884919319098117
99296.449911671952577
99311.012372439145111
99333.226376320511918
99358.531410001014592
99380.673070625052787
99395.240979287409573
99402.367722862705705
99405.506534014130011
99408.704683593721711
99413.568491469108267
99418.429505162028363
99421.170751418190775
99420.555520135647384
99417.97196154363337
99416.562830941140419
99418.597301088550012
99423.694892456958769
99429.427699885767652
99432.780833654163871
99431.558887758408673
99304.116105871537002
99311.496724268625258
99322.540875858758227
99338.005600598815363
99355.523723568607238
99371.185753526733606
99382.563913219433744
99390.213512273287051
99396.6068864963745
99404.509244291446521
99413.721282036101911
99422.325132072597626
99428.199191643172526
99430.41138911107555
99430.699845943672699
99431.515209035671433
99434.019030058727367
99437.297873908319161
99439.14146731432993
99436.863335106187151
99428.853680791813531
99351.960204422051902
99359.766991104595945
99367.050610366743058
99374.891349628742319
99385.106781875016168
99398.137702943015029
99412.203124287290848
99424.426401862641796
99432.861056067878962
99437.560807936024503
99440.23481551335135
99442.485140854172641
99444.708304119412787
99445.784504002120229
99443.934248526013107
99437.01228885963792
99424.203998253025929
99371.921485742932418
99389.952215978628374
99408.58277100653504
99424.037178530168603
99434.543453353762743
99440.853080819986644
99444.714513575832825
99447.650524558310281
99449.429880171010154
99448.753720050270204
99443.83365789061645
99433.517168249032693
99418.324007586212247
99381.079323186888359
99403.339356956246775
99421.162139348278288
99432.726593784798752
99439.323086293443339
99443.395282900310121
99446.519885186833562
99448.124178398051299
99446.37233396578813
99439.537860079100938
99427.414841820689617
99411.767295598285273
99601.289311737054959
99613.85823720470944
99630.909606007873663
99649.275353822813486
99667.65295957379567
99686.539018162744469
99706.925349103898043
99729.314348235231591
99751.09809732879512
99769.056629472688655
99780.54166855130461
99784.391991586628137
99782.464638357734657
99776.459816166985547
99766.576302011599182
99751.538410710069002
99731.723603240068769
99711.22217863050173
99695.96151033321803
99689.403736458392814
99594.132589575790917
99599.16062803636305
99611.528443421280826
99630.746650393644813
99654.428807338117622
99680.966130357832299
99709.49400128882553
99737.999451882351423
99763.74871132725093
99784.690207140040002
99799.522264437895501
99807.829824544955045
99810.838527245461592
99809.011112974985735
99801.796995899581816
99788.018464701308403
99767.033536375514814
99741.464255700804642
99717.049533134544617
99699.440879271016456
99690.531053861574037
99687.865779689556803
99586.555199093942065
99590.938462527454249
99592.049047054766561
99596.475085784739349
99608.556054942004266
99628.963409895426594
99657.455837911897106
99692.546603949012933
99730.43863839317055
99766.579632528388174
99795.275287202719483
99814.454733577818843
99825.710655590461101
99831.298102206594194
99833.59691124103847
99832.152767480292823
99824.158031870916602
99806.860773371226969
99780.347044906113297
99749.491099304825184
99721.645675126259448
99702.12639519845834
99691.146378754128818
99685.544511444575619
99682.511020663878298
99681.455093553668121
99566.622412736469414
99582.106940798737924
99588.252882690896513
99589.994542075553909
99593.762646506540477
99604.818650541346869
99626.441894201285322
99659.443152125866618
99701.849203391248011
99749.024060588533757
99791.614499169721967
99823.013226820519776
99841.022973267143243
99848.318540502499673
99851.059497360212845
99852.721007578860736
99851.876487829038524
99843.468529912541271
99823.026155183863011
99791.496337364878855
99755.853970025156741
99725.073191138115362
99704.005105916381581
99691.287693703023251
99682.954858223107294
99677.460959941410692
99676.409407400846248
99681.389847936094156
99532.852368053019745
99560.435361406576703
99578.280219864565879
99585.944363109243568
99588.019485556389554
99590.970910663614632
99601.086673047058866
99623.21629029691394
99660.120808323801612
99709.639388532581506
99764.417016565726954
99813.450530172412982
99846.922257554033422
99863.126275133297895
99867.006174613168696
99867.078662278494448
99868.237036865975824
99868.186848408688093
99859.628973808517912
99836.478941430410487
99800.526955714653013
99760.701093045892776
99727.493986431276426
99705.290900092266384
99691.201806516066426
99680.467720690576243
99672.61855139824911
99671.461476803771802
99679.57895326866128
99693.541105199939921
99492.671951205207733
99525.780264654604252
99555.379424400351127
99575.298141415347345
99584.38139015516208
99586.430753841195838
99588.328479639894795
99597.409490160556743
99619.986161431035725
99660.21615411399398
99715.806386284748442
99777.151338191819377
99830.877098589480738
99866.792624246998457
99881.095523977724952
99881.564577090990497
99879.210184770941851
99880.078661960564204
99881.057201172225177
99872.632477848426788
99847.302225274877856
99807.46109616557078
99764.010093700810103
99728.793935730995145
99705.84916352579603
99690.777645521782688
99678.064387462363811
99668.151870201982092
99666.866512757798773
99677.816113196779042
99696.395968863755115
99711.461649408185622
99486.162678507578676
99520.391940412519034
99551.740071648498997
99573.30300852250366
99583.263256789534353
99585.172495503036771
99585.9564919348486
99593.918965733639197
99617.051915374031523
99659.7001888739469
99719.743936166996718
99786.404550855222624
99844.699905732748448
99881.240340875374386
99894.236500953440554
99892.049812540761195
99887.690288794663502
99888.500600172861596
99890.597419931407785
99882.436657641330385
99855.4454122036841
99812.415728384454269
99766.114516799716512
99729.403629761291086
99706.055112960908446
99690.381799136594054
99676.06108832906466
99664.397374135180144
99662.840947997290641
99676.111903250362957
99698.407343509970815
99716.72982469611452
99719.598707880752045
99466.780775527673541
99498.226244526042137
99558.41716566044488
99607.848036995623261
99622.734205993852811
99612.356917013617931
99481.785925507516367
99516.892962306330446
99549.429442543172627
99572.047886309097521
99582.579670149338199
99584.244008867244702
99584.179181079583941
99591.444594813190633
99614.667564368122839
99658.926576242956799
99722.126950480596861
99792.983937499593594
99854.009824927998125
99891.511784903428634
99903.282252645250992
99899.002444468904287
99893.173141983555979
99894.022812775088823
99897.045571662951261
99889.143398806118057
99860.970568027900299
99815.557109669025522
99767.19602038305311
99729.454888733496773
99705.917916791135212
99689.934258838256937
99674.479562509222887
99661.549219151143916
99659.837999014387606
99674.799441725874203
99700.0922692604654
99720.775994309762609
99724.3346264239226
99708.978812694942462
99477.823355497966986
99464.455394720018376
99496.589559194486355
99558.595986846150481
99609.128455032230704
99623.64191565735382
99612.038639872538624
99479.645104249677388
99515.219386486685835
99548.351790618966334
99571.470841565373121
99582.203290324134286
99583.724875869593234
99583.346258111792849
99590.076619243685855
99613.269600297542638
99658.308785998699022
99723.439461189132999
99796.327644837743719
99858.818631414571428
99896.763146958852303
99907.783773087561713
99902.321935101179406
99895.726635459126555
99896.672424232077901
99900.250908923248062
99892.52179062878713
99863.681570659478894
99816.975127072277246
99767.52847114513861
99729.316276850440772
99705.75710521642759
99689.65188076395134
99673.609311165637337
99659.9275934935431
99658.210776411855477
99674.006120938895037
99701.014593861007597
99722.805884741421323
99726.678097579497262
99710.949900085048284
99683.224605169831193
99777.077470633521443
99767.052179983293172
99758.115672894724412
99750.643382754220511
99745.094188291244791
99741.966452093387488
99741.684195242691203
99744.368950023301295
99749.623539504405926
99756.685059326948249
99764.497388000847423
99471.548482509955647
99467.007061074575176
99450.155465117975837
99428.286425212951144
99412.695622009821818
99411.465487611640128
99424.686640132160392
99443.930617924823309
99457.934844728340977
99459.599713971285382
99450.452112157872762
99438.672566159482813
99433.689687642865465
99439.969769511866616
99456.08830231311731
99475.953044930065516
99493.280680120282341
99503.79782407147286
99506.688006468131789
99503.515303337087971
99498.085604487961973
99493.551587652036687
99492.777182605903363
99496.670020958277746
99504.199555728759151
99513.61723230953794
99522.90836722261156
99531.047484800161328
99538.700492962016142
99546.846438481443329
99555.440558214861085
99562.929643886804115
99566.838782824750524
99565.257691809150856
99558.011490631237393
99547.45631055838021
99817.066138370006229
99827.897059406474
99832.702627161241253
99831.925874366541393
99826.526652558051865
99817.741735894669546
99806.881554055144079
99795.12451899687585
99783.369010265480028
99772.229473481769674
99762.037710807126132
99752.937032059213379
99745.11172986040765
99738.849837015543017
99734.501016183086904
99732.420204710811959
99732.931855223141611
99736.270214819349349
99742.274608157793409
99750.288124510610942
99759.474470043685869
99482.042555022591841
99472.923493326990865
99454.853085469352663
99434.56294136143697
99421.565171192691196
99421.544698891666485
99432.563957806356484
99446.610708821433946
99454.444116184284212
99451.884040092481882
99442.322269500014954
99433.900665320979897
99434.565988799688057
99447.4706910882378
99469.498924469051417
99493.461763036146294
99511.51258678479644
99518.940747457454563
99514.820114220128744
99502.936207638049382
99489.157560844789259
99479.299327765969792
99477.355377424421022
99483.323913812244427
99495.188758967356989
99509.429542233236134
99523.121076783194439
99536.281685882262536
99550.117498657316901
99565.160671409204951
99580.799631791596767
99594.615362260548864
99603.111909799525165
99602.932864312344464
99592.983230973870377
99575.813535908353515
99802.415386737920926
99811.148720710145426
99814.304598187460215
99812.361497894264176
99806.178341223145253
99796.85747907149198
99785.580442162550753
99773.51606567404815
99761.6882978703361
99750.832903286805958
99741.392796115862438
99733.56179151442484
99727.393563862569863
99722.946546437829966
99720.328468542633345
99719.663157562667038
99721.016024934113375
99724.462959306882112
99730.004085181644768
99737.323236893425928
99746.049024917039787
99478.822573946687044
99461.565590376107139
99444.417447964267922
99433.58789799020451
99432.432935328382882
99438.182703622529516
99444.409053697134368
99445.584534258756321
99440.672065719598322
99433.599310541772866
99431.09793405700475
99438.730534753514803
99457.768577134673251
99484.253583043915569
99510.394104760838673
99527.991406221699435
99531.917170928136329
99521.93948275524599
99503.00639853834582
99482.63884637823503
99468.441543885390274
99464.600186257404857
99471.440381797641749
99485.408533403955516
99501.885356956452597
99518.962487556244014
99537.312896383620682
99557.739255299224169
99580.10213963080605
99602.673849025042728
99621.983650280846632
99633.203308391035534
99632.036022518062964
99617.700766855923575
99789.61102437635418
99791.132674761407543
99788.248893788157147
99781.603297820576699
99772.08077260281425
99760.717258228585706
99748.611159734398825
99736.855736840559985
99726.40641572655295
99717.91103173654119
99711.635002438997617
99707.509601855461369
99705.269703863756149
99704.587391150169424
99705.219931346990052
99707.029562659125077
99709.996886351378635
99714.169974774078582
99719.439350528060459
99725.930768594975234
99486.259404275653651
99471.396807388911839
99457.588847254926804
99447.019988702435512
99440.58355006952479
99437.119446862241603
99434.0139023247757
99429.989955672062933
99426.008197306131478
99425.353077840714832
99432.049288213995169
99448.135553033542237
99472.26935159599816
99500.037836788149434
99524.874046947428724
99540.175339445500867
99541.225639785145177
99528.015702261793194
99505.436170427157776
99481.600259593382361
99464.306709670228884
99457.973552571216715
99462.546181586265448
99474.873446682526264
99492.01775462939986
99512.741289491372299
99536.379778568996699
99562.733344035528717
99590.870578605870833
99617.792868594260653
99638.847696503071347
99649.030685874487972
99645.004584841459291
99626.772561129837413
99763.645740730542457
99763.873757904322702
99760.596021079996717
99754.16888987274433
99745.217460744548589
99734.6072761684336
99723.361294235583046
99712.5603500342404
99703.23910628867452
99696.190157072065631
99691.75235190152307
99689.750675849500112
99689.644682721307618
99690.758674245182192
99692.470765992504312
99694.303289729650714
99696.085924225029885
99697.991632173405378
99700.240362760654534
99703.473102656193078
99483.889355550301843
99471.880095113083371
99458.189028467037133
99442.865895299968543
99428.052203219849616
99416.246486724470742
99410.056478415135643
99411.394715688555152
99421.593247100652661
99440.34571137939929
99464.944755590142449
99491.354576176527189
99515.539545916893985
99534.172237126287655
99544.279669013470993
99543.301970207219711
99531.038067857662099
99510.498076053190744
99487.484248352397117
99468.299419734001276
99457.421141722094035
99456.765002885309514
99466.021556713909376
99483.725836228768458
99508.006391298898961
99536.598210157098947
99566.888791316654533
99595.694925396805047
99619.789185667483252
99636.129571415600367
99642.019383257909794
99635.360310025309445
99730.223942678130697
99726.890237918487401
99721.307120408178889
99713.868308233199059
99705.29144238459412
99696.512564082455356
99688.504633616510546
99682.11376220654347
99677.954902578843758
99676.272272140631685
99676.811698913108557
99678.84114156254509
99681.390861084641074
99683.61344267509412