/*--------------------------------*- C++ -*----------------------------------*\
  =========                 |
  \\      /  F ield         | OpenFOAM: The Open Source CFD Toolbox
   \\    /   O peration     | Website:  https://openfoam.org
    \\  /    A nd           | Version:  12
     \\/     M anipulation  |
\*---------------------------------------------------------------------------*/
FoamFile
{
    format      ascii;
    class       volScalarField;
    location    "0.0068";
    object      p_0;
}
// * * * * * * * * * * * * * * * * * * * * * * * * * * * * * * * * * * * * * //

dimensions      [1 -1 -2 0 0 0 0];

internalField   nonuniform List<scalar> 
106891
(
99776.657015709686675
99773.617991113191238
99768.67318843670364
99762.480132292432245
99756.113386992525193
99750.784563892695587
99747.594383004077827
99747.317674637000891
99750.150868396987789
99755.701731085806387
99762.960707841921248
99441.452552977701998
99459.498889006456011
99482.313351521530421
99501.237410578949493
99508.637450303678634
99503.529701540450333
99492.700356573390309
99485.648158745025285
99486.935189326424734
99492.634554867719999
99493.323104195907945
99482.302273995766882
99462.081853104289621
99442.528806659975089
99435.315018710840377
99446.432841172398184
99470.912273837835528
99496.595659121958306
99512.472976183562423
99515.690819054128951
99512.757417873945087
99513.865660701179877
99526.244224711015704
99549.441535037913127
99575.82766128781077
99595.223558054654859
99600.453340624328121
99589.965176290264935
99567.283732573210727
99539.165813431929564
99513.09452607856656
99494.884638152638217
99487.120490993678686
99489.161566851777025
99497.231700174437719
99505.370400485073333
99508.095194717257982
99503.084945957161835
99751.744039216719102
99754.685930074658245
99757.684721251920564
99760.780531769341906
99763.96583576122066
99767.093755273235729
99769.813706253335113
99771.649864756560419
99772.196453410535469
99771.191109742489061
99768.54258075436519
99764.430280025029788
99759.356861239095451
99754.160444816385279
99749.882517382822698
99747.523777769732988
99747.84811874681327
99751.167763127479702
99757.232894546425086
99765.342370911355829
99467.368209556298098
99487.259064978716196
99504.378297155242763
99512.140066049279994
99509.840845317085041
99503.466673311442719
99501.213550084561575
99506.683774225835805
99515.392848614312243
99517.55529905424919
99506.475943358804216
99484.279604292169097
99462.097795619803946
99451.672845819310169
99458.617818632541457
99477.612431501431274
99496.442925949173514
99505.096522120278678
99502.410568744147895
99496.265750672129798
99498.096231576739228
99515.645439071304281
99547.349544752345537
99583.914523090992589
99613.346740998676978
99625.889885591634084
99617.769855277321767
99592.120498011674499
99556.562242525280453
99520.236094947016682
99491.55241333025333
99476.067601459697471
99475.036644293504651
99485.025400042155525
99499.009315259565483
99509.266362677939469
99744.748398157098563
99746.82203913172998
99749.038018027931685
99751.337860327359522
99753.700602265496855
99756.095541755625163
99758.35376586097118
99760.115330925793387
99760.959196793599403
99760.588144845736679
99758.88839277344232
99755.980156011646613
99752.259587968772394
99748.401527938709478
99745.279943880566861
99743.798939416170469
99744.743489166605286
99748.539246561485925
99755.021484608339961
99763.728655560262268
99480.098372062930139
99496.701033325836761
99510.508213455454097
99517.578210635532741
99518.211295737477485
99517.047625681807403
99519.566257187601877
99527.515446394929313
99536.115623199177207
99537.17615936731454
99525.291133758219075
99503.202513246083981
99481.293650430234266
99470.005352157677407
99472.700551815476501
99484.217843099075253
99494.090588166334783
99495.008887581134331
99487.892123936428106
99481.190843486765516
99485.483956765776384
99506.59684981754981
99542.03764808102278
99582.218186574187712
99614.754207710269839
99629.725254914403195
99623.383685070133652
99598.358276615050272
99561.511172053171322
99521.950514637341257
99489.028643704659771
99469.824590659118257
99466.708593851217302
99476.59879007411655
99492.616595792947919
99506.891731018797145
99735.106020139792236
99734.994608655295451
99735.298222496072412
99736.096385208991705
99737.462664868027787
99739.370389949326636
99741.565449070534669
99743.555086501597543
99744.800860197807197
99744.899904384583351
99743.705260567250662
99741.442794309317833
99738.744265216868371
99736.547308515844634
99735.827575896852068
99737.406824601173867
99741.760202736186329
99748.726198758056853
99757.889845539946691
99508.901267382476362
99517.479886074273963
99523.142416058064555
99527.425809441498131
99532.519487415542244
99539.886344036276569
99548.447182691888884
99553.826899011706701
99550.908053069710149
99537.362901657310431
99517.026579989556922
99497.915599289757665
99487.168979169189697
99486.254720074633951
99489.971797361009521
99491.035444706460112
99485.621508672746131
99476.586366373274359
99471.743400583523908
99478.821583775381441
99500.635750223242212
99533.423265959092532
99568.276106415971299
99595.323669105346198
99607.62116562895244
99602.624465099521331
99582.283148816684843
99551.993147814995609
99519.005865325743798
99490.720621329644928
99472.785413448684267
99467.472859611472813
99473.090252252339269
99485.032999723567627
99722.797116548958002
99718.945000060484745
99715.464868181952625
99712.980927154494566
99711.9185067708313
99712.486411997539108
99714.643182894127676
99717.997250471293228
99721.807060509876464
99725.195431380561786
99727.456607713073026
99728.24141099776898
99727.614417027594754
99726.091721890625195
99724.637685154739302
99724.406785859697266
99726.404723423474934
99731.159347688502748
99738.404655314050615
99747.660944786126493
99516.877683758139028
99519.592809160982142
99524.461661661916878
99533.765217336520436
99546.349914183956571
99558.994600153935608
99567.398606029775692
99568.102476821790333
99559.631250915175769
99543.585308234149124
99525.040182006123359
99509.598282060396741
99500.449093629576964
99496.528860823222203
99493.901618244679412
99488.250337218589266
99479.08761286889785
99470.614905108363018
99468.813693611620693
99477.361273007103591
99495.606365786035894
99518.999391569581348
99540.989194901732844
99556.088748868030962
99561.734318887218251
99557.898631281073904
99546.583275928642252
99530.918952074076515
99513.672293885509134
99497.214731535234023
99483.767607741508982
99474.86643310765794
99471.331833452451974
99697.060033622459741
99689.801484927593265
99684.34448259221972
99681.65542935616395
99682.103417865291703
99685.457208396110218
99690.982653793747886
99697.54709115003061
99703.836749973328551
99708.733024117245805
99711.678068322667968
99712.776379505201476
99712.64267092794762
99712.221777326602023
99712.569891100996756
99714.685466953073046
99719.186512249929365
99725.838329038611846
99734.146944036576315
99509.625412124994909
99515.960929063920048
99531.796940378291765
99552.82441779889632
99571.16669452287897
99580.01806521868275
99576.592378010056564
99563.135748346729088
99544.957688597292872
99527.740963395699509
99515.213981370863621
99507.602732772691525
99501.801227946882136
99494.727233653698931
99485.224306587930187
99475.025060400046641
99468.104751739476342
99468.018374400024186
99475.16886457761575
99486.559350403011194
99497.534576043995912
99504.391405761853093
99505.885703909909353
99503.605266510072397
99501.092305668862537
99501.123544765054248
99503.454704290343216
99505.28806188076851
99503.048046904339571
99494.311451639383449
99479.910544799990021
99464.23841103327868
99669.793680849761586
99659.579733854348888
99651.742290637354017
99647.674958186689764
99648.074371426191647
99652.75208878943522
99660.717253209120827
99670.438387514208443
99680.178592897544149
99688.374866781290621
99694.052861181844492
99697.100078639909043
99698.20359141282097
99698.530468843862764
99699.244274862663588
99701.247486117150402
99705.021032568634837
99710.317208614142146
99716.741230483996333
99494.378046782701858
99516.54778698766313
99543.910649149096571
99567.296559524256736
99578.906245660269633
99576.286026495639817
99562.857099872591789
99544.973013259586878
99528.128085988224484
99515.484597042581299
99506.634778728111996
99498.754159444812103
99489.601606656404329
99479.36907514410268
99469.738686837168643
99463.364954272576142
99462.05564020042948
99464.959771035268204
99468.813819116447121
99469.594346056124778
99465.268467460060492
99457.282908327251789
99450.252759854512988
99449.716541015674011
99458.437784210545942
99474.418844277315657
99490.950321128635551
99499.078687390545383
99492.93476619113062
99473.287417750616441
99630.760930245218333
99622.341178928807494
99618.08805823912553
99618.708801385291736
99624.057408197390032
99633.170783067704178
99644.509587656561052
99656.316737236062181
99666.966937668126775
99675.268995131598786
99680.700808545472682
99683.49393008343759
99684.535706334398128
99684.971494613797404
99685.829649680876173
99687.731496821754263
99690.584368886076845
99694.164293844412896
99485.871063227532431
99515.127630887975101
99541.745337070940877
99558.857605344324838
99563.033855648187455
99555.621455118453014
99541.230985917252838
99524.499779153513373
99509.129623407294275
99496.285117790786899
99485.640133556284127
99476.109029478786397
99467.476538467977662
99459.673301412069122
99452.993765589752002
99448.221076744288439
99445.446272279834375
99442.996454250518582
99438.499825641469215
99430.765455654633115
99421.175136997320806
99414.134566446242388
99415.25245271352469
99427.291216162673663
99447.457274580840021
99467.650374578050105
99478.007993495659321
99472.199821254966082
99607.983860971507966
99601.745491178546217
99599.161048687121365
99600.736579129050369
99606.34761005792825
99615.239510209532455
99626.193950190558098
99637.80077592653106
99648.721858712262474
99657.892943712911801
99664.653370225219987
99668.802535628055921
99670.645946924632881
99670.860473941938835
99670.323997433093609
99669.844940199473058
99669.754466390964808
99670.219937431073049
99469.164116073399782
99495.001559393276693
99516.94500183549826
99530.103328285971656
99531.958598060911754
99523.719295477028936
99508.673358835731051
99490.643486660366761
99473.635573032559478
99461.174546838272363
99454.043552139832173
99449.934973119030474
99446.062626114508021
99440.077168443589471
99431.301220347755589
99421.749764336884255
99413.749411218333989
99408.235299020278035
99404.212251501419814
99400.486543758233893
99397.628594947193051
99398.384605832077796
99405.727614197530784
99419.19627057191974
99433.811050578820868
99442.105542013974627
99438.865995332947932
99589.103982403074042
99589.899485581554472
99593.028492712968728
99598.324346387846163
99605.440263950062217
99613.838201383201522
99622.832080924563343
99631.669961883555516
99639.623794474260649
99646.079664872668218
99650.606920211095712
99653.073683472946868
99653.655100540170679
99652.831383621669374
99651.283578049362404
99649.579011154040927
99648.257678112044232
99399.471150615572697
99415.847324383386876
99435.380717528969399
99455.257006907078903
99471.525171269939165
99479.994002859471948
99478.416852734138956
99467.865576606054674
99452.365582935351995
99437.70763244185946
99428.863534396092291
99427.304086695745355
99430.379777121779625
99432.315179224184249
99428.203069784067338
99417.667891084740404
99404.415934527671197
99394.031368978161481
99389.556871184977354
99389.425139733255492
99390.202863251106464
99390.10961619259615
99389.372821991433739
99390.023863235124736
99394.171349321390153
99401.532386604012572
99409.547405787496245
99586.913694254049915
99590.82047601978411
99594.711219776188955
99598.562817497455399
99602.528894318747916
99606.788817947672214
99611.380759573366959
99616.108646367953042
99620.56877042396809
99624.267518831111374
99626.806922302028397
99627.998647067812271
99627.968182901429827
99627.140375952862087
99626.018907230565674
99625.167942500862409
99370.790403986306046
99375.884774387435755
99385.039054676060914
99397.095664457476232
99408.857507477659965
99415.933542727507302
99415.814075361500727
99409.332362057248247
99400.451790300343418
99394.331480013570399
99395.157992706022924
99403.492668923499878
99415.147127645715955
99423.254758537688758
99422.883055630401941
99414.337957867304794
99402.245998980448348
99392.213960847671842
99387.10214608979004
99385.953168424413889
99385.666831437280052
99383.707972537347814
99380.25075283915794
99377.829826601679088
99379.377112692338414
99386.372145096742315
99398.151583287355606
99412.026358266026364
99592.50994519352389
99594.706944761870545
99595.74008658216917
99596.072478859918192
99596.280022844308405
99596.831814946024679
99597.929479401980643
99599.471695691434434
99601.126696200677543
99602.513690844076336
99603.357735027995659
99603.613774746874697
99603.480816673647496
99603.285784188978141
99603.456687815458281
99349.06613694432599
99351.454244335225667
99357.549091298613348
99363.253470347975963
99365.279385111934971
99362.800337394888629
99357.980116235950845
99354.787960860296153
99357.551328341884073
99368.581667173231835
99386.282848441391252
99404.856561189269996
99417.414850261397078
99420.107843584264629
99414.109791728638811
99404.561730089830235
99396.686200394062325
99392.413002937319106
99389.963291316729737
99386.479215689687408
99380.955093529526494
99375.148938512909808
99372.151854920637561
99374.518951066143927
99383.399272729264339
99398.220053914759774
99416.532817641505972
99597.06506215108675
99596.702759284424246
99595.226984037697548
99593.243220201562508
99591.306975370534929
99589.785608874430181
99588.811274684136151
99588.293132253616932
99588.021987093641656
99587.788976135954726
99587.513660487995367
99587.29620493548282
99587.356833545898553
99587.989666588808177
99323.059994868235663
99326.215790876987739
99328.214330519011128
99326.132234355129185
99320.949726710372488
99316.668633349152515
99317.979794023020077
99328.806321483032661
99349.056395063918899
99374.631131889531389
99398.304878419890883
99413.600412852014415
99418.225902631005738
99414.655137884852593
99408.279779689095449
99403.367654754896648
99400.320839289473952
99397.000604629589361
99391.08819313654385
99383.479371031178744
99376.772874551577843
99374.727481477195397
99379.257079622955644
99390.115724729010253
99405.732261567085516
99423.732446720532607
99601.305127371873823
99599.663421456527431
99597.098563655163161
99594.059991919231834
99590.937670638173586
99588.010518254406634
99585.435475257618236
99583.278544091590447
99581.53697775072942
99580.205183597223368
99579.324539043809636
99578.992031730143935
99579.349938840954565
99301.487453751062276
99303.828599428481539
99301.192853855391149
99295.158166845227242
99291.615013240749249
99296.091623490487109
99311.787361018054071
99337.427081246481976
99367.424876329139806
99393.652373701421311
99410.207472461057478
99415.846789354342036
99414.322526093150373
99410.861332728585694
99408.957609854289331
99407.944620013993699
99405.060736051964341
99399.272318520903355
99391.823357257555472
99386.38281789937173
99385.793914212408708
99391.445646246720571
99402.316077746261726
99415.961492293310585
99429.622274054127047
99608.505096409018734
99606.753432126221014
99603.929653216691804
99600.338454560522223
99596.343112306421972
99592.301073701615678
99588.531386120041134
99585.271060558792669
99582.649602829536889
99580.701251307444181
99579.423134753888007
99578.80368672410259
99287.407590007118415
99288.346045290410984
99285.061881443019956
99283.507010293935309
99289.70027630761615
99306.826353366734111
99333.492054405694944
99363.333650411717827
99388.890601407954819
99404.952538622950669
99411.279613503909786
99411.745439322054153
99411.363105094409548
99412.56706829329778
99414.152298147542751
99413.343977967306273
99409.730283627199242
99404.538491843297379
99400.882376052832115
99401.781372880621348
99407.838438990031136
99416.91888513021695
99425.969051028267131
99432.393760045131785
99283.83560185150418
99287.715992026976892
99290.267532427489641
99297.134271890987293
99312.08482463620021
99334.578192075699917
99359.932899260369595
99381.891256057322607
99396.17623053555144
99403.08782314027485
99406.156362493449706
99409.403787152565201
99414.296312789883814
99419.121483544251532
99421.755584358164924
99421.044851921062218
99418.466437348120962
99417.183706518335384
99419.377348086272832
99424.561534110456705
99430.257205167712527
99433.461643187270965
99432.038287694071187
99304.744790823431686
99312.228858208676684
99323.482110197393922
99339.124761427738122
99356.683936882240232
99372.238122340932023
99383.459695743775228
99391.006523150586872
99397.396955469186651
99405.348511543110362
99414.562152124199201
99423.091932793671731
99428.831314304203261
99430.933817692915909
99431.214352637995034
99432.098228952032514
99434.664734916572343
99437.932471682608593
99439.657268859853502
99437.165821291462635
99428.930147271035821
99352.794936395250261
99360.586959430074785
99367.866155562151107
99375.749199258949375
99386.053305257417378
99399.135106503003044
99413.156802276804228
99425.242627363884822
99433.50701747048879
99438.091829678451177
99440.72568709688494
99442.979949102693354
99445.184306749593816
99446.179576611917582
99444.160044143893174
99437.003001123433933
99423.986730943273869
99373.004227934943628
99391.097584197035758
99409.630978779692668
99424.880596455681371
99435.174884919659235
99441.340617679583374
99445.131980493257288
99448.033248207924771
99449.744085491765873
99448.93337638353114
99443.815323426533723
99433.287578689371003
99417.943687802835484
99382.325653614854673
99404.444131376119913
99421.99793149328616
99433.295944951518322
99439.716861003966187
99443.714812682272168
99446.791364977398189
99448.304410017575719
99446.387358390667941
99439.344699031935306
99427.051687612009118
99411.332721563623636
99601.11525330049335
99613.936975453965715
99631.103474753632327
99649.483580756234005
99667.857562678036629
99686.766152933123522
99707.238606431958033
99729.694514640854322
99751.460672752422397
99769.273132410569815
99780.507313313501072
99784.117691014806041
99782.012086054892279
99775.889836842965451
99765.879130668996368
99750.704127855075058
99730.84410975962237
99710.499491850016057
99695.591283250585548
99689.420185777227744
99593.75774526038731
99599.067603677191073
99611.746353829148575
99631.192615786392707
99654.970361939820577
99681.571033354455722
99710.127542904170696
99738.58923010500439
99764.228260353353107
99784.991443822320434
99799.596160793458694
99807.689767774165375
99810.507623904632055
99808.484689548364258
99801.061161569552496
99787.05588603913202
99765.896427403931739
99740.322504751326051
99716.138150670667528
99698.913955384210567
99690.382627001599758
99687.956129287733347
99586.333014907751931
99590.565220766875427
99591.745412104195566
99596.457154765521409
99608.881279232387897
99629.593453882393078
99658.355974155580043
99693.590586881953641
99731.471353450440802
99767.430881573905936
99795.789118292203057
99814.659191831640783
99825.653444432886317
99831.067539823459811
99833.222106712171808
99831.571300494222669
99823.278350883512758
99805.654999700578628
99778.928306324072764
99748.111437872168608
99720.567485578038031
99701.463411962045939
99690.841641038132366
99685.478138788254
99682.600275443561259
99681.67711876006797
99566.832263665506616
99582.019210187339922
99587.979098639858421
99589.770344015589217
99593.781017637331388
99605.22480917541543
99627.278897584372316
99660.644424148995313
99703.29482546383224
99750.436913245415781
99792.67455341060122
99823.594743840149022
99841.12316158899921
99848.120025766751496
99850.734932640407351
99852.312023992199101
99851.256910829179105
99842.46868985502806
99821.60317403364752
99789.82349828875158
99754.265715972156613
99723.851612366051995
99703.226565897755791
99690.843813855681219
99682.739581582005485
99677.46492735533684
99676.675347368713119
99681.886982149939286
99533.387246729427716
99560.749664719885914
99578.290821999093168
99585.760266637254972
99587.843428036969271
99591.025165067403577
99601.544455811323132
99624.1967471040698
99661.619956970389467
99711.437027340871282
99766.166170793920173
99814.729966723039979
99847.507859661185648
99863.121966419057571
99866.669680735227303
99866.66941742299241
99867.804189331320231
99867.543837714634719
99858.530799049985944
99834.864919328989345
99798.633180675824406
99758.934484348035767
99726.156276792578865
99704.418915781527176
99690.641831989065395
99680.116170792476623
99672.541536232864019
99671.769019484097953
99680.229473722356488
99694.27883347790339
99493.211175506439758
99526.376292477783863
99555.790435210205032
99575.410558352901717
99584.261501719782245
99586.272392959304852
99588.384476350795012
99597.899951877872809
99621.093039687417331
99661.956812027303386
99717.908457168203313
99779.131791588384658
99832.324447631064686
99867.428783161420142
99880.977629962319043
99881.104580411323695
99878.733735909336247
99879.639817359551671
99880.410328858983121
99871.462611164635746
99845.528983461190364
99805.38055445435748
99762.095970103226136
99727.366585604147986
99704.907631193520501
99690.122636713160318
99677.598163957212819
99668.001094446750358
99667.210893918279908
99678.603071680918219
99697.287229777459288
99712.024074170243694
99486.70974992007541
99521.050714292621706
99552.232373623322928
99573.490658499431447
99583.181661171096493
99585.020481392813963
99585.991314946921193
99594.437640836811624
99618.262375434438582
99661.605761878498015
99722.064990837956429
99788.629699083146988
99846.262052160964231
99881.850207517039962
99894.050651042198297
99891.489766176309786
99887.160503730541677
99888.066170628371765
99889.956113335982081
99881.212589253307669
99853.545812150099664
99810.186325391579885
99764.086261570191709
99727.911621588616981
99705.066268162176129
99689.653788109280868
99675.503998095256975
99664.185533056443091
99663.213725217836327
99677.014848708800855
99699.437177296189475
99717.37678256072104
99719.591977950389264
99467.384631603432354
99500.194269209023332
99560.740273845323827
99609.386271598559688
99623.251975393577595
99612.489373359654564
99482.344297218092834
99517.594218302008812
99549.970595717022661
99572.280909201668692
99582.526272666058503
99584.085228954558261
99584.211548964842223
99591.973035022921977
99615.928063852377818
99660.944834258130868
99724.620536776041263
99795.373771292099264
99855.652757603631471
99892.132293634436792
99903.029236485497677
99898.367583438797737
99892.604559668267029
99893.596430298988707
99896.41570899495855
99887.881435158167733
99858.98260024569754
99813.222346208232921
99765.088091264042305
99727.92183292953996
99704.899294286791701
99689.158919058492756
99673.855526497718529
99661.296359974920051
99660.228626776603051
99675.792397100347443
99701.223029809916625
99721.473054446978495
99724.318738917048904
99708.382376408422715
99477.145074700936675
99465.06228767769062
99498.591030151379528
99560.977462532246136
99610.676863432498067
99624.134203690729919
99612.141914828476729
99480.208253060060088
99515.937724554096349
99548.914162815082818
99571.723154269042425
99582.159797200118192
99583.57531491672853
99583.37654433962598
99590.601243621873436
99614.548720167469583
99660.393912466344773
99726.033012687898008
99798.787970129589667
99860.516633724269923
99897.379009471304016
99907.492817434394965
99901.646451188629726
99895.139628379562055
99896.252784538970445
99899.631176437571412
99891.238244694686728
99861.646929336988251
99814.584270707549877
99765.379957333090715
99727.765085113351233
99704.724780222924892
99688.85384779717424
99672.94870219216682
99659.656012214254588
99658.61036618212529
99675.052247030442231
99702.202832582814153
99723.527576466891333
99726.659501668531448
99710.325439595442731
99682.356741938783671
99776.031384913687361
99766.104642991529545
99757.285499325866112
99749.958377169125015
99744.583979713381268
99741.650360370214912
99741.564571276700008
99744.432250645564636
99749.836583389493171
99756.994317650402081
99764.836031790167908
99471.64900872122962
99466.627115508148563
99449.434172109380597
99427.617651730164653
99412.475523914486985
99411.848766195224016
99425.485965846964973
99444.726802759658312
99458.342154811893124
99459.509579801699147
99450.083210596509161
99438.394563559442759
99433.79935585448402
99440.533298401671345
99456.946933798331884
99476.851874283136567
99493.993159475343418
99504.213911098006065
99506.809269718127325
99503.453673604031792
99497.993281740564271
99493.557593677760451
99492.989390067756176
99497.091134820308071
99504.776168752272497
99514.265353929440607
99523.539185630754218
99531.641232359062997
99539.290541276015574
99547.457095616948209
99556.046522861550329
99563.457322616435704
99567.201960275968304
99565.407003494794481
99557.976316213971586
99547.34444882205571
99817.131905485512107
99827.624009559149272
99832.102251713717123
99831.044342132881866
99825.429471641080454
99816.502553814527346
99805.573017900140258
99793.811091182011296
99782.100189625401981
99771.036123172641965
99760.936141766651417
99751.935698906265316
99744.218447989056585
99738.081113727326738
99733.884735892192111
99731.986621992342407
99732.697533625294454
99736.231235107290559
99742.407322996674338
99750.549025149855879
99759.800860503033618
99481.883660073945066
99472.389812779627391
99454.120722610285156
99433.975453722436214
99421.436024109134451
99421.923391021075076
99433.221808131653233
99447.168160727247596
99454.610764223471051
99451.656981441206881
99441.960401166099473
99433.759271438568248
99434.882379901595414
99448.25847725039057
99470.541952133527957
99494.445473592466442
99512.167836870838073
99519.146697708900319
99514.621745675656712
99502.545893666610937
99488.814904085054877
99479.228651934419759
99477.643028952836175
99483.93437195228762
99496.003798344667302
99510.300202818558319
99523.974005578755168
99537.145429231139133
99551.025677027661004
99566.122093034689897
99581.757343576202402
99595.449844429487712
99603.67982736423437
99603.124487386914552
99592.811241683171829
99575.41894872651028
99802.397473706587334
99810.820735418703407
99813.676558959792601
99811.471030447253725
99805.081119882321218
99795.61796735948883
99784.263828893308528
99772.183194759389153
99760.393677640284295
99749.619652396431775
99740.286289296971518
99732.570448450744152
99726.514654558355687
99722.176786364027066
99719.674267907234025
99719.1429488286376
99720.652233646935201
99724.26759150835278
99729.970891974575352
99737.429004432357033
99746.252846706163837
99478.187239353137556
99460.878742323708138
99443.905883868093952
99433.44718903474859
99432.657854838354979
99438.539825557920267
99444.625910012240638
99445.518851706801797
99440.39829615157214
99433.357448914059205
99431.169206406077137
99439.27749560434313
99458.746066988212988
99485.421716304670554
99511.407663260368281
99528.562078138580546
99531.923203706697677
99521.481501586691593
99502.345640923536848
99482.101320728674182
99468.281415918565472
99464.912770285038278
99472.159024541964754
99486.342687075637514
99502.888205120892962
99520.018001169999479
99538.456469772951095
99558.986127236188622
99581.422919447853928
99603.963716258644126
99623.063161551850499
99633.86460357485339
99632.155556499492377
99617.321587142243516
99789.256375842145644
99790.524720987014007
99787.41022929312021
99780.571738265018212
99770.90687842045736
99759.460703374716104
99747.333838028265745
99735.613981328846421
99725.248065051957383
99716.870846639838419
99710.727713147862232
99706.728362008201657
99704.592463822074933
99703.991106804518495
99704.693447679208475
99706.580056917926413
99709.645920795446727
99713.93986762536224
99719.341655052441638
99725.958130749684642
99485.573302379067172
99470.727188624499831
99457.068349643115653
99446.687085301731713
99440.430655382326222
99437.014164742227877
99433.860560609187814
99429.773393911033054
99425.826381253136788
99425.38038888075971
99432.443826707094559
99448.93205777159892
99473.363499733473873
99501.201638423823169
99525.821744073546142
99540.649956748689874
99541.113748715171823
99527.421525607904186
99504.640392440851429
99480.952535804361105
99464.063255017186748
99458.221817063473281
99463.19862404828018
99475.794142240978545
99493.125807282413007
99514.00445418212621
99537.785199884514441
99564.270421358000021
99592.46339294729114
99619.272287047948339
99639.990257703408133
99649.641662463982357
99645.009306368869147
99626.228358538719476
99763.225962636017357
99763.267189716803841
99759.811913428697153
99753.22723938600393
99744.153610801571631
99733.471619576579542
99722.214482844778104
99711.462469802587293
99702.238135792576941
99695.31661976329633
99691.015798864464159
99689.137034409024636
99689.119643198777339
99690.280408154474571
99692.00814853956399
99693.848034728347557
99695.654728427325608
99697.617756666470086
99699.961848187071155
99703.320501898255316
99483.231573793644202
99471.215271129796747
99457.488129418125027
99442.162543336249655
99427.417901626147795
99415.772644477037829
99409.826539945250261
99411.482119940672419
99422.048491860987269
99441.132034799287794
99465.942137573802029
99492.409706690901658
99516.497570898369304
99534.888991851519677
99544.615635778391152
99543.183033399836859
99530.521560572073213
99509.778575600663316
99486.82805480917159
99467.933627801670809
99457.469876236296841
99457.247992626187624
99466.898102441162337
99484.927502940219711
99509.463209525478305
99538.221091678831726
99568.561723265564069
99597.270630685583455
99621.128732967670658
99637.098842349791084
99642.506560595837072
99635.299900673227967
99729.558454910307773
99726.110646344561246
99720.42336362414062
99712.903328947417322
99704.284881485262304
99695.518275860245922
99687.580187837884296
99681.302959038221161
99677.274673914638697
99675.712051647889894
99676.341777855457622
99678.421494351801812