/*--------------------------------*- C++ -*----------------------------------*\
  =========                 |
  \\      /  F ield         | OpenFOAM: The Open Source CFD Toolbox
   \\    /   O peration     | Website:  https://openfoam.org
    \\  /    A nd           | Version:  12
     \\/     M anipulation  |
\*---------------------------------------------------------------------------*/
FoamFile
{
    format      ascii;
    class       volScalarField;
    location    "0.0068";
    object      pMean;
}
// * * * * * * * * * * * * * * * * * * * * * * * * * * * * * * * * * * * * * //

dimensions      [1 -1 -2 0 0 0 0];

internalField   nonuniform List<scalar> 
106891
(
98777.641796818134026
98778.330017893225886
98779.053591773408698
98779.813991580755101
98780.612560625784681
98781.450196955556748
98782.327506375659141
98783.244576313212747
98784.200217453631922
98785.192816610986483
98786.212557944352739
98772.630109492238262
98772.501242304642801
98772.366948963230243
98772.22681511407427
98772.083988303114893
98771.943508485375787
98771.809372570074629
98771.682076722398051
98771.558782074498595
98771.436311972793192
98771.314328196196584
98771.196293365559541
98771.086684209745727
98770.987238315763534
98770.895527666099952
98770.805334840159048
98770.710206072166329
98770.607330434198957
98770.498855517202173
98770.389842335804133
98770.284532758232672
98770.183271306785173
98770.082477428484708
98769.977126823447179
98769.863873583206441
98769.742917309515178
98769.617833827971481
98769.493924790367601
98769.376197525300086
98769.267631274866289
98769.168690893740859
98769.077560275472933
98768.990767698414857
98768.904329879209399
98768.814999512396753
98768.721220957217156
98768.623597155703465
98768.524258368081064
98775.8873445255158
98776.373752216779394
98776.884196554950904
98777.41951193191926
98777.980570691666799
98778.568332406197442
98779.18385775819479
98779.828291912388522
98780.502834806175088
98781.208780851113261
98781.947515557083534
98782.720477334994939
98783.528967986872885
98784.374166904191952
98785.256850326841231
98786.177447513953666
98787.135949356030324
98788.130918375594774
98789.160733170559979
98790.216000957560027
98772.468508111764095
98772.339146290818462
98772.205239528004313
98772.069300027738791
98771.935565001389477
98771.807328949216753
98771.684818562251166
98771.565160567886778
98771.445400039796368
98771.325644685814041
98771.209781383862719
98771.102688735889387
98771.006251834900468
98770.917885273433058
98770.831788882482215
98770.742014355244464
98770.646434357549879
98770.547690924388007
98770.45074673477211
98770.359024301273166
98770.271670462796465
98770.183631569801946
98770.088722793749184
98769.982899091060972
98769.866085284898872
98769.742240257037338
98769.618026771044242
98769.500192030754988
98769.393365611147601
98769.299239684507484
98769.216440520103788
98769.141010023988201
98769.067593085128465
98768.991011391815846
98768.908007550300681
98768.818224352260586
98779.006208601698745
98779.544143438979518
98780.105963951427839
98780.692365892813541
98781.304117549210787
98781.942075449551339
98782.60717319433752
98783.300434377772035
98784.022955338339671
98784.775893633792293
98785.560441196619649
98786.377821844478603
98787.229153616746771
98788.115445980089135
98789.03735369516653
98789.995171609814861
98790.988905805294053
98792.017065004329197
98793.078147287145839
98794.16320134808484
98772.441360603363137
98772.314855177013669
98772.185487137219752
98772.055378580276738
98771.927474455864285
98771.803930698762997
98771.684587818264845
98771.567377858882537
98771.450298287556507
98771.333781849680236
98771.221330236134236
98771.11724962729204
98771.023480981719331
98770.93764624823234
98770.854775143176084
98770.770084146861336
98770.68221711080696
98770.593867509509437
98770.509146918091574
98770.430170505074784
98770.355038903362583
98770.278340448989184
98770.19369869842194
98770.096971014325391
98769.988066678095493
98769.871108469480532
98769.752811177881085
98769.64023902201734
98769.538743822224205
98769.450720294684288
98769.375245111339609
98769.308331347507192
98769.244287143839756
98769.177484895160887
98769.103918214721489
98769.022336257781717
98782.73645568153006
98783.345941611463786
98783.979898721096106
98784.638916443611379
98785.323637842855533
98786.034765295233228
98786.773073634103639
98787.539430833072402
98788.334833496934152
98789.16037682298338
98790.017183613075758
98790.906227705010679
98791.828308790194569
98792.783918650486157
98793.77321101805137
98794.796190853841836
98795.851317216831376
98796.937264144100482
98798.045675471556024
98772.281930431752698
98772.15668560792983
98772.032627391628921
98771.910701814354979
98771.791297765448689
98771.674054682269343
98771.558158344807453
98771.443263406166807
98771.330796163616469
98771.223884074715897
98771.125556018028874
98771.03636360753444
98770.954057010254473
98770.87469960913586
98770.795272902265424
98770.715493143507047
98770.637610270059668
98770.564369029772934
98770.49649946167483
98770.431236897333292
98770.363238406702294
98770.287130077733309
98770.200059651338961
98770.102712887732196
98769.998822075503995
98769.894012650285731
98769.794096486904891
98769.703293667189428
98769.623432706241147
98769.553819184511667
98769.491498049814254
98769.432106998210656
98769.371170068712672
98769.305148612198536
98785.311865934636444
98785.941378679694026
98786.59497469017515
98787.273082450803486
98787.976020527712535
98788.704064580189879
98789.457527732811286
98790.23682879882108
98791.04258250365092
98791.875615321026999
98792.736908445484005
98793.627531901089242
98794.548467878004885
98795.500517544845934
98796.484147587383632
98797.499390106488136
98798.546185316547053
98799.622915225088946
98800.728361514178687
98801.854738813010044
98772.250925017666304
98772.130450471508084
98772.013283640568261
98771.898016643637675
98771.783111420983914
98771.667850245226873
98771.552734437020263
98771.439490124437725
98771.330841790972045
98771.22954466365627
98771.137036120475386
98771.052622967647039
98770.973896534065716
98770.897957942535868
98770.823174008779461
98770.750113073037937
98770.680892171832966
98770.616969483700814
98770.557589122763602
98770.499433291173773
98770.438079533210839
98770.370297250294243
98770.295309828754398
98770.214459232025547
98770.130382887655287
98770.046239320130553
98769.964849130512448
98769.88796614362218
98769.816263338871067
98769.749727220856585
98769.687695551067009
98769.628726512048161
98769.570645916988724
98789.152452648908366
98789.846535497519653
98790.565063266520156
98791.308114807674428
98792.075622407792252
98792.86749501444865
98793.683785135333892
98794.524764445552137
98795.390938899057801
98796.28302785550477
98797.201982696496998
98798.148849513541791
98799.12461179534148
98800.129955589727615
98801.164964115509065
98802.22958284705237
98803.322198439360363
98804.44179689772136
98805.581339824799215
98772.093840741246822
98771.985355536264251
98771.878219202772016
98771.76897958322661
98771.656685860827565
98771.543472642049892
98771.433239166886779
98771.329774098281632
98771.235256670566741
98771.149604000136605
98771.070759130481747
98770.996178854402388
98770.92418667646416
98770.854694732508506
98770.788864831498358
98770.727883002298768
98770.671521995696821
98770.617901675781468
98770.564414808264701
98770.508796526788501
98770.450142474262975
98770.389064399932977
98770.327006385239656
98770.265347422959167
98770.204576773903682
98770.143990968994331
98770.082342308931402
98770.019005294612725
98769.954683522766572
98769.891164268352441
98769.830571516373311
98769.774140559427906
98792.360000657223281
98793.09055100553087
98793.845212196727516
98794.62382086236903
98795.426017014251556
98796.251411254372215
98797.099702897321549
98797.97082074561331
98798.86504470698128
98799.783007836551405
98800.72558653591841
98801.693704343560967
98802.688282914925367
98803.710063084829017
98804.75927674115519
98805.836180817495915
98806.939434587809956
98808.068298571713967
98809.216447502083611
98771.963483100742451
98771.865415963184205
98771.763640543518704
98771.657309503396391
98771.549046606436605
98771.44340575010574
98771.344508391848649
98771.254580181906931
98771.173477904419997
98771.099373854856822
98771.02993423427688
98770.963571664644405
98770.900220889263437
98770.840831116613117
98770.785952175458078
98770.735149373038439
98770.686946754824021
98770.639410901421797
98770.591044980988954
98770.541901723248884
98770.493635059174267
98770.448119041349855
98770.405912496818928
98770.365385182201862
98770.322985134029295
98770.275064708344871
98770.219797890764312
98770.158435338584241
98770.095163674413925
98770.035291336418595
98796.318007571826456
98797.104362709302222
98797.913782646908658
98798.745721812607371
98799.599530742678326
98800.474671225834754
98801.370881959592225
98802.288260643385001
98803.227255026024068
98804.188646118083852
98805.173376425998867
98806.182337792299222
98807.216285988761229
98808.275478722091066
98809.360305075155338
98810.469628504113643
98811.603097916406114
98812.75527708613663
98771.845299122971483
98771.753773266013013
98771.657383441415732
98771.557852439495036
98771.458884303006926
98771.364605347494944
98771.277928909417824
98771.199872088007396
98771.12979249493219
98771.066075571696274
98771.007277430777322
98770.952552105401992
98770.901639065661584
98770.854462270493968
98770.81074266199721
98770.769684022961883
98770.730203840124886
98770.69146031512355
98770.653567646761076
98770.61758817176451
98770.584581044211518
98770.554572715540417
98770.525598651322071
98770.49389051234175
98770.455230248830048
98770.407408140003099
98770.351962609725888
98770.293821977524203
98799.507920969903353
98800.320634821648127
98801.1548610424652
98802.010275645836373
98802.88644213922089
98803.782920090656262
98804.699411765745026
98805.635870772195631
98806.592516166812857
98807.569829184300033
98808.568441238428932
98809.589073782219202
98810.632476254249923
98811.69895753984747
98812.789077447159798
98813.901976413166267
98815.03754967590794
98816.190878496243386
98771.746781841284246
98771.664696804291452
98771.579165089686285
98771.49198581262317
98771.406604171730578
98771.326423897859058
98771.253731046061148
98771.189461523594218
98771.133388204456423
98771.083849062793888
98771.038243775416049
98770.994500627479283
98770.951787312194938
98770.910552203451516
98770.872074537386652
98770.837323355895933
98770.806126567433239
98770.777505750447745
98770.750492079838295
98770.72474776256422
98770.700134164449992
98770.675884684125776
98770.649747627918259
98770.61859169852687
98770.58044619509019
98770.535941850059316
98770.48836150529678
98803.484707692667143
98804.337896148688742
98805.210595517623005
98806.102604640633217
98807.013780496446998
98807.944083561815205
98808.893572502260213
98809.862421691563213
98810.850925921986345
98811.859471342278994
98812.888484204508131
98813.93852750613587
98815.009901601719321
98816.103267741433228
98817.218007739735185
98818.354248772200663
98819.507719402012299
98771.788911776689929
98771.721812083444092
98771.654916822983068
98771.586428502443596
98771.516006618112442
98771.445117976836627
98771.376639034671825
98771.313802296514041
98771.259046067963936
98771.21271540041198
98771.17276497578132
98771.13597174482129
98771.099411034170771
98771.061754562193528
98771.024193239602027
98770.989247282675933
98770.958800996391801
98770.932842094087391
98770.909599468985107
98770.887100573949283
98770.86441953969188
98770.841444824749487
98770.818158887865138
98770.794108981295722
98770.767931887341547
98770.737838992194156
98770.702803173000575
98807.433058968847035
98808.317786978106597
98809.220592968849814
98810.141764249827247
98811.081534070384805
98812.040065410124953
98813.017437435119064
98814.01374021806987
98815.029124722321285
98816.063821466494119
98817.11822947539622
98818.192512795736548
98819.287204421736533
98820.401751528945169
98821.536301695407019
98822.687101438932586
98771.761376799331629
98771.702207465976244
98771.645872404493275
98771.590524526225636
98771.535251571418485
98771.480606201308547
98771.428571300391923
98771.381355289806379
98771.3404167243134
98771.305429086831282
98771.274087886296911
98771.24298937257845
98771.209243494799011
98771.172188840457238
98771.133836309381877
98771.097406548142317
98771.065156282711541
98771.037238744669594
98771.012140442006057
98770.988081236602738
98770.964125673053786
98770.940429508351372
98770.917620823267498
98770.895542543235933
98770.872838615177898
98770.847362255430198
98770.81700198497856
98770.780375946691493
98810.882442364658345
98811.790891321317758
98812.717181524174521
98813.661682854275568
98814.624627704033628
98815.606133794732159
98816.606250643089879
98817.624982490975526
98818.662334898515837
98819.718424543738365
98820.793234246521024
98821.887150304231909
98822.999677007115679
98824.13095007101947
98825.277764453770942
98771.684224793731119
98771.635592896622256
98771.589049468020676
98771.543562056787778
98771.499997465871274
98771.460220124106854
98771.425714847820927
98771.396700461016735
98771.371564142027637
98771.347087814283441
98771.319608080229955
98771.286891884054057
98771.249416208578623
98771.209984395842184
98771.172019657606143
98771.137690070987446
98771.107100672408706
98771.078860877591069
98771.051596074321424
98771.025158690405078
98771.00019191300089
98770.977139236216317
98770.955458154159714
98770.933396453838213
98770.90841591154458
98770.877877669438021
98770.839895400975365
98813.817087255549268
98814.745984425215283
98815.692584749107482
98816.657249508061795
98817.640152553343796
98818.641311493323883
98819.660676881932886
98820.698166415590094
98821.753794014904997
98822.827445220958907
98823.919302284120931
98825.028870531517896
98826.156238492680131
98827.298526497615967
98771.639916050233296
98771.59996691395645
98771.561694160365732
98771.526492410019273
98771.496110785330529
98771.471318920870544
98771.451108071370982
98771.432698143966263
98771.412100573958014
98771.385710868213209
98771.352052969043143
98771.312689719954506
98771.271217002009507
98771.23106997157447
98771.193940361976274
98771.159584680484841
98771.126884536570287
98771.095227590558352
98771.06498154901783
98771.037073630519444
98771.011846143184812
98770.988221892592264
98770.963831415778259
98770.935877757670823
98770.902007997647161
98770.860737278548186
98816.561519124734332
98817.509089592276723
98818.47395051951753
98819.456397503221524
98820.456586215324933
98821.474552005063742
98822.510235951078357
98823.563600950816181
98824.634482134642894
98825.722975327051245
98826.828595860803034
98827.951360552979168
98829.088658028660575
98771.611970356243546
98771.578851663507521
98771.548014216750744
98771.521813437211677
98771.50132918919553
98771.485007117400528
98771.469180274187238
98771.449427014653338
98771.422462612215895
98771.387524911857327
98771.346767956289113
98771.303905622946331
98771.261966538324486
98771.222099202641402
98771.183998015665566
98771.146779660790344
98771.11036082013743
98771.075532160321018
98771.043436605323222
98771.013955337242805
98770.985552901256597
98770.955857341570663
98770.922529440576909
98770.883877096202923
98770.839137983391993
98819.132436077357852
98820.096590240747901
98821.077398111257935
98822.07512972971017
98823.089994961730554
98824.122113168152282
98825.171568155419664
98826.238289019383956
98827.322314317949349
98828.423169393790886
98829.540826849086443
98830.672909694752889
98771.599969539689482
98771.571045479024178
98771.545542678068159
98771.524982620743685
98771.50812988767575
98771.491167925472837
98771.469636132664164
98771.440596208529314
98771.403853266732767
98771.361654700798681
98771.317357931329752
98771.273617188548087
98771.231151130399667
98771.189429353849846
98771.147824451123597
98771.10653902865306
98771.066558988008182
98771.028748145705322
98770.993310555364587
98770.95887130543997
98770.923031330661615
98770.883743985643378
98770.840141703884001
98770.792449279499124
98771.582483573831269
98771.555015182733769
98771.530158821464283
98771.507958906426211
98771.485907677808427
98771.460411430161912
98771.428900486134808
98771.390792481222888
98771.347815457265824
98771.302714147168444
98771.257537991827121
98771.212668734995532
98771.167466482118471
98771.121735848370008
98771.075933457599604
98771.031021929447888
98770.987898902749293
98770.946551357366843
98770.905651401204523
98770.863231813913444
98770.817968771953019
98770.769887546251994
98770.720155740636983
98771.523687759559834
98771.493594708401361
98771.463744975961163
98771.431971163430717
98771.396545420459006
98771.357060255191755
98771.314528141330811
98771.270315097630373
98771.225186424111598
98771.178870692034252
98771.130821400816785
98771.081180670138565
98771.030754818435526
98770.980768935056403
98770.932061123021413
98770.884618823678466
98770.837496292122523
98770.789342864110949
98770.739518985807081
98770.688613290069043
98770.638209027136327
98771.34149021266785
98771.301019949823967
98771.259290471774875
98771.216304941597627
98771.171470677378238
98771.123850079457043
98771.072982246361789
98771.019394328046474
98770.964533614373067
98770.909979141360964
98770.856571925425669
98770.804283013407257
98770.752439211049932
98770.700279466313077
98770.647696805768646
98770.59566028653353
98770.545959751078044
98771.107852149769315
98771.059700620506192
98771.006603735135286
98770.94974900347006
98770.891143832748639
98770.832571688049939
98770.774955583154224
98770.718438950148993
98770.662694157654187
98770.607560702221235
98770.553340151323937
98770.501296240312513
98770.453128251596354
98770.976802461314946
98770.921637557767099
98770.861919442861108
98770.800326111333561
98770.739136399832205
98770.679586322657997
98770.621619902958628
98770.564778449275764
98770.508952175950981
98770.454813119620667
98770.40380994604493
98770.357341221621027
98780.032827181494213
98779.890413575689308
98779.748734978056746
98779.605282997712493
98779.459646100236569
98779.311885310002253
98779.161649021654739
98779.00792501392425
98778.849920194523293
98778.687459002176183
98778.521544510484091
98778.3541161534813
98778.187166099756723
98778.021603915010928
98777.858365900305216
98777.69915972086892
98777.545721182556008
98777.398277013504412
98777.254753789908136
98777.111061261501163
98780.196451981464634
98780.050460471567931
98779.910566294449382
98779.771960328376736
98779.631007309842971
98779.485908850867418
98779.335549203140545
98779.179546961080632
98779.018295143934665
98778.852597315868479
98778.683589141321136
98778.512502480487456
98778.340596325651859
98778.168835105912876
98777.998443796896026
98777.831253435448161
98777.669839919617516
98777.516218920995016
98777.37008808668179
98777.228615059779258
98777.087595679462538
98776.942959199805046
98780.536328955597128
98780.367678349706694
98780.21154635392304
98780.06643758006976
98779.928384816506878
98779.792462003446417
98779.654008255965891
98779.509505239286227
98779.356869130439009
98779.195709611070924
98779.02749744488392
98778.854956348106498
98778.680395463190507
98778.505105868141982
98778.329574036702979
98778.153984672593651
98777.979423222161131
98777.808672646046034
98777.645415900857188
98777.492046302984818
98777.347550985985436
98777.208137864028686
98777.069326733675553
98776.927511838075588
98776.78046125943365
98776.62714164982026
98780.726359180393047
98780.547865706321318
98780.379074079028214
98780.222797613081639
98780.078346807640628
98779.942224762955448
98779.808990277990233
98779.672847938156337
98779.529098009312293
98779.374516244279221
98779.208592819224577
98779.03416275397467
98778.855483953448129
98778.67593408828543
98778.497003950178623
98778.318447533878498
98778.139587429031963
98777.961217726217001
98777.786948433844373
98777.621630531182745
98777.467963258881355
98777.324540664572851
98777.186927029033541
98777.050292450323468
98776.911217123371898
98776.767833255871665
98776.618807333841687
98776.462159372313181
98780.914643564945436
98780.733430310880067
98780.556722987486864
98780.389055730207474
98780.233321355524822
98780.08946121254121
98779.954410917009227
98779.822917322380817
98779.688589886412956
98779.545430366037181
98779.389429324102821
98779.219836352174752
98779.040243143710541
98778.856407153507462
98778.67269437504001
98778.490804363915231
98778.309806118602864
98778.128090164609603
98777.94651093747234
98777.769661281083245
98777.60332045283576
98777.450375933025498
98777.308569587781676
98777.17255476815626
98777.037171856456553
98776.899623056538985
98776.758804822733509
98776.61314952961402
98776.459395823534578
98776.29429671636899
98781.099123739360948
98780.919415208350983
98780.739669087459333
98780.56336391226796
98780.395480605293415
98780.239547838049475
98780.095983956198324
98779.962322752995533
98779.833256206387887
98779.701340272149537
98779.559264831565088
98779.401960332004819
98779.228925176648772
98779.044631816708716
98778.856112917594146
98778.668994129446219
98778.484904880184331
98778.302154765915475
98778.118457803822821
98777.934206890291534
98777.754498257592786
98777.58627471861837
98777.432850877434248
98777.291626953126979
98777.156716411162051
98777.02286460819596
98776.887482036399888
98776.749646766314982
98776.607595116322045
98776.457038792679668
98776.293523913482204
98776.116720193938818
98781.104368957167026
98780.926540984757594
98780.748043266008608
98780.572396474948619
98780.404811513522873
98780.249102160320035
98780.106110635999357
98779.973737919586711
98779.846359493240016
98779.715901097893948
98779.574318700149888
98779.415960376340081
98779.240064753379556
98779.052000488765771
98778.860046074682032
98778.670370819163509
98778.484693498437991
98778.300668575218879
98778.115148939439678
98777.928584133434924
98777.746975539441337
98777.577993533021072
98777.425047587355948
98777.28498342356761
98777.15122951840749
98777.018321033421671
98776.884008916036692
98776.747856040601619
98776.607970898738131
98776.459199903314584
98776.29626302116958
98776.118736634918605
98775.931292268869583
98794.374565006437479
98794.159956768155098
98793.916674993626657
98793.64005572439055
98793.342331918276614
98793.038684317361913
98781.107356575987069
98780.930682645601337
98780.752851080920664
98780.577296863993979
98780.409537969055236
98780.253648821031675
98780.110866685849032
98779.979329677007627
98779.85323024338868
98779.723972545441939
98779.582925659997272
98779.42378332237422
98779.245747174558346
98779.054953170270892
98778.8604369333043
98778.668905009588343
98778.482067419230589
98778.297241090796888
98778.110683843289735
98777.922611052621505
98777.739541977294721
98777.569735200231662
98777.416788755755988
98777.277224333680351
98777.14413591491757
98777.011975545567111
98776.878653008665424
98776.743933247809764
98776.60586206507287
98776.458673692133743
98776.296333364516613
98776.118294502026401
98775.929652564896969
98775.737754908463103
98794.578908656490967
98794.374832076849998
98794.161374584757141
98793.918513958036783
98793.641495331030455
98793.34329139435431
98793.039532314389362
98781.114525326935109
98780.938568625337211
98780.761094539848273
98780.585606060223654
98780.417846152849961
98780.261960862917476
98780.119397446222138
98779.988445077309734
98779.863084393335157
98779.734481498308014
98779.593736015696777
98779.434120055913809
98779.254945589054842
98779.062720202229684
98778.866909945674706
98778.674469200108433
98778.48719557854929
98778.302081885150983
98778.114945721375989
98777.925998980266741
98777.742222325847251
98777.572108432112145
98777.419306542302365
98777.280139561262331
98777.147492410527775
98777.015730176077341
98776.882793017779477
98776.748728675098391
98776.611521690283553
98776.465029475613846
98776.302850869004033
98776.124495971744182
98775.935235332552111
98775.742727208780707
98775.553247953925165
98778.363971950064297
98779.056194721371867
98779.784763611634844
98780.550342475209618
98781.353595725842752
98782.194935766092385
98783.074722963283421
98783.993171914480627
98784.949393528295332
98785.942404948174953
98786.962637459728285
98773.73684514213528
98773.591692562491517
98773.454190546835889
98773.327713383550872
98773.211578933638521
98773.101055803970667
98772.989926988841034
98772.873925843625329
98772.753109575656708
98772.63161742434022
98772.514833440305665
98772.405655796042993
98772.303245285715093
98772.203881295747124
98772.102922683698125
98771.997339928202564
98771.886731217135093
98771.772854462600662
98771.658558241091669
98771.546835282351822
98771.439444820294739
98771.336595066502923
98771.237535047723213
98771.140495199826546
98771.043529912218219
98770.945084106933791
98770.844382894036244
98770.741368641436566
98770.636018300428987
98770.528093093613279
98770.417229116545059
98770.303381237972644
98770.187265453874716
98770.07040352486365
98769.954704522431712
98769.841687792097218
98776.273252509403392
98776.71781283209566
98777.184612921992084
98777.67602137918584
98778.19419818680035
98778.741003876231844
98779.318016662495211
98779.926542454646551
98780.567622995862621
98781.242042368554394
98781.950426751835039
98782.693326012318721
98783.471349820436444
98784.2850503809168
98785.13498213076673
98786.021509317768505
98786.94483605879941
98787.90508341511304
98788.901123703020858
98789.931952247192385
98790.988426684867591
98773.715043655334739
98773.573477441503201
98773.440936557628447
98773.319691548604169
98773.208476934916689
98773.10265918134246
98772.996831053838832
98772.887914689505124
98772.776746360759716
98772.667221358977258
98772.563342008768814
98772.466475090186577
98772.374503759856452
98772.283041165253962
98772.187404282783973
98772.084965131987701
98771.976395829537068
98771.86480101707275
98771.754457638802705
98771.649515389261069
98771.552135610225378
98771.461990872921888
98771.376753332398948
98771.293330378437531
98771.208659898591577
98771.120665534224827
98771.028878181183245
98770.933533466901281
98770.834377058199607
98770.730843398196157
98770.622296625690069
98770.508525636090781
98770.390465635136934
98770.270431167969946
98770.151654611778213
98770.037005145917647
98779.360091034948709
98779.856567507318687
98780.375421380987973
98780.918809223221615
98781.488691985592595
98782.086764819221571
98782.714418020885205
98783.372778371078311
98784.062753665377386
98784.78505629186111
98785.540221266273875
98786.328638636885444
98787.150655231787823
98788.006640094055911
98788.897077950954554
98789.822382673286484
98790.782766196629382
98791.778418383619282
98792.808110375262913
98793.870901546208188
98794.958160660389694
98773.551750736412941
98773.424379632429918
98773.307722967816517
98773.200480305182282
98773.098962648306042
98772.999107052688487
98772.899021387376706
98772.799611831549555
98772.703556576409028
98772.613036361071863
98772.527769029766205
98772.444787367159734
98772.359721026790794
98772.268598879280034
98772.169538794041728
98772.0639166051551
98771.955757176896441
98771.850422733463347
98771.752770846011117
98771.665155975191738
98771.586531040738919
98771.513543388835387
98771.442134715791326
98771.368716608951217
98771.291288057618658
98771.209386404807447
98771.122643707232783
98771.030343890713993
98770.931604188517667
98770.825701773545006
98770.712619371668552
98770.593788172613131
98770.472519152710447
98770.353115134275868
98783.023078368787537
98783.591286330352887
98784.183671267252066
98784.801992294276715
98785.447802202150342
98786.122392790028243
98786.826753874018323
98787.561602640722413
98788.327462716770242
98789.124717535712989
98789.953613309029606
98790.814335241884692
98791.707037514774129
98792.632039556730888
98793.589791452570353
98794.580653780620196
98795.605136223952286
98796.662177341524512
98797.750994044574327
98798.863518545767874
98773.513056121737463
98773.389569475009921
98773.276406155826407
98773.172038161341334
98773.074674296789453
98772.982067568504135
98772.893171046933276
98772.808002967693028
98772.727044506842503
98772.650015158564202
98772.575113360580872
98772.499303669144865
98772.419326561925118
98772.332626263596467
98772.238358828384662
98772.138145236458513
98772.036013505479787
98771.937350984211662
98771.847132129041711
98771.767870348150609
98771.698540237252018
98771.635617501597153
98771.574819268673309
98771.512471247624489
98771.446049179518013
98771.374137498380151
98771.295786902759573
98771.209965922869742
98771.115660219395068
98771.012499805161497
98770.901355093708844
98770.784657997297472
98770.666289023807622
98770.550773433904396
98786.20382157653512
98786.818791799349128
98787.457380005405867
98788.121060190227581
98788.811180508972029
98789.528897210679133
98790.275139623845462
98791.050562782751513
98791.855540672142524
98792.690236724782153
98793.554688902266207
98794.448958917651908
98795.373175559871015
98796.327617411574465
98797.31269959511701
98798.328744014725089
98799.376404695256497
98800.454833615964162
98801.563615037477575
98802.69552918075351
98773.350846640969394
98773.239984723826637
98773.138584107873612
98773.0465568126383
98772.963358367545879
98772.887951661818079
98772.818665799146402
98772.7531142723019
98772.688519292583806
98772.621795257058693
98772.550251746419235
98772.472358258775785
98772.387963215995114
98772.298170784313697
98772.205016684994916
98772.111711186749744
98772.022316689763102
98771.940696711390046
98771.868928691299516
98771.806481806765078
98771.750805769537692
98771.698371518519707
98771.645500794998952
98771.588789731191355
98771.525629199997638
98771.4542034167971
98771.37348229685449
98771.283355943727656
98771.184744600584963
98771.079310677218018
98770.969573992420919
98770.858970233370201
98790.046908690754208
98790.728753017232521
98791.43491638249543
98792.166408826422412
98792.924082242752775
98793.708580706297653
98794.520324559343862
98795.359495787284686
98796.226139868886094
98797.120285313212662
98798.042037847961183
98798.991608051233925
98799.969367359473836