/*--------------------------------*- C++ -*----------------------------------*\
  =========                 |
  \\      /  F ield         | OpenFOAM: The Open Source CFD Toolbox
   \\    /   O peration     | Website:  https://openfoam.org
    \\  /    A nd           | Version:  12
     \\/     M anipulation  |
\*---------------------------------------------------------------------------*/
FoamFile
{
    format      ascii;
    class       volScalarField;
    location    "0.0068";
    object      rho_0;
}
// * * * * * * * * * * * * * * * * * * * * * * * * * * * * * * * * * * * * * //

dimensions      [1 -3 0 0 0 0 0];

internalField   nonuniform List<scalar> 
106891
(
1.1567808886499082455
1.1567557039133338215
1.1567157104357548292
1.156665046173556366
1.1566127958427718792
1.1565703562471143506
1.1565434794344437996
1.1565425069852044437
1.1565656839766322861
1.1566116535053214687
1.1566713204879084387
1.153800137050482677
1.1541785046594330577
1.1545434871775301922
1.1548359931680711732
1.1550028303571731048
1.1550424159294985227
1.1550144019244168447
1.1549990923642510232
1.15503568844753568
1.1550940958775008927
1.1551000935336066533
1.1550029643612695907
1.1548282595185290766
1.1546615493679392994
1.1546018607215506879
1.154699381942287495
1.1549119209306464295
1.1551364962717887153
1.155278890730345287
1.1553123548827803901
1.1552883385587182641
1.1552901735310940889
1.155378362636251488
1.1555513929674268159
1.1557493658005417725
1.1558915436117043196
1.1559214775346258186
1.1558280652335835015
1.1556406954036377854
1.1554139842639978841
1.1552073744418898116
1.1550659034293220273
1.155007986394974262
1.1550260981133164684
1.1550879146840167255
1.1551442890687384502
1.1551510514587488565
1.1550907878521046168
1.1565806452988056652
1.1566043258427181062
1.1566282483790442104
1.1566528322604499035
1.1566781914622423777
1.156703092885211559
1.1567248779420868932
1.1567395601233472213
1.1567437341161188602
1.156735659669845262
1.1567136915459821367
1.1566804127559027204
1.1566390082931363725
1.1565961634185331075
1.1565622985532009181
1.1565422956402635624
1.1565456955823631979
1.1565734974438208749
1.1566230683446416805
1.1566896313811563246
1.1541911772403086189
1.1545458380311368618
1.1548396313338102903
1.1550256643798095801
1.1551032031043519943
1.1551245152915818881
1.1551586570411584987
1.1552363036124213558
1.1553219268279613097
1.1553373890698162008
1.1552313851223887653
1.1550264114495201184
1.1548197096534267292
1.1547132680828708917
1.1547574505732662864
1.1549107231562043552
1.1550726644785738184
1.1551589180557806369
1.1551564639022704473
1.1551259565329683454
1.1551574585188268962
1.1553115905929289831
1.1555738117423504097
1.1558676640863347895
1.1560960695692934497
1.1561815041261298553
1.1560961117159997968
1.15586852819905328
1.1555633398904421316
1.1552563572023362148
1.1550161285538520506
1.1548868052079623858
1.1548767460589328682
1.1549558551978109655
1.1550650172562393347
1.1551401315775546852
1.156522958044088778
1.156539594599117704
1.156557152063369065
1.1565752262914761328
1.1565938019308656948
1.1566126448102715951
1.1566305420944118509
1.1566445566690928271
1.1566510900802433603
1.1566481272756083953
1.1566339336856701348
1.1566103683291535376
1.1565801257782810652
1.156548097177901413
1.1565236529664975063
1.1565109447278594246
1.1565188501013947686
1.1565511045470333595
1.1566034501733264417
1.1566747030931163742
1.1544032340643428647
1.154701360259634102
1.1549443101678436019
1.1551060108444872743
1.1551923835364910076
1.1552432544156747696
1.1553047727523055865
1.1553928322031181697
1.1554706606073492647
1.155474610703402405
1.1553647979590928596
1.1551685557654505221
1.1549755801907930497
1.1548747891177062463
1.1548953816969957931
1.1549947734562178159
1.1550853369253373248
1.1551044673902584048
1.1550568412587653988
1.1550092885315812463
1.1550469252152084643
1.1552169127398255188
1.1554993043000716391
1.1558169472021209145
1.156070382037347466
1.1561804674442637264
1.1561182412287076549
1.1559061425389294264
1.1556002939864813417
1.1552744116472275504
1.1550037773427155319
1.1548449496819941373
1.1548160542743810542
1.1548908713012018268
1.1550125533899220365
1.1551167280041259033
1.1564426756487546921
1.1564412335728586623
1.156442999939896854
1.1564487725026770804
1.1564592065803438459
1.1564741871717523214
1.1564917437882664686
1.1565076314054298923
1.1565178630035934937
1.1565184573683273683
1.1565087874068222806
1.1564905597126322601
1.1564678773103638232
1.1564508835598745762
1.1564445286759998943
1.156457075607993934
1.1564943553959468048
1.1565500930303680427
1.1566247974341139493
1.1547116133507902003
1.1549323006662521873
1.1550988079503041739
1.1552310204951388162
1.1553506557193937709
1.1554705407483023549
1.1555810665335806142
1.1556456608283784959
1.1556232664371759444
1.1554980692661560582
1.1553071177961238281
1.1551229733495298468
1.155010767075127287
1.1549874405505675679
1.1550127594222674432
1.1550267664202185092
1.1549956934247485041
1.1549391330086204999
1.154916878659633328
1.1549885155551293803
1.1551745703770945894
1.1554433195345368279
1.1557225361923126883
1.1559333872327417492
1.1560215626962810909
1.1559685264009968986
1.1557917175217278238
1.1555358103635711142
1.155259849855024612
1.1550235904044421353
1.1548722526190917659
1.1548234295673902583
1.1548623606735959335
1.1549507424174052517
1.1563402243097584687
1.1563085200944902553
1.1562795717712035515
1.1562585885659264484
1.1562492059683371348
1.1562532261300484393
1.1562703317283040683
1.1562975057319440086
1.1563283854624204494
1.1563561834953377527
1.1563745866730301692
1.1563809926093613356
1.1563762251940192805
1.1563630413588312784
1.1563519367081842582
1.156349678590553598
1.1563651029512138635
1.1564059628932008561
1.1564635231195095066
1.1565386585566339583
1.154854137287310234
1.1549974320594729171
1.1551300963738435623
1.1552801882434753367
1.1554437443942982
1.1555959761135456976
1.1557004938134654015
1.1557269796693381281
1.155662522997771946
1.1555219168614583314
1.1553512913131644968
1.1552030450346368884
1.155110229297786173
1.1550697112021042212
1.1550521956496697662
1.1550219307353650766
1.1549713773298957431
1.154929108709247032
1.1549374176315727603
1.1550205170193679205
1.15516953586452642
1.1553469555963225002
1.1555020863871932058
1.1555952179560828874
1.1556112859659093406
1.1555551484852006894
1.1554464219606574993
1.1553117203778919819
1.1551725834584078978
1.1550458333009223644
1.1549463005875220123
1.1548830768959721382
1.1548598984817166624
1.1561263646520385517
1.1560665165823915679
1.1560212736813706424
1.155998727157354411
1.1560020423251267108
1.1560292479790912346
1.1560745589810950129
1.1561283013211069992
1.1561800480299522231
1.1562202528089065012
1.1562442574279370167
1.1562536649197869831
1.1562517308630086976
1.156248822270897314
1.1562513841831303374
1.1562672644400111555
1.1563061459234520445
1.1563585229504593777
1.1564255479875902299
1.1549416136276056122
1.1550950473806433916
1.1553083409054332176
1.1555486753716348591
1.1557507228620302886
1.1558565417870614311
1.1558419000701090074
1.1557262483265131614
1.1555571429256654703
1.1553876513069396559
1.155255852207700995
1.155170506187968682
1.1551110349221838103
1.1550542883155063834
1.1549899154518199484
1.1549286786756074452
1.1548979777803454194
1.1549211413973552443
1.1549962875034223142
1.1550954993153135231
1.1551798331736609082
1.1552207202259270336
1.1552115949333490175
1.1551698116420976437
1.1551282973301355561
1.155112375770553701
1.1551209597960188091
1.1551306044349309854
1.1551105248213775489
1.1550389214460374809
1.1549206389882316071
1.154790013400170734
1.155899057446494238
1.1558149831186912415
1.1557503474868329185
1.1557167406056791936
1.1557200439895749522
1.1557585392896752019
1.1558243571851838372
1.1559044320539280104
1.1559847693202482954
1.1560523332237639949
1.1560986935580161994
1.1561240878112994945
1.1561321518487677196
1.156135009282063697
1.1561406092585770899
1.156155176148936814
1.1561880730719651389
1.1562292977202039967
1.1562806963915313041
1.1548919139630335895
1.1551598019747579826
1.1554519811277381702
1.1556932763095213446
1.1558188741282249268
1.1558088031873539059
1.1556935820576408336
1.1555303055315713223
1.1553707014432894606
1.1552476372638496027
1.1551634050547696653
1.1550980889317592482
1.1550336738462956276
1.1549693692345761598
1.1549144897737402271
1.1548852711710480001
1.1548911853271461858
1.1549213147288410752
1.1549472445697790413
1.1549369251110761514
1.1548769311706477136
1.1547837552294513142
1.1547000639031563818
1.1546751228773910469
1.1547336962429479712
1.1548595714138165658
1.1549962464572478549
1.1550677688266957066
1.1550231423497254735
1.1548660582040801703
1.1555745586422871973
1.155505289510683431
1.1554704485286257931
1.155475982063208118
1.155520407487149237
1.155596094322000722
1.155689823438191155
1.1557873465423285086
1.155875282407905047
1.1559431103849864275
1.1559880652161200754
1.1560099279841220543
1.1560183173586866534
1.1560217320642169891
1.1560267290967494169
1.1560441961153193891
1.1560656403993461172
1.1560937622139111358
1.1549230806227677171
1.1552260721058880133
1.1554889711103317751
1.155655680838459709
1.1556982801248882886
1.1556296287127740818
1.1554917368138717393
1.1553289070742491784
1.1551787975038669831
1.1550577080161608112
1.1549677716735697874
1.1549018712119090146
1.1548565927411569287
1.1548265192651960831
1.1548071709115141914
1.1547975517249771116
1.1547921084121051116
1.1547732853637766581
1.1547210197940021015
1.1546281662685187186
1.1545112050801864534
1.154412747101555281
1.1543851380542500262
1.1544559056478824743
1.1546046685239443885
1.1547649766237579882
1.1548537703231886997
1.1548156446393105234
1.1553843122172415825
1.1553331190353701707
1.155312229263540269
1.1553259025058904008
1.1553727364945276523
1.155446819797361524
1.1555375353870149802
1.155633426841204292
1.1557236582412486747
1.1557985295656134639
1.1558544049173209434
1.1558875282266281026
1.1559023744861933736
1.1559042540109871755
1.1558979257921522255
1.1558957117825396921
1.1558934442562429634
1.1558962553086584713
1.1547933563588288486
1.1550562068497682855
1.1552732543033623624
1.1554045645326456171
1.1554304320840134146
1.1553632059050487069
1.1552336385454191614
1.155077453065888049
1.1549314931856560218
1.154827398498385671
1.1547724672019059611
1.1547467890402771662
1.1547251742622750559
1.1546853824253842102
1.1546190982458459651
1.1545409015629022331
1.1544689516527231188
1.1544110891916889994
1.1543603766422978474
1.1543092922253286314
1.1542656131610562475
1.1542552498942011407
1.1543053358129538033
1.1544132607119592659
1.1545373853505664918
1.1546139570665083784
1.1545968636714987188
1.1552274772040711515
1.1552344551873974243
1.1552609167547953639
1.1553050726674209958
1.1553644060221781587
1.1554339512693569958
1.1555082009362966922
1.1555813152871043936
1.155646210092372117
1.1556997325592748282
1.1557363364575692355
1.1557564173932373119
1.155761726530046607
1.1557534205139632366
1.1557422212968002651
1.1557271951042298319
1.1557157094011958343
1.1542105904959902851
1.1544051566336031023
1.1546095817935067007
1.1548000200177512831
1.1549437848326651324
1.1550082323633945602
1.15497944250604756
1.1548728997684141184
1.1547289491724321842
1.1546010881875108378
1.1545330915206550859
1.154536260677859083
1.154584768369272485
1.1546251502236255515
1.1546109338729155791
1.1545343947098896109
1.1544238369958355062
1.1543256193799482645
1.1542672508285201083
1.1542396124938316682
1.1542187972640438609
1.1541943184924114973
1.1541712805230266436
1.1541680927999702355
1.1542018810857441746
1.1542682100950039104
1.1543426273684422867
1.1552097415647277767
1.1552422800188919538
1.155274454222932512
1.1553064715587781919
1.1553391875715957049
1.1553742364632837436
1.1554124137979688847
1.1554509553223186735
1.1554883349631088763
1.1555186777771957463
1.1555396314987300688
1.155550353110838202
1.1555490861484805087
1.1555434714413266306
1.1555336739616202113
1.1555264284067343628
1.1539235402808949438
1.1540219020653312842
1.1541421612402273933
1.1542762392812129235
1.1543982570036341873
1.1544723324398522557
1.1544787259427418125
1.1544262135719474127
1.1543501949474088697
1.1542960853434347523
1.1543007036827068745
1.1543698294362585433
1.1544687294646651665
1.1545394545337919201
1.1545394036991798448
1.1544691641391469084
1.1543654896150796763
1.1542741117272263818
1.1542191372626675605
1.1541941225066298937
1.1541755885672639881
1.1541448801645117772
1.1541053620120325096
1.1540791180203306965
1.1540905845268574215
1.154151312097928983
1.1542543911383589261
1.1543756362507631152
1.1552568593761358695
1.1552746930797712643
1.1552831376294350196
1.1552856924530934268
1.1552872293741169862
1.1552921288487274509
1.1553009210867390966
1.1553143830768550782
1.1553282262481694431
1.1553398156338696712
1.1553477873952890942
1.155349254843277329
1.1553489601964972433
1.1553470290702976264
1.1553484471639374753
1.1538173961695794567
1.15389412157502802
1.1539864111464359642
1.1540607117488048683
1.1540903645108615549
1.1540700034730966284
1.1540203332292249261
1.153978170043282514
1.1539837948808906454
1.1540604283160138532
1.1541977771038489653
1.1543491591315637734
1.1544571758550814522
1.1544880882650292442
1.1544487724963010677
1.154378698139358006
1.1543185632330910106
1.1542830131086012635
1.1542574214219460949
1.1542193843561079358
1.1541623717433318053
1.1541026399854708018
1.1540669514665322648
1.1540770334234597971
1.1541425227649562135
1.1542585300280210348
1.1544044786110769785
1.1552946046821435111
1.1552914253057737781
1.155279050054857537
1.1552625359801718119
1.1552469374542182479
1.1552342165794446949
1.1552268678917478884
1.1552228554868819721
1.1552207113449399767
1.1552196537158949674
1.1552169393625502103
1.1552155730814617218
1.1552158605010030001
1.1552212596526130195
1.1536269784408725858
1.1536955544745415292
1.1537410494743567391
1.1537411685270007045
1.1537061996491173588
1.1536718221637818349
1.1536795863039963628
1.1537644580982908682
1.1539275272537816708
1.1541358426708108187
1.1543296667368336816
1.1544547360103361022
1.1544909861535705975
1.1544577737043855148
1.1543990348077493024
1.1543502181703899634
1.1543157330445563691
1.1542796195329774189
1.1542243915957663969
1.1541584440648935406
1.1541030652500077203
1.1540879880941998792
1.1541270775776131252
1.1542164794378797499
1.1543420754469688738
1.154484033276651278
1.1553303112203918701
1.1553166660681932765
1.1552954400352133391
1.1552707457034077088
1.1552448326695639036
1.1552211834198959917
1.1552000865892477766
1.1551821992090753888
1.1551683891698807383
1.1551570581527597081
1.1551498558176855891
1.1551469369638882601
1.1551501520629505748
1.1535094884025307582
1.1535498166087312377
1.1535379948065043187
1.1534893478614818285
1.1534552993732321013
1.1534845141087781695
1.1536063202456594556
1.1538124983439232984
1.1540583122458405452
1.1542768617686853805
1.1544184768446903444
1.1544710162923206287
1.1544631392048150254
1.1544358948946920052
1.1544168938794241441
1.1544006223586713578
1.1543655446185112634
1.154305131570650067
1.1542317758044442488
1.1541772079666028361
1.1541653622465348761
1.1542071745850810416
1.1542931413496746451
1.1544019721995317784
1.1545100833396964024
1.1553909595696039148
1.155376552468606155
1.1553536189907924747
1.1553238360255422279
1.155291146283734971
1.1552577581289766862
1.1552263386658430111
1.1551996084088755889
1.1551776550109316144
1.1551612968605016185
1.1551505320672619259
1.1551456819193173242
1.1533979197190358246
1.153424035265368186
1.1534077099946529188
1.1533994053297742521
1.1534505121358737956
1.1535892795140463285
1.1538061020907361964
1.1540498747985572514
1.1542596840786480961
1.1543922250663964935
1.1544443821074197309
1.1544465640679664187
1.1544387287325490465
1.1544402884418916155
1.1544416816913012358
1.1544214794609219954
1.1543784210378706945
1.1543247395304279124
1.1542876043492533711
1.1542922222996134796
1.154342659762608303
1.1544195656369085068
1.154495763168490674
1.1545482229176036171
1.1533993686686001556
1.1534369448745560582
1.1534577436133521822
1.1535108359643588827
1.1536296290022647337
1.1538115107993582864
1.1540189342741502543
1.154200383050542067
1.1543197864231078409
1.1543782139546505672
1.1544032035107569811
1.1544266980294122238
1.1544602779774610912
1.1544903004039996919
1.1545005603131683891
1.1544834052169734573
1.1544528065940473649
1.1544359846524294699
1.1544509526276223177
1.1544926364187308998
1.1545388363910318308
1.1545629940687416326
1.1545462868555547153
1.1535842626880583595
1.1536553307900827559
1.1537529657863936361
1.1538823919466281165
1.1540233524913836582
1.1541438988578318625
1.1542256209167167658
1.1542750567167925357
1.154314272749596082
1.1543669673312224599
1.1544317431408925856
1.1544933625916784514
1.1545349338217085755
1.154549664983543833
1.1545523415719773919
1.1545622655183216398
1.1545870999235474663
1.1546171122909703044
1.1546321151689766804
1.1546088431785221928
1.1545343379315682331
1.153986690656643388
1.1540475230730953271
1.1541037358086638775
1.1541653697820817293
1.1542476889039390286
1.1543531960775783585
1.1544657439994392423
1.154560426405988105
1.1546208263153070472
1.1546479723848235288
1.1546568001872559162
1.1546615974368481528
1.1546665831880960074
1.1546634648740805584
1.1546381348320702287
1.1545733563677555988
1.154463050628146803
1.154140150688619082
1.1542839737192707172
1.1544319572713541699
1.1545525934347982133
1.1546311009153493732
1.154673651661178857
1.1546947278591785935
1.1547072424671762647
1.1547097372221939438
1.1546922825811813951
1.1546409570326636729
1.1545471736364034676
1.1544160520456128172
1.1541961769641910784
1.1543672245814058375
1.1545047743027270215
1.1545951795168436504
1.1546491594764556332
1.1546856313958842044
1.154715299489582625
1.1547311228849854725
1.1547161473597602477
1.1546553047356424848
1.1545471932944504356
1.1544072927398534301
1.1472672889076036551
1.1476528270221428851
1.1483031579833560265
1.1491621725729064263
1.1501309986799146401
1.1510774490002511072
1.1518573763610453486
1.1523508343996773373
1.1524818730441837022
1.1522533048097711728
1.1517371372966382914
1.1510401717594276327
1.1502749371890681473
1.1495146566043192848
1.1487889961482842249
1.1481082087550669169
1.1475115989314472742
1.1470931782085114214
1.1469766336795990114
1.1472552234864639153
1.1472587950426540448
1.1472441102789805445
1.1474505815201663239
1.1479262934325464851
1.1486698857196295798
1.1496306632722577135
1.1506969444768204713
1.1516973815697890693
1.1524484416077895865
1.1528198054871279243
1.1527732114659350326
1.1523653768062336322
1.1517198924775753355
1.1509596133861712541
1.1501678163481749984
1.149379511158837408
1.1486047764214515343
1.1478772741455833817
1.1472764044814958151
1.1469101848230307539
1.1468754270419501129
1.1472244466723169332
1.1476607778882774724
1.1474838363237787053
1.1472871502831025747
1.1471741028632371773
1.1472473481149259023
1.1475817371788938903
1.1482218876498673232
1.1491502780333293643
1.150262438859493308
1.1513854760558754897
1.1523090610248836185
1.1528766798846672437
1.1530281620636695372
1.1527942666639743319
1.1522754888721424837
1.1515800824811774916
1.1507882480373730072
1.1499467980801161282
1.1490895935073559553
1.1482703199343362588
1.1475682426815789761
1.1470707115447840163
1.1468514779326353104
1.1469665754867224283
1.1474489724910241772
1.1482849938154102709
1.1474516948693436191
1.1474215137866132785
1.1473167548857325926
1.1472039267829727827
1.1471806718881158993
1.1473432984063807183
1.14776233359219626
1.1484591277153393118
1.1493876968231282465
1.1504301344855107914
1.1513949310866087306
1.1521091096053233116
1.1524652014733109961
1.1524523492856755258
1.1521478968289815548
1.1516508983615292294
1.1510363393938785048
1.1503405160748281233
1.1495820166931209894
1.1488024137048418183
1.1480831071712112035
1.1475261430311411992
1.1472121081137516274
1.1471785577903648168
1.1474324023569142383
1.1479655630663891941
1.1487398664806753867
1.1496558744033611443
1.1466064299559108886
1.1468149375849236993
1.1470079556122116937
1.1472057304528386901
1.1474545366515886968
1.1477920884752113029
1.1482292706257688497
1.1487482180467500914
1.1493114906084560545
1.1498548149651623973
1.1502970854284630953
1.150554360406654375
1.150574941308181165
1.1503847419511581407
1.1500635090122455217
1.1497151931257325597
1.1494090496089488518
1.1491554849906107094
1.1489277737689618242
1.1487102391574999238
1.1485424445443395136
1.1484994051171120155
1.1486362506975991149
1.1489261486322164263
1.1492630466328275229
1.1495262747700865091
1.1496515240736573382
1.1496451065413295645
1.1495437308344342853
1.1493693709423971061
1.1468711666303097463
1.1470530569733441428
1.1472085329289360978
1.1473147180258345124
1.1473876800712317081
1.1474722909973946727
1.1476199960293766988
1.1478663001666671306
1.1482259200346742745
1.1486941795952667622
1.1492240677380229918
1.1497289402879515841
1.150114294220728528
1.1503269470363879368
1.1503721250977958501
1.1503440811480158956
1.1503471123522490682
1.1504290705467949962
1.1505512042357410873
1.1506181209635608642
1.1505525516825418908
1.1503625131002863657
1.1501290828449457493
1.1499435778628459559
1.1498361608931313427
1.1497716491107368153
1.1497097707425427693
1.1496609106584747551
1.1496785341163415772
1.1497955869156299968
1.1499771881736096102
1.1501360496949255552
1.1479786681280392813
1.1483152633358804096
1.1486400427563607796
1.1488980465054368096
1.1490735151496183075
1.1491924099104111612
1.1493064263213721432
1.1494788945504668121
1.1497713525529056344
1.1502169187639457171
1.1507970832209852841
1.1514237228471111418
1.1519756352852401626
1.1523468149308955244
1.1525271425050009899
1.152587722341235299
1.1526348729849569263
1.1527250550820471453
1.1528218207517788585
1.1528282517665711104
1.1526754151133740134
1.1523900648282132675
1.1520796964033863663
1.1518497403725664885
1.1517291817384014418
1.1516700156382937426
1.151621679314874136
1.1515972096945721326
1.1516587054790559108
1.1518428755272396291
1.152099262211721209
1.1523198775353598045
1.1524116186065096468
1.1474920392039955619
1.1477627145054918323
1.1482614291114889848
1.1486607667450532411
1.1487716020173794895
1.1486787360230752419
1.1496871026103210323
1.1500299743359039262
1.1503490045402475772
1.1505839978353795683
1.1507176478317191481
1.1507774224157809595
1.1508232211498177211
1.1509301368257476295
1.1511689568715273158
1.1515797414250557029
1.1521423869343805357
1.1527612864217438027
1.1532920547285174795
1.1536254418476323824
1.1537472371501937829
1.1537402091549291416
1.1537233335388246136
1.1537611630425630427
1.1538130676405322639
1.1537705654505909791
1.153559533266191206
1.1532088363652024388
1.1528377520614301321
1.1525561753768862605
1.1523902732319937225
1.1522834720343038128
1.152179220166687168
1.1520962255996123336
1.152106286967333304
1.1522517698255663188
1.1524773960658274419
1.1526599566794941687
1.1526992398061448597
1.1525836012670018782
1.1500180351665232337
1.1499221315160588208
1.1502021627964305051
1.1507203921506867772
1.1511353283282603766
1.1512531555987088883
1.1511621979591248888
1.1508249543503712431
1.1511289174001027025
1.1514095132371020558
1.1516064216997421443
1.1517017744958841785
1.1517228027581101202
1.1517297402608204226
1.1517965281285291734
1.1519998663500992109
1.1523829580206761403
1.1529289972753851146
1.153533594033136378
1.1540469786586429191
1.1543548813382515927
1.1544417987823258898
1.1543968310528933685
1.1543463077301148179
1.1543585977212165172
1.154389575441597815
1.1543235153671507209
1.1540826602458229555
1.1536976455635383765
1.1532947575195915402
1.1529871360213050924
1.1527993209426306009
1.152670226020131139
1.1525403974186851919
1.1524316124934312899
1.1524233953489764204
1.1525591205035263798
1.1527830676142698518
1.1529589124111114806
1.1529844804720317253
1.1528490171309242474
1.1526169811668347531
1.156779295765052451
1.1566966420031115081
1.1566236027125207375
1.156562671096944328
1.1565175983715656471
1.1564938507272850554
1.1564921744839404827
1.1565164891099390942
1.1565611749163455801
1.1566199778740655635
1.1566855690340309692
1.1542566919506758172
1.1543900718653832271
1.1543876277765547922
1.1543190744708509143
1.1542819190807180885
1.1543428585569193157
1.1545008122775413106
1.1546857408431510095
1.1548080123915522854
1.154816377543647965
1.1547326497507657272
1.1546321869471092292
1.1545972433823583625
1.154664853527431978
1.1548199597098602887
1.1550069952215094027
1.1551681853896900165
1.1552632180030750764
1.1552820318708432179
1.1552370260209756658
1.155161619292950137
1.1550860508694589246
1.1550400623263392674
1.1550371161146544274
1.1550743319664549258
1.1551409952504165801
1.1552214142773284955
1.1553055259269213728
1.1553945312017221969
1.1554903972859511541
1.1555864447487187441
1.1556648846085781912
1.1557025891934906703
1.1556835641719418462
1.1556082259312978611
1.1554991009768769139
1.1571162791276037307
1.1572030925401393109
1.1572403019609696084
1.1572318106915706615
1.1571856772163051641
1.1571122134415674498
1.1570221106296785241
1.156925168742066079
1.1568286188321181829
1.1567372337482555444
1.1566541404082857358
1.1565796258133458352
1.1565160878122502375
1.1564655566615189564
1.1564303823583739206
1.156415379866933435
1.1564205065729906696
1.1564495585240257558
1.1565009395889098709
1.1565671212242205623
1.1566438211469729502
1.154338294826163791
1.1544363779172075457
1.1544275665900813888
1.1543754993507822082
1.154362301178705863
1.1544345591220925851
1.1545750454100514037
1.1547179201696515793
1.1547906794537521336
1.1547660726381772101
1.1546804364392149189
1.1546080258536211005
1.1546182225968384394
1.1547372097913781719
1.1549361254337162652
1.1551508602000120085
1.1553116062720387713
1.1553754548557346737
1.1553324390901322793
1.1552140395868004674
1.1550705361684074912
1.1549539839210170022
1.1549021254293634353
1.1549204988163106478
1.1549975947147819166
1.1551078742356606366
1.1552286099120252505
1.1553583661189763543
1.1555021116331967157
1.1556577393951852351
1.1558135499566939419
1.1559444096070092822
1.1560187470630969298
1.1560088167255822
1.1559081003781999097
1.1557414233760203714
1.156994200124576988
1.1570638439187233004
1.1570875069670039093
1.1570693647945242688
1.1570166658467333498
1.1569386451747905031
1.1568450177209614882
1.1567455004633642179
1.156648514551538387
1.1565598269563128753
1.156483442651680793
1.1564200167022586907
1.1563705362803649024
1.156335360830597514
1.1563142857384469675
1.1563106611365985277
1.1563225586880412354
1.1563514640260084132
1.156399185452081424
1.1564589931940167933
1.1565314196186236018
1.1544714910544811026
1.1544741860263261213
1.154450938115649139
1.1544565100897301591
1.1545187156403569073
1.1546139263217545246
1.1546904961621506924
1.1547071535638544493
1.1546622391289658172
1.1545959255809246091
1.1545706160986441979
1.1546363775193491108
1.1548045405034221833
1.1550402394947107965
1.1552748961116945381
1.1554361396883401358
1.1554774411641270948
1.155394144153550906
1.1552258799381056598
1.1550354149385286817
1.1548878437281948628
1.1548215967510389035
1.1548445256003512238
1.154932660347907758
1.1550530324424030937
1.1551930226477327146
1.1553575415313879216
1.1555493404675198921
1.1557616157361847442
1.1559739130464925516
1.1561522571742168797
1.1562533971820589951
1.1562411762491213718
1.156110785561371701
1.1568847818972842756
1.1568952355604633642
1.1568695215055906367
1.1568131055842927335
1.1567334638210085007
1.1566392241793834739
1.15653950352369006
1.1564433682850070451
1.1563583525080451953
1.1562901665631928338
1.1562400987195862179
1.1562077715394643018
1.1561910935296308978
1.1561857166782174566
1.156192246738423135
1.1562074107281745672
1.1562310032780991342
1.1562673059064434433
1.1563095454901799464
1.1563629001216615411
1.1545925455724395103
1.1546105559814454633
1.1546093697054204963
1.1546084935670117844
1.1546164227857000917
1.1546241463966648855
1.1546132408765270583
1.1545782434105618108
1.1545340410330626746
1.1545153624180461982
1.154562134770035664
1.1546955309751221197
1.1549060881568737891
1.155155868962158161
1.1553865272172030298
1.1555378144969117304
1.1555651206505883621
1.1554640205045774159
1.1552723132968076847
1.1550565782499067069
1.1548827686579550278
1.1547912053436013569
1.1547870023988795474
1.1548510647125342921
1.1549656842571602855
1.1551247264356592215
1.155323581826943613
1.1555584897828437008
1.155816911695107807
1.1560678311294629861
1.1562667311108432155
1.1563676333893939674
1.1563405336822492053
1.1561849797362377945
1.15666853650577095
1.1566688619898310986
1.1566404170786412919
1.156586244800693164
1.1565116673065021224
1.1564239718526241329
1.1563316260001583746
1.1562436964839946096
1.1561682727279263272
1.1561122012733315856
1.156077512856336309
1.1560626743767206115
1.1560636277381706183
1.1560727296167740974
1.1560876149807541857
1.1561025612586892652
1.1561151482277127744
1.1561324540289992235
1.1561490893341415109
1.1561747078957786972
1.1546682670417627303
1.1546902705557433588
1.1546708019973330739
1.1546117993174707106
1.1545320468528414981
1.1544543730107825752
1.1544044694121531336
1.1544045886820024638
1.1544736661193151228
1.1546167290880620104
1.1548174224956251344
1.155045653548668616
1.1552675448356879429
1.1554513145155178577
1.1555653941624768333
1.155581335382477759
1.1554918657073260935
1.15531894871710894
1.1551105043450879961
1.1549210539862058145
1.1547921936127061304
1.1547458645723416293
1.1547861711585050148
1.1549067733974482941
1.1550959253671346794
1.1553355454119540457
1.1556016764986678513
1.1558632385214149263
1.1560877952050758743
1.1562443056458864277
1.1563057781841210581
1.156252241333782349
1.1563893805515217394
1.1563611955756936123
1.1563146470802811994
1.1562530783281252944
1.1561825786538477701
1.1561108389900898175
1.1560461491709335125
1.1559949963089231062
1.1559626646820331253
1.1559505446730695688
1.1559562391951732074
1.1559745406865740147
1.1559951530728236335