/*--------------------------------*- C++ -*----------------------------------*\
  =========                 |
  \\      /  F ield         | OpenFOAM: The Open Source CFD Toolbox
   \\    /   O peration     | Website:  https://openfoam.org
    \\  /    A nd           | Version:  12
     \\/     M anipulation  |
\*---------------------------------------------------------------------------*/
FoamFile
{
    format      ascii;
    class       volScalarField;
    location    "0.0068";
    object      T;
}
// * * * * * * * * * * * * * * * * * * * * * * * * * * * * * * * * * * * * * //

dimensions      [0 0 0 1 0 0 0];

internalField   nonuniform List<scalar> 
106891
(
299.80711590531342381
299.80459889727745804
299.80017198102945031
299.7947168924653738
299.78909298660528293
299.78397608465843405
299.78119156637347942
299.78041093675267348
299.78270889433326829
299.78729679101041938
299.79352494879498181
299.57136922098931109
299.52717738035710227
299.50106670943466725
299.48235591839477365
299.46172886294226601
299.4363707481592769
299.41103529469029354
299.39351898413133313
299.38763315045230229
299.3896142338816162
299.39040177805105714
299.38278190993656835
299.36737492985565723
299.35153461345396408
299.34476514930071289
299.35239759190966424
299.37073232612243601
299.3899793201481998
299.40126008147223047
299.4026084742125704
299.40003209106527038
299.40259304510226457
299.41655153351274521
299.44121192095434481
299.46932648272576216
299.49119739869382784
299.49972169304504632
299.49292099105650777
299.47362142113212258
299.44790009169946643
299.42286353509507535
299.40441932521986246
299.39568875339028864
299.39681055705335666
299.40490559756767652
299.41482521704801911
299.42146740672626493
299.42224503822444603
299.78402340790933067
299.78670621109074546
299.78950120363651877
299.79242697629757686
299.79543530512069083
299.79840507504275138
299.80097202803437995
299.80274098272468564
299.80337406509727316
299.8025245863842656
299.80033066249529838
299.79664487508591719
299.79213445725218889
299.78757605244584283
299.78339041461885017
299.78132352404708172
299.78121722455131248
299.78377416759042262
299.78896120238340472
299.79594135002673738
299.54774136691116837
299.51548235269910947
299.49095132883792303
299.46636383236977963
299.43955314937659296
299.41480987479764053
299.39891351189589841
299.39498771729250848
299.39899869036605651
299.40180864268916139
299.39636226853349399
299.38289363906460494
299.36952303420389399
299.36524234973558123
299.37418521503599322
299.39143314816033126
299.40633200948269632
299.41042184266780168
299.40324735984199833
299.39257409677009036
299.38945886156813003
299.40173076516452966
299.42877065251701652
299.46261650006579202
299.49236340967610204
299.50863464362663535
299.50707030847252099
299.48945243591231247
299.46183095123376461
299.43201978294854371
299.40760754289067336
299.39400378633496302
299.39299174550188809
299.40220258296835709
299.41591584726620567
299.42749092462651106
299.7780276798460477
299.7799278470417903
299.78202115810154282
299.78424340404740178
299.78654140735818601
299.78888429915389224
299.79107539685242045
299.79278993814938303
299.79369404454774894
299.79341167244120925
299.79204021824961046
299.78944570365575828
299.78610237870520905
299.78275927029955028
299.77960703563144307
299.77828960290355553
299.77888298070843121
299.78171778864253838
299.78743570377588412
299.79499323012294099
299.53109225296316254
299.50367382714830455
299.48234423803552318
299.46189664738454894
299.44153302913730386
299.4247834383294844
299.41621007960270617
299.41713220518278149
299.42288382032955951
299.42535337373914217
299.41843112395389426
299.40301462459314052
299.38692148656150493
299.37866587456119305
299.38105739634414704
299.38984961053211009
299.39629438636791292
299.39441491887720304
299.38547709459822954
299.37741012280059749
299.38003871067093087
299.39890943197173101
299.43196810728477431
299.47053750202411493
299.50315957162382574
299.5203668872921412
299.51817361405011297
299.49847066642024629
299.46720890506958312
299.43260842538307998
299.4033150446041418
299.386107374179403
299.38362367226494598
299.39357067749352836
299.41008650054163809
299.42617380341255284
299.76996736108083041
299.76998824688490686
299.77042531817318149
299.77131606893374283
299.77271808820250953
299.7745859379666058
299.77666814717599664
299.77858182218187721
299.77973526873097398
299.77993661484481436
299.77889171208244079
299.77682055830251784
299.77454731083787465
299.77225181371824192
299.77158229785078447
299.77288606952259897
299.77610116570104992
299.78240065093615385
299.79044442491601785
299.5379578133497489
299.50661589547956964
299.48054072074313581
299.45915275610678918
299.44339489009729505
299.43438862054784977
299.43146830637260791
299.43103570768982991
299.42831193825139735
299.42026030169830619
299.40863065619186045
299.39868484263291748
299.39512621396994518
299.39819959397470939
299.40281996399829723
299.40258018702377285
299.39453631896498109
299.38199511037544198
299.37288278502995809
299.37510845096738876
299.39203280070495339
299.42076111233166102
299.45331845198018073
299.48041069659478808
299.49510788726274768
299.4944166877772318
299.47953281768491252
299.45498755057082008
299.427234001786303
299.40306826634815707
299.38786306948350102
299.38404204241277284
299.39048148154756745
299.40333682492621392
299.75972111268720255
299.75635493796397668
299.75336598818563516
299.75128410047790339
299.75045626295502643
299.75105903820298181
299.75306612345900703
299.75609422578594376
299.75956813904906539
299.7626064811871629
299.76470872399249856
299.76547426288306042
299.76485451402555782
299.76366941500742769
299.76209276342149224
299.76184447402818023
299.7636785574188707
299.76719295986657698
299.77388500907397884
299.78212638246162669
299.5252090536457672
299.49621902956255326
299.47635562150804844
299.46530433519501457
299.4607066518301508
299.45934046235919368
299.4576960346512351
299.45317356730282654
299.44460474626407631
299.4328771555107096
299.42124051657054906
299.41302598924659151
299.40936597681638887
299.40798722132842613
299.40468647043110195
299.39567149586144978
299.38126501867321849
299.36658949440135302
299.35869696771908366
299.36250486456913222
299.3784938244617706
299.40279797851189869
299.42886013528129752
299.45039542033310909
299.46351178275051552
299.46680264913032943
299.46114350060241804
299.44902866080542481
299.43320736550492711
299.4164546097352968
299.40162146426075651
299.3910055852414871
299.38614305017631523
299.73798037142000794
299.73162840984230115
299.72685789437355197
299.72449193619598873
299.72484415915710088
299.72775980876838275
299.73255587406345057
299.73834735035808308
299.74388545139288453
299.74826600450842307
299.75099323985364208
299.75192937996121145
299.75204653021881995
299.75148254852535956
299.75174649694218942
299.75383737889848135
299.75713173658311916
299.76341965570782122
299.77095576449835335
299.48079812615401352
299.45979262719254166
299.45188497553220941
299.45280142585340855
299.45580397583552212
299.45534184081810736
299.44915542742245407
299.43881810919111786
299.42794142860611828
299.41991167962277132
299.41618230305493853
299.41529136529271682
299.41327114697293155
299.40679297206918363
299.39496698741879754
299.3801166874629871
299.36707488793553011
299.36056195617624098
299.36239633349106271
299.3708799144309296
299.38209976417488178
299.3922548197621154
299.39921572281269846
299.40318505513306491
299.40626955007945753
299.41034318538055459
299.41506388232062363
299.41814104237238325
299.41678390568739587
299.40926884849915268
299.39671163878904281
299.38333990106207239
299.71503568479045043
299.7060627345863395
299.69912594392889105
299.6954361006140175
299.69559653806555843
299.6995202605060058
299.70629635289367343
299.71472366631610385
299.72320826308219921
299.73041373612522875
299.73557144189834389
299.73825005616652106
299.73954250393632037
299.73979293605077601
299.74042968809720833
299.74257536703851201
299.74527885430012475
299.7504232581799215
299.75638141855620233
299.44736297488560695
299.44432860962899667
299.45087417416175413
299.45893433055994137
299.46172142844903874
299.45682704784866246
299.44648283305525638
299.43498226801955298
299.42551977502023419
299.41920068813487887
299.41432124677015736
299.4075663953180424
299.39678943235014685
299.38269406214334367
299.36788442720029479
299.35613322787992274
299.35049402945713837
299.35132605804381001
299.3562243637935012
299.36136240667849506
299.36399827237914906
299.36409604490557967
299.36441474353398462
299.3688996520826322
299.3795975086419503
299.39487157762198422
299.4093045438921763
299.41562874754191625
299.40921490471964717
299.39116573272923461
299.68166604898868854
299.67416468297136589
299.67021742590435451
299.67044304763965101
299.67482377238354729
299.68247288402045569
299.69220747658812343
299.70244170335701028
299.71174342274071023
299.71923314204218514
299.72402675750458911
299.72685131627451938
299.72786633551038449
299.72830211063899242
299.72956200328025034
299.73070732942738914
299.7336855855753015
299.73715996115129201
299.41331695742184138
299.4227425680411443
299.43485085215536401
299.44346631598472186
299.44535982576127253
299.44111687420371481
299.43366755788531464
299.4255052119911511
299.41807502186713918
299.41073025843502364
299.40196815400736341
299.39035640369559133
299.37609517759534583
299.36037944648813891
299.34523485304106316
299.33327766733333419
299.32626835444875724
299.32376749835168539
299.323826949350007
299.32464337130062404
299.32601046686806967
299.33006880086071533
299.34017288913810262
299.35766417472922285
299.37961390571058473
299.39899218089396982
299.40761172678679713
299.40058122615818093
299.66231065365639097
299.65668499302523742
299.65415899135996369
299.65517236752202734
299.65973951232507488
299.6671461273491559
299.67649651451586124
299.68652789877910436
299.69602133908557562
299.70427813571183151
299.71023236355489416
299.71423072794004838
299.71601586593715183
299.71623315662679943
299.71629334206568274
299.71543915981703776
299.71575758262184763
299.71644671850481245
299.39668748291995826
299.40629273985388181
299.41621247873911216
299.42206258701344268
299.42125723401585446
299.4141471277479809
299.40260852610947495
299.38886925979215903
299.37542461163923235
299.36472650136198581
299.3573498078474131
299.35157131225162175
299.34552926023820874
299.33789307050284378
299.3286979770160201
299.3201676375608713
299.31461838931920738
299.31289257628651512
299.31383974399381032
299.31579133745447052
299.31838514274227236
299.32312111778639974
299.33197273107333558
299.34437316437458776
299.35625090064309006
299.36166744993255406
299.3567130967032881
299.6458409141311563
299.64631928653739124
299.64876593824482143
299.65315038295881322
299.65908934708431843
299.66625872739268743
299.67402987974230655
299.68165866657273
299.68879424693915325
299.69440319904310854
299.69861572902203761
299.70091912472668128
299.70136714320904048
299.70109847573763773
299.69938025597218711
299.69816432694722153
299.69718240537514475
299.33843198046008638
299.33710439999975961
299.34276347088308512
299.35319491499103606
299.3650059511321615
299.37403688205483832
299.37704686402742027
299.37314253602676217
299.36388853727481774
299.35280881195956226
299.34358573640037093
299.33784088529256451
299.33442434272831179
299.32986504013496187
299.32134375260449133
299.30958161460119982
299.29829062985544397
299.29226921975833875
299.29368501186240792
299.30031454230902455
299.30801784439006497
299.3140841254732436
299.31780925976340768
299.32048727392952969
299.32406287095517428
299.32891816688294284
299.33373190210687653
299.64359050083277225
299.64690545612216965
299.65027147778079097
299.6535558396333272
299.65699304703321104
299.66070128398490624
299.66459603005273493
299.66881548977647753
299.67254959935763736
299.67583815247382972
299.67809189357717514
299.67894898299118722
299.67923121452514579
299.67822607909135968
299.67740192510160568
299.67672082633305308
299.32688919644181169
299.31654290874058688
299.31273662578195172
299.31414623837332556
299.31791196410188149
299.32015608786150551
299.3183290639955203
299.31255612104740749
299.30550335317121835
299.30091757865682212
299.3019247024365086
299.30885794786178167
299.31824976420625717
299.3244769607130138
299.32361052204572616
299.31625353251092747
299.3067084494282426
299.3000291680334044
299.29869178985222788
299.30159311678454515
299.30551823730672822
299.30761476216792971
299.30743607736729928
299.30683283275499207
299.30831117648557438
299.31339687836157282
299.3219579868909932
299.33223719777703309
299.64815482660014823
299.65020935412900371
299.65118229718575549
299.65154792753730817
299.65177415102198211
299.65214231048474858
299.6531346125334494
299.65425814362640722
299.65563431795578708
299.65680525723428218
299.65729066729494434
299.65769698427345702
299.65738653345590592
299.65730367214342778
299.65744615611743029
299.28903446654595655
299.27611863447009455
299.27041318262797631
299.26832002329825855
299.26680181360131883
299.26467329530828465
299.26299930107563796
299.26414454267370502
299.27072077608221434
299.28375673063459317
299.30125556088319172
299.31795863163330296
299.32798261834079767
299.32835174155871982
299.32066209294305281
299.31007832901718757
299.30182784601328194
299.29805096344239246
299.2972695615553107
299.29666758541623039
299.29482879591677147
299.29275175992228242
299.29279379854119725
299.29705029797969473
299.30653830439973717
299.32086757820417233
299.33806563420574776
299.65211170917865502
299.65192330332661186
299.65074087188457952
299.64907163324050998
299.6472803122909454
299.64597396648014183
299.64491519185190782
299.64436699705601086
299.64408843687459694
299.64365214575263963
299.64352391007668075
299.64322183057572602
299.64332424368836882
299.64381988316961269
299.25988927531210493
299.25151334244202417
299.24578246727742226
299.2395511802876058
299.2329884777237794
299.22883386184065557
299.23044596873279488
299.24065108892801845
299.25903251706290575
299.28190749793873238
299.30305263115644721
299.31695299616404782
299.32176230242822612
299.31977588656530997
299.31579705978401762
299.31357824874424978
299.31330661951704997
299.3127077922135868
299.30928607978148648
299.30346379732225159
299.29749215946463892
299.29499837694362441
299.29822643877412247
299.30749981290449568
299.3217896645500673
299.33911400927144086
299.65561320653546318
299.65427398600911602
299.65209857291995377
299.64937207210977022
299.64669030262336946
299.64399745603458314
299.64169645884629745
299.63982261435268128
299.63814466695055216
299.63706066045574516
299.63626678720908103
299.63601223950252006
299.63624434963492149
299.22513425678039312
299.22182404167409686
299.2170635466735007
299.21146776698515168
299.2093755995185802
299.21488504347519211
299.2301359949871653
299.25358022413928438
299.28011170821196174
299.30260525149077466
299.31605074524941301
299.31968290749296102
299.31725685290206229
299.3138747108181974
299.31300003170758828
299.31417650329456137
299.31465356333285399
299.31295567134378643
299.30951542936509213
299.30713224310903797
299.30819690317497361
299.31413414888135094
299.32440133975688923
299.33719738444762015
299.3503265879725177
299.66149292747400068
299.66001921392626173
299.65751582239585105
299.65446200284685574
299.65092971519072762
299.64742382100621398
299.64421793907416713
299.64132388880523195
299.6391123780793464
299.63747759951900207
299.63641210964539141
299.6357959880279509
299.21149965138374682
299.20770333494988336
299.20205462062494917
299.19930963189023032
299.20431655671757198
299.21949276653305105
299.24329527084847768
299.26992305732346722
299.29268173080566839
299.3069827863476462
299.31275725535056154
299.31368626898972707
299.3145337118239695
299.31769824299993843
299.32213491439495101
299.32502965643078596
299.32537710054032232
299.32364358269921922
299.32213424485905762
299.32344306243561505
299.32843415046403379
299.33576660263690883
299.34329794936422786
299.34915310590156423
299.20011743122768166
299.2021371988786882
299.20435120431079667
299.21100637240482456
299.22490413648785079
299.24525640894000844
299.26779739439979267
299.28703947440908451
299.29934244154628686
299.30519037492348389
299.30800847649641128
299.31164793157540771
299.31764348381045693
299.32441571950226944
299.32977842474059571
299.33217062480667892
299.33233941595472061
299.33273251911862189
299.33532088247801539
299.34004772559120511
299.34524870161396848
299.34875937728094186
299.34897766570190925
299.21495939972453471
299.21898050573611272
299.22737496071766827
299.24077347201142629
299.25706984907452579
299.27274740143542431
299.28548450940638759
299.29547994862491578
299.30455695733189714
299.31479504362687294
299.32574248166224606
299.33551472240901603
299.34213607499935961
299.34474513601196577
299.34490532770598747
299.34493546217612447
299.34616895776554202
299.34823333721305971
299.34963600821362206
299.34835039446898008
299.34306569260951392
299.25514927788287878
299.2628555544939104
299.27020643324402727
299.27792937580341004
299.28753830070291997
299.299529750800275
299.31260449169224103
299.32456063635532928
299.33392628462695484
299.3407873892752491
299.34646031648441067
299.35199879983900928
299.3573595479599021
299.36123689713400609
299.36187474470051484
299.35733155709198172
299.34692809224048915
299.27600309152421687
299.29314419682111748
299.31066547025153568
299.32547858370799077
299.33629823654132451
299.34395038010478629
299.34995815259566143
299.35547626143556954
299.36003926603024183
299.36224232099505116
299.36031635430509823
299.35312440147743018
299.34105945278861327
299.2893976952493631
299.31177809366096199
299.32920538880000549
299.34001593864320512
299.34550633671830155
299.34815182780749865
299.34976290426749301
299.35029255749611821
299.34854426096012503
299.34329380068209048
299.33445816558014485
299.32346311788472804
301.76124651440682101
301.69871708530456544
301.57994299649180903
301.41025708545993211
301.21194166343792631
301.02124854537328247
300.87887465407027321
300.81735799382778396
300.84845184597924117
300.96169109385715501
301.13050699612034578
301.32388321759862038
301.51814599689566876
301.69921488294374967
301.85969394785388431
301.99297357530639374
302.09002586939317325
302.13866357971397747
302.12418371003343509
302.03214234815425243
301.74107012957239249
301.76090837626014718
301.74494232159281637
301.67881755036580671
301.55562400347315588
301.38413309351972202
301.19111109862200237
301.01526107472489002
300.8962097758010259
300.86165933814493201
300.91769168978851212
301.04851977158949694
301.22577029504861912
301.41877791709930534
301.60406793377660506
301.76883817321777315
301.90858415409127247
302.02259540250355485
302.10745606337974323
302.15161633494165017
302.13490402490566566
302.03580056755021133
301.61266524255603372
301.6721176748783364
301.72737902371102336
301.77123074695936111
301.78947239079445808
301.76423346799055025
301.68308424363766562
301.54602284499691223
301.36904990191965226
301.18376063360483386
301.02797346881868634
300.9365860674535611
300.93004799173706942
301.00725843729406961
301.14918568428373646
301.32613785656758409
301.50867841225164057
301.67636301432105483
301.82081948650346703
301.94293108633451084
302.04408581093423436
302.11702480110682245
302.14254089319109653
302.09610519002853835
301.96062312146761997
301.73818704265511315
301.60823254641633184
301.66243053983686195
301.70820344941972735
301.74330694219190718
301.76146204398799
301.75317082219294207
301.70960120214868994
301.62739414887494149
301.51261122939297366
301.38189460142007192
301.25707647800635414
301.16382087834347203
301.12376878551066284
301.14820131148081828
301.2355408035487585
301.37022173655992674
301.52806298715620414
301.68423753647812191
301.82062502549268856
301.92959572592468476
302.01114868006271763
302.0654378591468685
302.08544653042264372
302.05671917733837972
301.96542016463575919
301.80926285121228148
301.60337546278009313
301.37864515159941448
301.72902265949682032
301.7573408278245779
301.76005777277663356
301.73092664726459589
301.67189133881851149
301.59266755163724838
301.50934205270061739
301.44117669846605168
301.40607446731650043
301.4138600299492623
301.46325527357271312
301.54284680071509683
301.63698655824794059
301.73449218533801286
301.82976225548787852
301.92127867313706702
302.00519149844069489
302.07130375829967761
302.1044154773545074
302.09060864392347412
302.02549325921245327
301.91669738322991634
301.78126210750929204
301.6389757037148911
301.50855850653113066
301.4073794746344106
301.35122608744677564
301.3500541601466125
301.40176193043515696
301.48980693370714334
301.53757242992020338
301.5901986557836949
301.63861968677548475
301.67043699729873651
301.67831791119442642
301.66224979120949001
301.62967413551740492
301.5934021320207421
301.56860169474282429
301.56872716807799861
301.59853850737772518
301.65124639286591446
301.71136706336568523
301.76236506143578708
301.79212946610101653
301.80020656260995793
301.79230722800963349
301.7735539868270962
301.74406068284412186
301.69995557401131236
301.63933145128100932
301.56810946120231165
301.49833887217704387
301.44155372238020618
301.40137680396600217
301.37332325424910096
301.35150049836300923
301.33500868115686444
301.32756552814032602
301.33094464252644684
301.33974997006151852
301.34296405910544081
301.22706672582398824
301.24262890406077986
301.25196502129847431
301.24890366689714938
301.2324581651384392
301.20691958395582333
301.17981142382569715
301.15973773241688605
301.15455104914980211
301.16826200124438628
301.19867810302793032
301.23578390549465666
301.26593629057072121
301.27707491042190213
301.2674272590968485
301.2441985172934551
301.21879571739782477
301.19787864491337359
301.17847445064114709
301.15093745358382193
301.10802490841803092
301.05208667037112491
300.99392691261056143
300.94438764483572868
300.90650512251562532
300.8752211575483102
300.84499442783504719
300.81692451919423092
300.79742024157599189
300.79051179355514023
300.79111352179182859
300.78797452205344598
300.77128116904992794
301.29618457924539143
301.32329858912453346
301.37539371667389787
301.41850702808216056
301.43226931159506421
301.42440773802690046
300.76623691256634174
300.78298160591248234
300.79753149902080622
300.80376336085595312
300.8000221286405349
300.78919708768711416
300.77744082950789561
300.77250759226285481
300.7818025320216293
300.80972627277640186
300.85451489249714996
300.90642002561253321
300.95025850328471506
300.97408704494569065
300.97590177590853955
300.96402203277409626
300.9510034897267019
300.94399985518754193
300.9391309150557845
300.92505453379220626
300.89365844095425473
300.84753696373331877
300.79905068171404992
300.75995172057872651
300.73336131931040427
300.71354251038832217
300.6944529720969399
300.67790013640603775
300.67149281601581379
300.67995533048258494
300.69766825880657279
300.7114841132647598
300.71043603980507442
300.69305015956183524
300.66499382139869567
300.6524288975273862
300.67933737869452671
300.73203507910955068
300.77442324883759284
300.78518879218097481
300.77308493224148833
300.46235707905879053
300.49076628725964611
300.51721934090039667
300.53494660442322584
300.54181862801499392
300.54069514720197276
300.53812836988532808
300.54207360311926323
300.5606232290645039
300.59828343870628942
300.65336070565018645
300.71511893010665517
300.76792124954613428
300.79962877467983162
300.80821845629202471
300.80266629022537472
300.79616258656795935
300.7961665668009914
300.79844017742925644
300.79095773513944323
300.76526228787372474
300.72415574020715212
300.68070767279226629
300.64701817912975912
300.6260807156482997
300.61168863631547765
300.59746569827581197
300.58541163861161749
300.58381822782712334
300.59744408057724741
300.62078712369117284
300.63962957132105203
300.64304661433965293
300.62965225431958061
300.60604230882682941
299.80607291553809546
299.79758069588206126
299.78990807755531023
299.78355536089100042
299.77893555846225127
299.77610625422818202
299.77611275595972984
299.77827187263943642
299.78280107962461898
299.78898804500028064
299.79552697591060451
299.54391267914326136
299.49455524245621518
299.44368333699770801
299.39569914811801254
299.35932445205793329
299.34108665543311645
299.34080748707128805
299.35077042621469445
299.36037948588818836
299.3621481531508266
299.35571996374477521
299.34650444234273436
299.34140192596242969
299.34376069927310482
299.35270873523461432
299.36410118585644113
299.37406181623219936
299.38043163613730258
299.38360471248165595
299.38531464075549593
299.38844154092640792
299.39458860883371472
299.40462128965106103
299.41755565553307861
299.43091402504961707
299.44214243611071424
299.44923223230097165
299.45185160701072391
299.45180501947419316
299.45150848600223981
299.45245303532379921
299.45447477575777384
299.45609799350631874
299.45580274606669491
299.4531252208507226
299.44948321655255086
299.84126500064274978
299.85057899177013496
299.85467143457111661
299.85393691773157343
299.84921174471827499
299.84155545470190418
299.8321310745124606
299.8219211575530494
299.81171836545672704
299.80209256099425374
299.7931991269771288
299.78537783959421859
299.77856072774727636
299.77310462472865993
299.76947784579652989
299.76750355479498467
299.7681380800355555
299.77106049073375971
299.77615543814391685
299.78335909510212787
299.79122677295788435
299.55378086768291723
299.500028252596735
299.44744636120219639
299.40014041544174006
299.36538323154775298
299.34764876805678568
299.34497531336160137
299.34998606544996846
299.35385156504406723
299.35167196944905754
299.34479802989233121
299.33869374642574712
299.33904071073044406
299.34805818407784272
299.36334933714579165
299.37967805050226389
299.39162244982213679
299.39645151374685383
299.39432173939093218
299.38882467538718402
299.38464779843229735
299.38576873533054368
299.39413072367227642
299.40803153576433715
299.42420544043955033
299.43860812164314211
299.4484871065999414
299.4544852869571514
299.4589531682270831
299.4639842587053522
299.47063039286666708
299.47799677721229727
299.48370256491512009
299.48491909287218959
299.48030620438407823
299.47137497112049687
299.82870906375734421
299.83623440297782281
299.83894077842467141
299.83724328569655881
299.8318822212518171
299.82379400703990768
299.81401143652260544
299.80351827220277983
299.7931947673540094
299.78373344120842603
299.77538953279741918
299.76853975273280639
299.76306700943865735
299.75905127229663094
299.75689200049032479
299.75611861400983571
299.75743424245086999
299.76066377993510059
299.76529566154187023
299.77208779847535425
299.77975100620011517
299.50846594971062586
299.45566458434365131
299.41041092422636893
299.37712844022127001
299.35827987606597844
299.35116458477597234
299.34973656350052806
299.34833591320796131
299.34473655948329451
299.3407022942062099
299.34040791114688318
299.34736312123891366
299.36200690529676649
299.38103641595580484
299.39854808969738542
299.40875278061304243
299.40864197192200891
299.39920356378769384
299.38539638310777491
299.37372257020268762
299.37004602219406024
299.37666814704374474
299.39218734874822303
299.41185248063254676
299.43039633912803765
299.44562313779897522
299.45839200347768383
299.47035935802665563
299.48277191548027076
299.49557208958100318
299.50696824811717534
299.51359236064723746
299.51207846528888012
299.50168139438443404
299.81787525923209614
299.81919585631533209
299.81670182867077301
299.81094257342908804
299.80266579546747607
299.79276681645075087
299.78218774869833396
299.77185192862913254
299.76266038325854879
299.75505261986796768
299.74944994672938492
299.74569896944223046
299.74351097580131409
299.74302666874166334
299.74338515257068138
299.74505679236165179
299.74807265415364554
299.75146504310725959
299.75663620605962478
299.76258768331058491
299.49933623442592534
299.44992315015099393
299.4089522767019389
299.37773656773856601
299.35666379859537756
299.34431127586640287
299.33766684073299302
299.33447626809430631
299.33401577084021028
299.33733412707738353
299.34616033626474518
299.36087383824065
299.37958082223070733
299.39856138249990636
299.41305075765279753
299.41886247969938495
299.41368145259258426
299.39909299025487144
299.38039004038819257
299.36487711478036999
299.35873520680979709
299.3644560131319281
299.38017714364730182
299.40125708625959078
299.423556885522828
299.4450398105725526
299.46493856052347837
299.48362730656509711
299.50141145176451118
299.51711047978909619
299.52815600942773244
299.53148176582453743
299.52508975714471262
299.50938841917007949
299.79576055096606524
299.79596173126077474
299.79310461512528718
299.78749390886730453
299.77966084971313876
299.77034928929543867
299.76046054332005042
299.75089171278074218
299.74263053472566298
299.73624809897864907
299.73219189538008322
299.73028418646555338
299.72990747327958161
299.73099668084881841
299.73231913670770155
299.73396704152179382
299.73611543242731159
299.73748113842873408
299.7401297819602064
299.74347935428949086
299.47259846824641727
299.43069550796934664
299.39442432742083611
299.36356166651734156
299.33976370861154237
299.32467930458386718
299.31948600927472626
299.32415507486319939
299.33773852538075744
299.35781897583575528
299.38030052582462304
299.40075876650081454
299.41582379954922999
299.42374434948834505
299.42376982655707707
299.41571412907529748
299.40113847983576534
299.38369950322481827
299.36859024446476951
299.36056735208711643
299.36211083005929368
299.37307853765565824
299.39134368331843916
299.41407458357815585
299.43867229899035465
299.46295979062557535
299.48522410238155089
299.50387706776649566
299.51763830983719572
299.52541914578984006
299.52615821216272707
299.51882394754193228
299.76714710491040705
299.76418885436828532
299.75925049933579203
299.75267626172040991
299.74508002833238152
299.73731224929650807
299.73015689939859385
299.72444695610579402
299.72060448615366113
299.71894410341695902
299.71928330230878146
299.72074763051494983
299.72308563076791188