/*--------------------------------*- C++ -*----------------------------------*\
  =========                 |
  \\      /  F ield         | OpenFOAM: The Open Source CFD Toolbox
   \\    /   O peration     | Website:  https://openfoam.org
    \\  /    A nd           | Version:  12
     \\/     M anipulation  |
\*---------------------------------------------------------------------------*/
FoamFile
{
    format      ascii;
    class       volScalarField;
    location    "0.00511";
    object      k;
}
// * * * * * * * * * * * * * * * * * * * * * * * * * * * * * * * * * * * * * //

dimensions      [0 2 -2 0 0 0 0];

internalField   nonuniform List<scalar> 
75962
(
4.1999637617369753339e-05
6.1253157076563932194e-05
7.5218822545447902193e-05
8.2140817179114086278e-05
9.3296084805139496243e-05
0.00012236810390810838644
0.00016527776859614242951
0.00019259115554579538695
0.00021046049648329473057
0.00023786413631066128348
0.0002818075095213285787
0.00033212945827718564056
0.00037162593631096847583
0.00040189677930580749651
0.00043837050100371962279
0.00049544657897819847307
0.00056846876948457266462
0.00063086765298303452195
0.00066477333869696718718
0.00068367119778905971472
0.00071666937087659285648
0.00077930661828673453671
0.0008528608145032157313
0.00091545201033499965047
0.00095623825007242792273
0.00098492001526851889401
0.0010293712773591832087
0.0011159210371080826359
0.0012431905661100975218
0.0013795507618064686058
0.0014905265822573465512
0.0015697337646473773394
0.0016347429150656994385
0.001697068947254231578
0.0017495634546987168158
0.0017817513408556625264
0.0017989672944329613592
0.0018201911427629022776
0.0018672854319559998269
0.0019955125555075263304
0.0021632902056940533746
0.0022823666176351943731
0.0023423443049429329942
0.0023890208265624993805
0.0024888695981548207038
0.0028000554529556101642
0.0032831602813584159772
0.0035900755289771518752
0.0037054197236033371322
0.0037185541139526344379
0.0037069578137739682237
0.0036835367048654436319
0.0036775725995122918524
0.0036799346291999973819
0.0036974175539198177176
0.0037751852024869108314
0.0039950935202897851217
0.0041835984382302751627
0.0042666531770959486083
0.0042786771693085583201
0.0042755680749946081698
0.0042912836651944194152
0.0043994565676328404105
0.0046684775135204638688
0.0048987799099429489222
0.0050837341577714039234
0.0052364915907882059187
0.005349876939251755302
0.0054133253166744792553
0.0054431756227533070053
0.0054831873180534278223
0.0055910470480343091998
0.0059739032322166990205
0.006730198229879542221
0.0072401399717827354813
0.0074481206192755240042
0.0074791113389634077818
0.0074606539870232741266
0.0074443757980570514701
0.0074753840827911938877
0.0076841508589413510394
0.0082416394820256280024
0.0086658639839782333064
0.0088627986492449996325
0.0089062006102209236719
0.0089005662407140809927
0.0088980653231818546828
0.0089382006115368440452
0.0090953247086830810858
0.0091787058001799922552
0.0091747928828979762733
0.0090834713156338273143
0.0089478071023427491887
0.0089223073637268446312
0.0089579807404540877369
0.0091578020276107934688
0.0094350037188742370137
0.0095773706085008798727
0.009630041567041877637
0.0096429749628192864414
0.0096442816842036600822
0.0096432839075888607261
0.0096379311917856088504
0.0096156622618547207132
0.0095840845296910424228
0.0095637894203694350653
0.0095566038290237579483
0.0095577455395883144373
0.0095655127192455381008
0.0096004586179304664262
0.0097240917973201064506
0.0098768972386976336408
0.0099822549341929203703
0.010064773193368214618
0.010157490213298371942
0.010278768056911042478
0.01042184084484596221
0.010562805723325591895
0.010675742346021229248
0.01074810075915305467
0.010785666905401385118
0.010810059253884840569
0.010847496075008896538
0.010932063349681270595
0.011121125299804432082
0.011341614805740500224
0.011546573644931563962
0.011713582837504494735
0.011837472731622833422
0.01193335586338405141
0.012026551260728992124
0.012135596077152926639
0.012265933008284959221
0.012407997238187107661
0.012544732862273819465
0.012659687043464830022
0.012744522530331136093
0.012805766810782982096
0.012859279630301907391
0.012927007216441294482
0.013028919242912358548
0.013174326445305513042
0.013358840500033756019
0.013566571891779042464
0.013774303543087968588
0.013960521307395298493
0.014110910407170306965
0.014222116469933342164
0.014300363283214486548
0.014358099530304537297
0.014411160506393622463
0.014473944987255038877
0.014558833816389804908
0.014670849949769769471
0.014808504140834042456
0.014963803563930301241
0.015125786218423467253
0.015281701421187012316
0.015421812651557880586
0.015541553386594233674
0.015639484885727122226
0.015720428699847573822
0.015791159263933287477
0.015859817101496184732
0.015935989555586310695
0.01602556112575738087
0.016133510712530364783
0.016261776076807676894
0.016408171157749198293
0.016567902686582772209
0.016735440685539088035
0.016904878743776455274
0.017069592347732802373
0.017222026617215179661
0.017357149416281920928
0.017472191691339386543
0.017564813780286077372
0.017636178707975375124
0.017688632227598470592
0.017723786397106131019
0.017745000585074530847
0.017755917270615664827
0.017760572664750069738
0.017762185067356450058
0.01776286246277366046
0.017762839570467568034
0.017761625055053787553
0.017755396021247257105
0.016960397153688681893
0.0169427282542537333
0.01692562203020538808
0.016908797186291929515
0.016892151207594907625
0.016875668565129973986
0.016859239688260606316
0.016842983127769502183
0.016827037487425994949
0.016811241537980598643
0.01679490735590842207
0.016777467259612349748
0.016758972713174939695
0.016740033073747856429
0.016721101213685252151
0.016702389956183210512
0.016684026329159284269
0.016666323364902375925
0.016649311560918565039
0.016632758457944967628
0.016616240535054616068
0.016599677299808081321
0.016582999370870776107
0.016566330946139889296
0.016549600612974342539
0.016533132347918012839
0.016516849069489920876
0.016500724225810673579
0.016484019728951262995
0.016466659250401066011
0.016448435524289949095
0.016430044540622048416
0.016411337464336740732
0.016392675628047994468
0.016373372357275886579
0.016353851889013538978
0.016333720648934312025
0.016313902128781039569
0.016294175999499747876
0.016275374455116779771
0.016256799652098703757
0.016238750566330634878
0.016220101017402701465
0.016201264134095210573
0.016181543572212318816
0.016162034389403185514
0.016142269112515903601
0.016123525560825087422
0.016104962721784063517
0.016087423569947689739
0.016069364788433473934
0.016051538678756156059
0.016032809103097525605
0.016014528139907949905
0.015995729885051917368
0.015977724216816785452
0.015959502339327785031
0.015942470378293858296
0.015925295257081813205
0.015908916613781999561
0.015891737427721257248
0.015874921637638192418
0.015857158871103938652
0.015839656284442744233
0.015821029480563894576
0.015802773186887435208
0.015783718779975509927
0.015765544048289757001
0.015746608416259393753
0.015728193140054455568
0.015708548308636507973
0.015689483698718496851
0.015669840320897587133
0.015651651468778456089
0.01563323712067410387
0.015616099996088378052
0.015598104530788284641
0.015580930847430665351
0.015562609144861265162
0.015545077732256894903
0.015526521996876280901
0.015509006028196898469
0.015490721920627503749
0.015473510078934573503
0.015455099659839374032
0.015437094364007395569
0.015417475975719895434
0.015398625776117608535
0.015379271920904080337
0.015361769284857350326
0.01534426248705842051
0.015328189264332712713
0.015311369282074521747
0.015295121938379003038
0.015277683944984205705
0.015260590991888204476
0.015242644027248043737
0.015225717211757599026
0.015208670304167799109
0.015192923404656426961
0.015176546249217175502
0.015160544484329746204
0.015143138623183014305
0.015126040546383778818
0.015108063128793527627
0.015091281266115863513
0.015074139417593940618
0.015058321931720972456
0.015041562831440034517
0.01502546923968204641
0.015007894414369487429
0.014990903407566568903
0.014972548596307398011
0.014954939927562010266
0.014936215913355871052
0.014918577866956739611
0.014900287089969576834
0.014883303885476080117
0.014865674627832427268
0.014849139527029509358
0.014831849390234061459
0.014815521344666340506
0.014798433103154191512
0.014782309885638332189
0.014765515828454157596
0.014749514376431141494
0.014732451802118799039
0.014715448265839007821
0.014697162829136464074
0.014679219425786919906
0.014660842591291245451
0.01464361769950848699
0.014626536903254969829
0.014610649780941205658
0.01459477179036582431
0.014579300330766034252
0.014563183884291362735
0.014546872904889068812
0.014530070166874584428
0.014513625077838428895
0.014497245765170405085
0.01448163908819669228
0.014465887262744210259
0.014450735032454213938
0.014434932895076349121
0.014419557750078396477
0.014403373204489812801
0.014387872251070035756
0.014371817955765095812
0.014356716148580616829
0.014341125325384323358
0.014326487237950711814
0.01431120710324114767
0.014296494795500960112
0.014280955022705148216
0.014265540834074717444
0.014249763537053049961
0.014234180523914140293
0.014218739330076548763
0.014203383997126686755
0.014187895195335253895
0.014172587795884136752
0.014156834972456433172
0.014142052120638782392
0.014126862812694261293
0.014113191320938590564
0.014099115788966208943
0.014085875401771405513
0.014072031388722342979
0.014057896849232897826
0.01404325492476828606
0.014028155184658840787
0.014012719263719306678
0.013997444945969262503
0.013982110392007994493
0.01396750950396327684
0.013953436770992444851
0.013939982543977783025
0.013927395432790692573
0.013914577174143936272
0.013902146457358478121
0.013888668303944959326
0.013874786811681102602
0.013859802234659442111
0.013845209599732045957
0.013829728990197090455
0.01381588128790910662
0.013801171393348491898
0.013787783079172747855
0.013773527046631669699
0.013760045456997639646
0.0137456926958462438
0.01373241695547649556
0.013717871830009869399
0.013705052463309745289
0.013690623838744005528
0.013678288953883729201
0.013664229073583515975
0.013652634399224466283
0.013639094669735262952
0.013628117964185162622
0.013614806308555585726
0.013603600841073390168
0.013589351430911901161
0.013577097539048458424
0.01356212645830913964
0.013549667734159318022
0.013535284616197617094
0.01352380328984128903
0.013509980126413401874
0.01349892680620491496
0.013485383143707693407
0.013474462703568123451
0.013461266577069882708
0.013450820679495361504
0.013437656860831603128
0.01342753125084409499
0.013414222826269322011
0.013403988911069102466
0.013390155393942863513
0.013379351111439610408
0.013364510500826752917
0.013353314870758151156
0.013338164803333578054
0.013327119424470621964
0.013312303546618158012
0.01330158149322254249
0.013287533141099630921
0.013277520749688184049
0.013264418546772877017
0.013255180551813947054
0.013242276801742308701
0.013233013639048813934
0.013219738609885315836
0.013210139398927537788
0.013196482701427047352
0.013186169286349394905
0.013171621948129354218
0.013160605956384144322
0.013145163558993091038
0.013134032817531813425
0.013118756766463002955
0.01310798019008263017
0.013093055316226008197
0.01308313973102586715
0.013068891804656229683
0.013059743963180700521
0.013046338555609784948
0.013037745761520936477
0.013024487391962534868
0.013015836667760313436
0.013002611366715917038
0.012993939838147039109
0.012980473797590274393
3.8942802151696019619e-05
5.7220533730622772262e-05
7.9403634034538614979e-05
0.00010050858617180469246
0.00011913782400114422157
0.00013854798383352133766
0.00015971514121548323405
0.00018540850579127295702
0.0002247719966117594744
0.00027341436121114631556
0.00031588302753229077595
0.00034953256650912530945
0.00038607108114176462346
0.00043252725926139212742
0.00048550371957506774758
0.00054474544495567757147
0.00060687013352889531987
0.00065569660816261227543
0.00068241376260999759857
0.00070440913261421900151
0.00074784769241477075385
0.00082158126622709553785
0.00090717456416253066873
0.00097855701833908146324
0.0010212607578694448979
0.0010435264387568458748
0.0010691478281072467303
0.0011244662072482328619
0.0012459465806252496486
0.0013958019310882847138
0.0015338862571108468659
0.0016401338727099665747
0.0017154543339871041862
0.0017679432262419675533
0.0018020800766167714788
0.0018230568946391058349
0.0018430487737591217876
0.0018810284847021311629
0.001972927325678358601
0.0021379497220541734959
0.0023053078616643517783
0.0024285178435531663832
0.0024906423678506439852
0.0025299313190388422398
0.0026075341868770887839
0.0028430132637150915681
0.0033119126451862969385
0.0036481157333524113009
0.0037981731047315621386
0.0038270941434240660951
0.0038226553456017519673
0.0038107111935224064793
0.0038096339169730662581
0.0038142332718189169739
0.0038357944263646727434
0.0039155465905871987206
0.0041193293893461947405
0.0042955834181805270522
0.0043846956168634423565
0.0044059354658576872082
0.0044080007388553931261
0.0044195482045083977693
0.004491973922298058905
0.004741010562593386303
0.0050435162359999214862
0.0053027174651399137592
0.0055204864933133873314
0.0056787347729501747376
0.0057653667700990418946
0.0058018727260428955284
0.0058392286314463024907
0.0059349765897768530162
0.0062633362486942747993
0.0068894129969877728609
0.0073224073608119623
0.007509306871297295044
0.0075420564222532099352
0.007536101809030287986
0.0075417148917099312982
0.0076303784413019517391
0.0080616462870905097882
0.0087793431828879029549
0.0092288321166418083724
0.0094165795969440285046
0.009448236691089125644
0.0094365506932172493748
0.0094347814995526923382
0.0094961350622400284016
0.009711586334957505659
0.0098196749429087810263
0.0098178003712792571295
0.0097183861528947201869
0.0095575412276187061283
0.009523984077944122606
0.0095614036819976697124
0.0097822001706313575775
0.010096675341687049582
0.010250741084347859272
0.010300829651674869511
0.010308768604912858791
0.010307234501631937565
0.010301251441564200986
0.010272555431174775625
0.01020094890080895135
0.010148829038642101508
0.010128044472195589162
0.010127686631337722012
0.010142714895350013471
0.010212272519060925854
0.010307167784964862967
0.010358785849321629213
0.010394012360039034393
0.010449846079779430072
0.010553105278385682686
0.010703436841018730552
0.010874713588035142542
0.011032950873636111072
0.01114899672488699027
0.011216567095282204206
0.011250861897024122538
0.011281858816891757874
0.011341344473816296692
0.011455926221327706119
0.011616549344529214505
0.011802617273592285602
0.011987236345399474718
0.012150034978922818335
0.012284394243627450374
0.012399242333833344204
0.01251119659305579071
0.012636688637174632588
0.012782987440534269649
0.012944929604570908077
0.013108130441991366205
0.013254593795478171459
0.013368447007927856604
0.013445434786127422738
0.013494448178664847707
0.013534178361677765001
0.013588959124445276413
0.013680585141521801537
0.013820923949868262753
0.014010340144991854927
0.014235175672219624668
0.014472441776661300328
0.014695733693602051548
0.014882355902199575354
0.015020067495631582444
0.015107016536562427322
0.015153353629736130911
0.015178603947457023141
0.015204895877388902373
0.015256382013670254788
0.015364565227874995082
0.015510590295607078193
0.015679536683126958641
0.015856110562965833322
0.016026138708159411855
0.016179212336910889919
0.016310771640017512896
0.0164194650409236996
0.016510554730617604813
0.016591228166120255971
0.016670362404783624355
0.016757678409123545615
0.016859178189440642698
0.016980383100546222325
0.017122687220585366963
0.017283246891613375518
0.01745661067977710354
0.01763718467404064294
0.017818873336666370827
0.017993996469826290668
0.018155075627422381096
0.018297399911906628983
0.018418762928960216024
0.018516604979410707793
0.018592361310287953274
0.018648296271004179137
0.018685578966508610554
0.018708107940482335968
0.018719530398716901359
0.018724234787022085713
0.018725636804998838786
0.018725530078982293575
0.018724639261852582539
0.018721257689882583181
0.018708193733100692696
0.018669688470719723872
0.017873356296058229981
0.017853794889081630454
0.017835232258734335514
0.017817524436095837775
0.017800183164793436513
0.017782800236708865699
0.017765323384602356438
0.017748001793108987567
0.017730980468115265652
0.017714103982657970759
0.017696945157352827332
0.017679033905110289049
0.017660103774008371197
0.017640304811419448006
0.017620144300188329833
0.017600183362660261344
0.017580791555364957274
0.017562100259191498752
0.017544025373735248896
0.017526198913541093244
0.017508294187829120947
0.017490126252022862585
0.017471911564039179637
0.017453575846385460668
0.017435205331143385776
0.017416677460976887071
0.01739852957601996028
0.017380754758698987311
0.017363410592677770705
0.017345730309681114262
0.01732771971561008692
0.017309147377563987441
0.017290507773100826511
0.017271487105519948979
0.017252214946548955626
0.017232122389275961183
0.017211477167338725541
0.017190068804133349506
0.017168754664019736378
0.017147658499499986162
0.017127553772770653245
0.017107890797632609864
0.017088670314517193788
0.017069023760733652295
0.017049258817625225632
0.017029116125752623984
0.017009311836777521454
0.016989543246295087803
0.016970405444175211407
0.016951317570767752974
0.016932719293967168905
0.016913719004848407068
0.016894752119060028189
0.016875111139755878675
0.016855547634582059013
0.016835606484818254475
0.016816277776704229713
0.016797187115263907675
0.016779125479126740655
0.016761080129140033118
0.016743425180933999702
0.016725284815637425639
0.016707380452144655891
0.016688967354125620185
0.016670469565814038243
0.016651140669895043989
0.016631851986623893275
0.016612187452807600924
0.016592885877685363549
0.016573038296071394837
0.016553129733397058121
0.016532651406764214963
0.016512612453559886994
0.016492836170301915233
0.016474011688656454988
0.016455415428275395329
0.016437229010719769939
0.016418617306084373059
0.016399934117264158145
0.016380736877884775199
0.016361717651531517553
0.016342633780327752574
0.016324048958275615834
0.016305510841333137328
0.0162871309966986684
0.016268219854240338618
0.016248731467373777465
0.016228382237172066238
0.01620799846554307061
0.016188012893026230976
0.01616927066937186297
0.016151359418493691639
0.016134155928617936737
0.016116844077018563364
0.016099421252014339129
0.016081483539286886564
0.016063196073201703451
0.016044520477871363623
0.016026007168813256876
0.016007977406948818017
0.015990707670700151505
0.015973652981894233965
0.015956397009510455559
0.015938401331638013536
0.015920041954930571476
0.015901607849563362262
0.015883764398281007002
0.015866505303857511566
0.015849828120359343853
0.015833096007018647444
0.015816134148113426827
0.015798410123245044956
0.015780337508937661295
0.015761612749916713294
0.015742670370653567141
0.015723270402953168356
0.015703912880528934914
0.015684668701964370879
0.015665926514797725438
0.015647487095282346103
0.015629356922502668503
0.015611350494405781472
0.015593470893509321987
0.015575759853098704311
0.015558279964579698612
0.015541052736911937365
0.015523885200023420858
0.015506400868928052819
0.015488173578170899222
0.015469291310968844022
0.01545001842460999586
0.01543110519430204372
0.015412857786786998693
0.015395614485979943961
0.015378987969474205988
0.015362926589793504673
0.015346478534074956337
0.015329824726798686046
0.015312291641546561111
0.015294714320640941801
0.01527686703225562305
0.015259596253443020314
0.015242572884971774053
0.015226228404757737381
0.015210071894657745811
0.015194033571049186254
0.015177750696561532681
0.015161126442556007929
0.015144349312807480964
0.015127655945923721564
0.015111183941061326341
0.015094950197630326374
0.015078772215597257764
0.015062711709682402583
0.015046391018212505394
0.015030228577010076516
0.015013483190332169506
0.014997178431734758952
0.014980410942405042451
0.014964483457027664623
0.014948147942632977053
0.01493236116847276862
0.014916181048330593578
0.0149001717228480976
0.014884376828399350362
0.014868774030700400088
0.014853790956928696401
0.014839085747086290523
0.014824561785242378054
0.014810343047411897444
0.014795323480775645839
0.014780625698469855231
0.014764674442247851388
0.014749022982161076947
0.01473260176079847078
0.014716803146180391232
0.014700941798147505041
0.01468636183605725315
0.014671833527545844258
0.014658951237860639097
0.014645195167586463544
0.014632524935565209556
0.014617869523859790964
0.014603588758083173305
0.01458727923830571184
0.014572149720791224836
0.014555438369636205728
0.01454100740603425819
0.014525125039962293733
0.014511340271215955253
0.014496208683790531152
0.014482561610452708914
0.014467363789423466278
0.014453876539850682437
0.014438239148634693376
0.014424936994351553535
0.014409281015141727628
0.014396255781336384644
0.014380794815630067521
0.014368357910437909095
0.014353316539670275126
0.014341621073460941033
0.014326976820844982211
0.014315374056368200539
0.014300247571667609389
0.014287807435276215703
0.014272001012075491086
0.01425935214573239608
0.014243956172708077332
0.014232031712143124874
0.014217108216790548189
0.014205483185595777981
0.014190776833965102269
0.014179195424999678152
0.014164765390612281404
0.014153552438131411159
0.014138996273827487624
0.014128002280416208231
0.014113176486348254918
0.014102177806220637588
0.014087031019282393249
0.014075574107033002672
0.01405971930489681096
0.0140480646447565128
0.014031885863924313182
0.014020354252780163617
0.014004520093223274055
0.013993421022584840926
0.013978280418690798223
0.013968001896792951386
0.013953900984127414961
0.013944264936827596019
0.013930416540206312995
0.013920808615491168242
0.01390670571360347503
0.013896860558693291746
0.013882373157791207119
0.013871835869892015086
0.013856251123114487339
0.013844725670469702761
0.013828171183525191784
0.013816304049909496413
0.013799612029964023613
0.013788057045673336037
0.013771568332914123009
0.013760696084327407249
0.013744893531274811685
0.013734902278418056193
0.013720127384694622008
0.013710648388984336687
0.013696100605297013147
0.013686614298150193494
0.013671920170705533643
0.013662261760006571762
0.013647353575254216745
4.2253055734438633583e-05
5.8735468241872107454e-05
7.5821306075469254966e-05
9.3448860389073453922e-05
0.00011749596469069967719
0.00014261220226371526683
0.000165984119013173545
0.00019400404352175811841
0.00023749711017644932346
0.00028887634322755730053
0.00033087505762411853613
0.00036175815805411770101
0.00039648694991309136725
0.00044716827748139350608
0.00050802380717706804858
0.00057197074680143675848
0.00063503559521135659587
0.0006838645184506204986
0.00071066595993741002446
0.00073227144308309630519
0.00077602189831265776937
0.00085147284369502056721
0.00093509860721019411045
0.00099989915437357452729
0.0010372461515297480821
0.0010662201949538259709
0.0011182472629239826635
0.0012289815723804629888
0.0013947949990510263504
0.0015759398062508054271
0.0017240732757908940401
0.0018109945997195724121
0.0018428670405633072564
0.0018488401072148232061
0.0018551303651197252262
0.001870891177712730993
0.0019103141067332214155
0.0020079625948141465765
0.0021427156064568473118
0.0022820123973196402255
0.0024014359588790520558
0.0024795554882356455294
0.0025193451855098636383
0.0025577963339953602162
0.0026439967941790476318
0.0029119737984457660929
0.0033488159705129206742
0.0036477196803602878611
0.0037804757035558513197
0.003811580526468160042
0.0038176470119306829716
0.0038318625280373509387
0.0038762775483095718125
0.0039707342113079399648
0.0040913309362113773129
0.0042283186074641944049
0.0043582006837926652934
0.004450330347197994918
0.0044907035945538640101
0.0044977449921468392116
0.0045020149487277477673
0.0045311891596996759293
0.0046770671248466703582
0.0050718238093071504186
0.0054385114991285041924
0.0057100783537717301683
0.0058986304028800116625
0.006009652671028798375
0.0060588436425009026959
0.0060843260802256552561
0.0061335159847128641747
0.0062924574580897245715
0.0068569959979467402789
0.0075458287001681535744
0.007891842368660615531
0.0079747104430609588865
0.0079598713357713068994
0.0078962629947779174044
0.0078874737156085523299
0.0079653818208872580187
0.0083956898307081563593
0.0091949714613907516936
0.0096981374924450906849
0.0099066308831970914528
0.0099404510839851290688
0.0099291861164539241963
0.0099327154243220115021
0.010036597570818310554
0.010355452286455152366
0.010507724865663758962
0.010509082776540737414
0.010395058425924596363
0.010163319770521331287
0.010089635516722917502
0.010100341069194216856
0.010207293481889529244
0.010454849784512066854
0.010630577800803345939
0.010757956543614879616
0.010860606213152365629
0.010937087438601632294
0.010979375163692631917
0.010990205337074074668
0.010984096763020811949
0.01093549894729227423
0.010829666765544671003
0.010771531500950197111
0.010756197009087841918
0.010759245187821024972
0.010783236845089427119
0.010883006683141216095
0.011026896669657754169
0.01111438140040022296
0.011158160261917163605
0.011188426314892360031
0.011239328323688343308
0.011360282984617461541
0.011558650817520716228
0.011752846111612560293
0.011917454841405675237
0.012049410284903978863
0.01216440170158976028
0.01228006877048948807
0.012406036473325374181
0.012540440684659936305
0.01267545971472265956
0.01280148903454039061
0.012917237599801850365
0.013027136072063455821
0.013140276458266032106
0.013266517188758149975
0.01341376044530445677
0.013580511451193251135
0.013757260683432883525
0.013930759530398262661
0.01408929633798180342
0.014227575969147478532
0.014346615568948074479
0.01445612512771207378
0.014568430795940518624
0.014693628052886188728
0.014835719005692821898
0.014990791983320567171
0.015149245218724372367
0.015302886141971741574
0.015440115811134486751
0.015557827087194756391
0.015656357019702707434
0.015742672486748321425
0.015828143851962624827
0.015926066839288769567
0.016048019064725853322
0.016198205084538352255
0.016373930909947060491
0.016563510065408709737
0.01675317101845559889
0.01693029153566386405
0.017084488336307334516
0.01721186801998023444
0.017314179355970835128
0.017396630253505320635
0.017465627560914062655
0.017530921872733411238
0.017601028873252613782
0.017682825597847267457
0.0177824097392926192
0.017901808434932948988
0.018041343625679419349
0.018198884494099936554
0.018369447207068397704
0.018545767631585597518
0.01872253645492089405
0.018893948864187538189
0.019054829247837044848
0.019199944938393793264
0.019327451325502325447
0.019437333272891328673
0.01952961408117804068
0.019603631106727761879
0.019661391203660658067
0.019703927550904894173
0.019731607519636148312
0.019748156326143156969
0.019756592998754901602
0.019760487377540450482
0.019761310659806199941
0.019760459530379300558
0.019756253206972478748
0.019739513077763115589
0.018820277336178761751
0.018800000043948269374
0.018780709652260065001
0.018762402766385195829
0.01874441766564709233
0.018726157954092385177
0.018707689045015643559
0.018689469978544735046
0.018671519913320409889
0.018653414347100737147
0.018634676187540562264
0.018615177237860040804
0.018594937720989107577
0.01857418757833202011
0.018553206336994285813
0.018532558729417291515
0.018512558155921381847
0.018493479619985108559
0.018474786934789568654
0.018456030159456425499
0.018436446987000747189
0.018416425319015515549
0.0183959464103470062
0.018375554894271329404
0.018354718528451521159
0.018334110894072289111
0.018313650983866777006
0.018294152609350158162
0.018274792939479360399
0.018255851325065658441
0.018236694065263112097
0.018218055568324072191
0.018199064446493832398
0.018179933128199071701
0.018159546590263392352
0.018138622961192608224
0.01811646670884064711
0.018094210376753672859
0.01807132587553909181
0.018049271571886689458
0.018027375965313022221
0.01800658369712515236
0.017985579227609061609
0.017965150768422380456
0.017944258772123890255
0.01792414360559474798
0.017903787620735134301
0.017884313287286370681
0.017864305449416886112
0.017844929116486191178
0.017824720154233541364
0.01780507805310357905
0.017784416086132192464
0.017764186809587054899
0.017742749921023318743
0.017722030534089907444
0.017700849775629481919
0.017681396950771605808
0.01766183386765896382
0.017643477179846017711
0.017624056032088518398
0.017605453471483428762
0.01758589991385120857
0.017567178746460278271
0.017546965970773036048
0.017527158437619993342
0.017506097023955887598
0.017486125264208507435
0.017465033242923724138
0.017444622316771112719
0.017422731346400616853
0.017401950244729149503
0.017380568399537877494
0.017361025115472678709
0.01734091525307876816
0.01732237647558365623
0.017302624113196080069
0.017283874949127163434
0.017263339359813896501
0.017243723292093789123
0.017222804378110051493
0.017203494422318894863
0.017183190760681098935
0.017164414055777597184
0.017144107587505546392
0.017124884944432632733
0.017103675481641624628
0.017083369918777967927
0.017061443940119779689
0.017041428126867163434
0.017020818830005914751
0.017002635037814194802
0.016983426915054649492
0.016965864524249155143
0.016946640937603452137
0.016928660185727452403
0.016908734482793365966
0.016889877594821935819
0.016869305080753072001
0.016850731626020444553
0.01683119607915258345
0.016813819708734609876
0.01679452642117863076
0.016776422047450618991
0.016756090659660740488
0.016737731585383747168
0.016718128593472072335
0.016701294601519492411
0.016683117834165876042
0.016667068309363951284
0.016648721507278828324
0.016631700773033566976
0.016611984512247799511
0.016593684278391258868
0.016572748043835277415
0.016553375966967886351
0.016531635956256483105
0.016512097045743408946
0.016490823133967519309
0.016472166523363983986
0.016451752260236165992
0.016433664235562511075
0.016413713329583606848
0.016396033213785597693
0.016376556714307089618
0.016359345470477258677
0.016340097251552079122
0.016322388560222150095
0.016302083131962599033
0.01628294165592780729
0.016261788760130228837
0.016242896311993614694
0.016223129096921456299
0.016206225385061653887
0.016188271918222349455
0.016172430285527544108