/*--------------------------------*- C++ -*----------------------------------*\
  =========                 |
  \\      /  F ield         | OpenFOAM: The Open Source CFD Toolbox
   \\    /   O peration     | Website:  https://openfoam.org
    \\  /    A nd           | Version:  12
     \\/     M anipulation  |
\*---------------------------------------------------------------------------*/
FoamFile
{
    format      ascii;
    class       volScalarField;
    location    "0.00511";
    object      k_0;
}
// * * * * * * * * * * * * * * * * * * * * * * * * * * * * * * * * * * * * * //

dimensions      [0 2 -2 0 0 0 0];

internalField   nonuniform List<scalar> 
75962
(
4.2002917217417179712e-05
6.1249650862354161162e-05
7.5195241309079950882e-05
8.2110769748095855237e-05
9.3288256738913744059e-05
0.00012241803182663866124
0.00016530352277504742602
0.00019257101900896123102
0.00021044037667450904579
0.00023788255121354190272
0.00028185657291191829792
0.00033215822907471415385
0.00037160144678375831408
0.00040185196899654381008
0.00043836462189356014676
0.00049550322275385941424
0.00056854161615948139129
0.00063087033647689317803
0.00066469315666573068179
0.00068358315693818323764
0.00071664990629904023935
0.00077934794095736910097
0.00085289252916974183077
0.00091543335992137428187
0.00095616669336720397712
0.00098484243594360205976
0.0010293808729252792479
0.0011160699474239822813
0.001243412546294554678
0.0013797147875002594309
0.0014905794669786952018
0.0015697251128411137365
0.0016347171769667153112
0.0016970158688522705807
0.0017494426185897923778
0.0017815651392831968833
0.0017987623333265922131
0.0018200285216704123904
0.0018672611097361486044
0.0019957929936382499438
0.0021634801181299990157
0.0022823511588013303299
0.0023422023943634705245
0.0023889540552238953258
0.0024891076161729906203
0.0028012934229913657308
0.0032841507819779927786
0.0035903921510964994374
0.0037052252443622213547
0.0037181934708893503612
0.0037065434245424949862
0.0036831791776000292679
0.0036772497160528689643
0.0036796191343506910211
0.0036971855702676997835
0.0037753094235005680776
0.0039955313425795837071
0.0041836660308645495787
0.0042664173155311574046
0.0042783242285027731425
0.0042752117798430010545
0.0042910395286221503577
0.0043997470077286908105
0.00466901941975625661
0.0048991203567254016857
0.0050839691153824091707
0.0052365954637340278791
0.0053497746414864445416
0.0054130188557846821776
0.0054428221789150545845
0.0054829685055486042378
0.0055912761089123288669
0.0059757817884456779917
0.0067319101840951139568
0.0072408173054681725447
0.0074479745330731580988
0.0074786756459849137307
0.0074601273639967342205
0.007443916910901285898
0.0074751396092750336392
0.0076850113479846578549
0.0082430684698617529005
0.0086663921714194621509
0.0088626647103619664303
0.0089057663763266060181
0.0089000812955612081112
0.0088976225610350387352
0.0089380321108587044293
0.0090953879534726757294
0.0091783178907822587922
0.0091742376669075760554
0.0090824371629538540318
0.008947095866804958067
0.0089218608273819218629
0.008957812383564578429
0.0091584110121415655131
0.0094352174701754325248
0.0095771513794004371756
0.0096296009091754140863
0.0096424855352778143791
0.009643826912368373
0.009642859494343895832
0.009637488613895763695
0.009615134098071933394
0.0095835897061930623575
0.0095633559598909297084
0.009556214954024595809
0.009557364726037095512
0.0095651454915616634933
0.0096002349467434119901
0.0097242313431588275896
0.009876910969294785958
0.0099821633279431314784
0.010064680746233067854
0.010157475936960270665
0.010278836806243118671
0.010421930557924952154
0.010562835631536197922
0.010675656688358119151
0.010747885785031975614
0.01078535262978492712
0.010809708589022259256
0.010847192307316493726
0.010932017943616159639
0.011121403476212906106
0.0113419255781979679
0.011546818052200317345
0.011713684724762703226
0.011837429816781049052
0.011933235749484105356
0.012026442199098331606
0.012135557817539565501
0.01226597594349963273
0.012408083922232001142
0.012544800629661121902
0.012659678389552106448
0.012744419781386786758
0.012805601146023554149
0.012859118791545838534
0.012926936122278912672
0.013029001242989153228
0.01317456867517999633
0.013359187569602751916
0.013566925494214407757
0.013774566922610436207
0.013960642886575653707
0.014110895440020610261
0.014222004121797082732
0.014300197197459479925
0.014357917857144832097
0.014410995943343609185
0.014473831063768326927
0.014558798889956583653
0.01467090363373590306
0.014808629628787190954
0.014963958157299060356
0.015125914839319671776
0.015281759694802193872
0.015421789194177241977
0.015541461414824687959
0.015639348084653302562
0.015720268753784134852
0.015790988179502384037
0.015859647005749859944
0.015935833669839121612
0.016025433883577303723
0.016133429567982502523
0.016261753235778629578
0.016408211599884679061
0.016568006480128991825
0.016735598814640550297
0.016905067490624432758
0.017069772464465001599
0.017222156015046025807
0.017357198110543564651
0.017472143877830716846
0.01756467015709888696
0.017635950877797471059
0.017688326607640990351
0.017723406442701351848
0.017744556920973160452
0.017755432282735492816
0.017760076869589986465
0.017761704980020710104
0.017762408518875116847
0.017762406677404755234
0.017761191536891693388
0.017754922315031021474
0.016959916332063441208
0.016942283440758439117
0.016925199296265926868
0.016908383115228898391
0.016891740200865732607
0.016875263123228033402
0.016858844205668219868
0.016842597074734334123
0.016826652114352573519
0.01681084233628963448
0.016794481535085618168
0.016777011484346907727
0.016758494982977514137
0.016739547687320978364
0.016720621740040880754
0.016701925412121749331
0.016683580528532939574
0.016665895155034811392
0.016648895708817185862
0.016632347529634345512
0.016615827256422764646
0.016599256736066166085
0.016582570731378993428
0.016565896736489844898
0.016549164904324939473
0.016532697612157261358
0.016516414071618103904
0.016500284041979118577
0.016483569170356714845
0.016466196242080264472
0.016447961833992132824
0.016429562924411101471
0.016410849048920633092
0.016392178145766822528
0.016372862606177471245
0.016353329954602965901
0.016333193996028689404
0.016313384607261387227
0.016293681608723555032
0.016274909541819967962
0.016256358841003439031
0.016238319005551400676
0.016219661281033422029
0.016200803881185613792
0.016181061076579423413
0.016161538285440528451
0.016141773678127087355
0.016123043043470321189
0.016104498625101590359
0.016086974912342438121
0.016068923655134272066
0.016051096004011541907
0.016032357957601606202
0.016014065670139930597
0.015995258456701102329
0.015977251340503737659
0.015959037521767149154
0.01594201972746116247
0.01592485741074448069
0.01590848272053272533
0.015891295413483316756
0.015874461044763640144
0.015856674838475783018
0.015839151331479950358
0.015820512362340354018
0.015802253500633772765
0.015783202074820437688
0.015765028593043375199
0.015746087780538101791
0.015727661927419377824
0.015708008039562147695
0.015688943170918623338
0.015669310692222340742
0.015651139358048141159
0.01563274134213378172
0.015615613086164003426
0.015597618554946122635
0.015580441319533852931
0.015562116478921467558
0.015544585510243324675
0.015526032994978679683
0.015508519052334595115
0.015490231155532318066
0.015473007052972781103
0.0154545772807480504
0.015436551549796747804
0.015416920846822182445
0.015398074402897220236
0.015378741396744523978
0.015361270892282207975
0.015343797579145682097
0.015327751059031065328
0.01531094632062363417
0.015294702942668818302
0.015277260306919988528
0.015260159958602881672
0.015242208770313054808
0.015225284701633380255
0.015208246995243099656
0.015192511411239787572
0.015176142769773946078
0.015160144094156518049
0.015142736778191796115
0.015125635526329620634
0.015107656499663403224
0.015090875796803876474
0.015073737425109581464
0.015057922516593682388
0.015041162829109364779
0.015025064532531830566
0.015007482173789403815
0.014990482454761882083
0.014972119471367777155
0.014954504925127643303
0.01493577869383223497
0.014918143006251572205
0.014899858853394423036
0.014882885787878637543
0.01486526883416317002
0.014848747099151867954
0.014831469366740452145
0.01481515076697120098
0.014798067372230406039
0.014781943948827503191
0.014765144222072403013
0.014749132534328435531
0.014732056821341829936
0.014715041451026629124
0.014696749733801426144
0.014678808719557869672
0.01466044236223082789
0.014643233218775485865
0.014626169062760235873
0.014610295745587415298
0.014594424758703586006
0.014578952872431579293
0.014562828953262474049
0.014546506459187759711
0.014529691229661334181
0.014513234880230469967
0.014496846995775632821
0.014481234399157520351
0.014465480653761436658
0.014450330003434876461
0.014434533153868809446
0.014419165700647681647
0.014402990707120895755
0.014387499070235636525
0.014371451930930203081
0.0143563534511587515
0.014340761742518746621
0.014326119032953728294
0.014310831416572345615
0.014296111268296116462
0.014280564160064132886
0.014265146866470686249
0.01424936945819694871
0.014233789572393008155
0.014218352046695222415
0.014202999553072519212
0.014187513494065495667
0.014172207918776474206
0.014156459541943200095
0.014141681673481473411
0.014126498489121180543
0.014112831579415039546
0.014098755940842918472
0.014085511320051629508
0.014071656997469407513
0.014057511166749353873
0.014042858829427610004
0.014027752867066823825
0.014012318466655081933
0.013997052661515414773
0.013981733216475750181
0.013967151427752849333
0.013953095946379379805
0.013939654871891577273
0.013927071120953204986
0.01391424669928426408
0.013901800345565172579
0.013888299874530220593
0.01387439534856197039
0.01385939299279258588
0.01384478925438837639
0.013829308356857576701
0.013815467035245386149
0.013800766862669188589
0.01378738932886708346
0.013773141401791505478
0.013759666112932559395
0.013745319634728480479
0.013732049618974041805
0.013717513526350540165
0.013704703882410983196
0.013690286718482293921
0.013677961868309574181
0.013663909580273091854
0.013652316948402109728
0.013638774399484618338
0.013627790009319913633
0.013614467622163539326
0.013603250226144187468
0.013588991903960505325
0.013576735063285447561
0.013561767075521013667
0.013549316533658171957
0.013534943257169033265
0.013523469394225582502
0.013509650866181147424
0.013498600121159574916
0.013485058456747875053
0.013474141805482311302
0.013460951498522253506
0.013450511404062566456
0.013437353256074837521
0.013427228765227875243
0.013413916328609488265
0.013403671259138551577
0.01338982179704103874
0.013378998407915360797
0.013364142043769107124
0.013352936228343572495
0.013337784677582653278
0.013326745914088939174
0.013311942442502054315
0.013301237111538161129
0.013287205279565285701
0.013277207848487794853
0.01326411606310326334
0.013254882327456741359
0.013241977717291367189
0.013232708176010129358
0.013219422497272322048
0.013209809002031166342
0.013196134405472547887
0.013185801489378071519
0.013171235695324069043
0.013160202854771851574
0.013144749807012976253
0.01313361461190744664
0.013118340260354651935
0.013107570518713959618
0.013092657206169543843
0.013082754315615709173
0.013068519522159321652
0.013059384422185958338
0.013045989526416484211
0.013037404510520959541
0.013024152262777534753
0.013015507708857948846
0.013002288105245715655
0.012993621693801171366
0.012980160851786872941
3.8939590622169221849e-05
5.7230820261175923509e-05
7.940659136713193152e-05
0.00010050947944240011067
0.00011911956723532452992
0.0001385328279278562856
0.00015970377321325755294
0.0001854110078798593532
0.00022481635573770537622
0.00027346053198528644419
0.00031589272507822415033
0.00034951579682867135431
0.00038606426339971266744
0.00043253933622982768505
0.00048552489651592051038
0.0005447769422975644836
0.00060689217409127453433
0.000655660907037364021
0.00068232715067082026338
0.00070434728586432572475
0.00074786456091965240831
0.00082164971345004560351
0.0009072284668631443302
0.00097854387248533930554
0.0010211688005802646573
0.0010434043950474937955
0.0010690687710006247305
0.0011245351001357023219
0.0012461893069365148103
0.001396032843895677689
0.0015340311377574954513
0.0016401723998102849932
0.0017153959496229130577
0.0017678013061191281442
0.0018018857474595237778
0.0018228468007988817782
0.0018428684346694116855
0.0018809414830904408206
0.0019731069890716003076
0.0021382265231132632256
0.0023054943518025787681
0.0024284867709699511744
0.0024904529698116079604
0.0025297915042475924499
0.0026076242889440143409
0.002844040306643672196
0.0033129220592932996994
0.003648525081089946942
0.0037980462659410827581
0.0038267449583642533864
0.0038222712438284039971
0.003810348544483704511
0.0038092881155905888337
0.003813904835321891857
0.0038355605831475953274
0.0039156502519764272569
0.0041196646334979809476
0.0042956192272743448299
0.004384461522829723179
0.0044055741682517057453
0.0044076322623223373326
0.0044192383882020883426
0.0044920386391899547185
0.0047417475074288421497
0.0050441243181157261258
0.0053031979631371073403
0.0055207656859098813706
0.0056787207688309450371
0.0057650804270613408356
0.0058015024385687837677
0.0058389825505777140022
0.0059351199524019316103
0.0062648155292620464826
0.0068907419713702807926
0.0073228842930029708347
0.0075090884545120648377
0.0075415865452829041957
0.0075356194718892233544
0.0075413046415325731345
0.0076305146999837095839
0.0080636240670285946192
0.0087808618289921050448
0.0092293950059857514379
0.0094164150199194818908
0.0094477675115252242322
0.0094360115039886938854
0.0094343035315135222174
0.0094960900925051047045
0.0097117971788856921611
0.0098192973186089459181
0.0098172309075084101399
0.0097172533849164601655
0.0095567537943270948475
0.0095234957865945289723
0.0095612072378182793447
0.0097828983506598864855
0.010096934063975358115
0.010250507385922256673
0.010300353303018592796
0.010308249126295954828
0.010306749838575391884
0.010300780754552065627
0.0102719437456390561
0.010200265753491224302
0.010148262192185758535
0.010127587105889587424
0.010127280814393520292
0.010142415229724496481
0.010212212114216811382
0.010306968151435291076
0.010358453921852179766
0.010393691927856245003
0.010449675345325964287
0.010553134753068786622
0.010703600764677247484
0.01087488074300344866
0.011032995839621270381
0.011148863496706204121
0.011216290456597742542
0.011250532614197847683
0.011281579931549986368
0.011341204221932884091
0.01145594274455465425
0.011616668532272061629
0.011802771876175097848
0.011987362681825868005
0.012150090332381239394
0.012284371915122795776
0.012399172448870296806
0.012511130183808356203
0.012636676600078628613
0.012783055166031493874
0.01294506160917039024
0.013108274150650203738
0.013254678021482444936
0.013368418051175879474
0.013445287961317791206
0.013494226920538176726
0.013533959622479102905
0.013588830670986967036
0.013680613167264460417
0.013821129218452195275
0.014010684488764808819
0.014235570879246229117
0.014472789339545686499
0.014695966608980546089
0.014882451893062116979
0.015020028170277492999
0.015106851375033165247
0.015153088170702768214
0.015178284591604159978
0.015204594835354702173
0.015256204378817970688
0.015364586186493413983
0.015510724553114181232
0.015679729215456333219
0.015856287078566129456
0.016026242010444717578
0.016179226443971548438
0.016310712721244385176
0.016419359027901845455
0.016510421329837040444
0.016591076882377573526
0.016670203820070506051
0.016757525199121284243
0.016859047913548995401
0.016980298597402552346
0.017122666474864486202
0.017283299939140805285
0.017456738497349476996
0.017637373824231861175
0.01781908972033401789
0.017994191549894050092
0.018155205751442339557
0.018297440634295124989
0.018418706049105219857
0.018516457702283436321
0.018592137244730903844
0.01864799754370029608
0.018685203259391047759
0.018707660971590472226
0.018719030619193752912
0.018723712593882651384
0.018725120313626272134
0.018725034314301211569
0.018724159260789734194
0.018720772994752138407
0.018707642337391978959
0.018669007120859282267
0.017872811033799899244
0.017853289912860191568
0.017834763022761480206
0.017817076560170959365
0.017799743318647556073
0.017782363300553855057
0.017764893370359451791
0.017747585828573275712
0.017730578845265011073
0.017713705195757926958
0.017696531077290619804
0.017678589758251907205
0.017659626045616324402
0.017639803459791623952
0.017619638017822628756
0.017599690006288744998
0.017580319992181271671
0.017561648046619568464
0.017543582032937710125
0.017525752220852407887
0.017507835449877180017
0.017489652910222776988
0.017471426180799894123
0.017453084041508644397
0.017434713318701899193
0.017416190425107364037
0.017398049351913150162
0.01738027904414183103
0.017362934143424199607
0.017345248510381126861
0.017327231256564372408
0.017308653285651190434
0.017290007677071384667
0.017270977037671123022
0.017251688543518002572
0.01723157510713126811
0.01721091097732952574
0.017189495224686220098
0.01716819187943713354
0.017147123048136633794
0.01712705200311055373
0.017107415715180297744
0.017088205688279022726
0.017068552388014159721
0.017048770080180786907
0.017028609638111206342
0.017008796189313273028
0.016989030978555346579
0.016969906204251161003
0.016950834062916083494
0.016932246556579984981
0.016913248056002590236
0.016894273851497599442
0.016874619220321126351
0.01685504118074111074
0.0168350910712494993
0.01681576374720735248
0.016796684810179721148
0.016778639698805705716
0.016760608232493375003
0.016742958960619943459
0.016724813753209957778
0.016706895232589502598
0.016688462036930192672
0.01666994418648552051
0.016650600916549542635
0.016631305190653491999
0.016611637857790489958
0.016592333160805612657
0.016572479856225369454
0.016552566151673258482
0.016532088999461295314
0.016512061405777263973
0.016492303854850638017
0.016473498685122336949
0.016454915036734771988
0.016436731524114372993
0.01641811510651240355
0.016399425620860774711
0.016380225815842471698
0.016361209474343264142
0.016342130325784909317
0.016323545944559949422
0.016304998649845879599
0.016286599746455913268
0.016267664017938780058
0.016248154687207038566
0.016227798096587309207
0.016207426580478152128
0.016187470787529686239
0.016168766632464168925
0.016150890161893562136
0.016133709915560554005
0.016116406667301561018
0.016098979997525145191
0.016081030694608616782
0.016062731301458035849
0.016044050451547189201
0.016025543008269749201
0.016007528535948781917
0.015990277176049359775
0.01597323667701307931
0.015955987056265632379
0.015937991009639145695
0.015919628833229629294
0.015901193748154299895
0.015883353354282581799
0.015866100181244374712
0.015849428313615666897
0.015832696916613438198
0.015815729162228345933
0.015797993604941600043
0.015779906373378862344
0.01576116700202539328
0.01574221343968720474
0.015722807588526101219
0.015703450753514425209
0.015684212852245686676
0.015665481040918409483
0.015647054061712312861
0.015628937597253547698
0.015610944862683441905
0.015593077841694275368
0.015575376237748878028
0.01555790101729369844
0.015540672093068771606
0.015523496206629544547
0.015505998468505970134
0.015487757246792620627
0.0154688656362438684
0.015449592380071899139
0.015430688062755618106
0.01541245562580205973
0.015395228154793621014
0.015378614052024969922
0.015362557489785174866
0.015346106474699116803
0.015329443207442292399
0.015311897584445722381
0.015294307873085204869
0.015276450713007226623
0.015259173798659042554
0.01524214781775387606
0.015225804231942889275
0.015209651255773405307
0.015193619009096279507
0.015177343535730416016
0.01516072773876067474
0.015143958975392031799
0.015127271818281216517
0.015110801942025037931
0.015094565479299743016
0.015078381264777212384
0.015062312203460210061
0.015045983771496403841
0.015029815008382364436
0.015013067535535854977
0.014996764849114723947
0.014980003058680859199
0.0149640829574830235
0.014947754729003427665
0.014931975311173758744
0.014915800792915200404
0.014899797975123965296
0.014884008749861638715
0.014868411118311738658
0.014853430925181123484
0.014838723434756801584
0.014824193349313037962
0.014809962605410537106
0.014794929973348020305
0.014780219348539284929
0.014764259608475483604
0.014748607188494683787
0.014732192842225004872
0.014716408751414000733
0.014700566722451990573
0.014686005672124465699
0.014671492781179967455
0.014658615814356778032
0.014644854923311191944
0.014632168850855487713
0.014617490554356538449
0.014603186084435183442
0.014586859194366886064
0.014571720346442142147
0.014555010292800577357
0.014540587298571132011
0.014524715688516319154
0.014510942289353033485
0.014495818323150302248
0.014482175414928383228
0.014466980373230565321
0.01445349427881317296
0.014437861653301579251
0.014424566032807164748
0.014408919052363279578
0.014395902888204921422
0.014380450458506409406
0.014368018177159864665
0.01435297782057551666
0.014341278482699148719
0.014326627160510408548
0.014315015228499546052
0.014299879539842443033
0.014287432670653662029
0.014271623233842574419
0.014258975128869347607
0.014243582114170276823
0.014231660802558377538
0.014216740739566460436
0.014205119827961446358
0.014190418510797601914
0.014178844419060403909
0.014164422833405698049
0.014153216457876271334
0.014138665489952340765
0.014127670941201942931
0.01411283993039674084
0.014101830322439357426
0.014086669045098079364
0.01407519683950952602
0.014059331204205475011
0.014047670848840581106
0.014031493960200237814
0.014019970593206042969
0.014004148989001201364
0.013993065249740411354
0.013977939889525654513
0.013967675202948524882
0.013953583390265216282
0.013943951082278594963
0.01393010144041065615
0.01392048734433098435
0.0139063740502915964
0.013896514274260999763
0.01388200821416575928
0.013871449463023073981
0.013855843460709208262
0.013844298860285528252
0.01382773096291910718
0.013815856495734218923
0.013799164665728884394
0.013787615278183291967
0.01377113757246988153
0.013760278569087054309
0.013744489834274268084
0.01373451197873638667
0.013719747329663451937
0.013710276420459414221
0.013695735022005122231
0.013686254907408284057
0.013671567699222413397
0.013661917190007557416
0.013647017753490654421
4.2301190555187250734e-05
5.8713741852556136159e-05
7.5799001452895729998e-05
9.3448627680465428183e-05
0.00011748099380862077193
0.00014260504380063693968
0.00016598358991630108336
0.00019402025097189698065
0.00023754485511121693027
0.00028891140303565876046
0.0003308635244135952648
0.00036173107541995729031
0.00039649066445852356941
0.00044719904865604410407
0.00050805302639898733495
0.0005719993784757801316
0.00063504548346313800192
0.00068381455265979611009
0.00071056752206843769044
0.00073219686135774604205
0.00077603200499721494872
0.00085153761601958145779
0.00093513566085959190077
0.00099985033855287111168
0.001037140897319674274
0.0010661445086303246964
0.0011182940100813016076
0.0012292314811534412085
0.0013951303111256392088
0.0015762138300332224124
0.0017241588604597582902
0.0018108670728615894503
0.0018426005341354260037
0.0018485493268992566913
0.0018548776058081042038
0.0018706989791142083959
0.0019102425703444549706
0.0020080926691487311665
0.0021428815455343174987
0.0022821539476961393185
0.0024014569486286844492
0.0024794032098730579838
0.0025191077553311648322
0.0025576434029961066068
0.0026441338251176741726
0.0029130020520777046011
0.0033496737367998295418
0.0036480201058306837084
0.0037803253043963789409
0.0038112452564809354456
0.0038173042868035415159
0.0038315756307397120205
0.003876166586013274698
0.0039707372610783327888
0.0040913919564242130431
0.0042283841863095849092
0.0043581665847325212065
0.0044501217292099012543
0.004490352724426960665
0.0044973617515666249739
0.0045016622531369333143
0.0045310050271490055415
0.0046775884217989498193
0.0050729172207572758788
0.0054392194708754223326
0.005710475519492735734
0.005898720763465131918
0.0060094517427062262363
0.0060584569650042633879
0.0060839517869329586691
0.0061333275660061699341
0.0062929992581622828593
0.0068591865316318511442
0.0075470602790722518191
0.007891919129933366861
0.0079742109889656583033
0.0079592305672174495229
0.0078956308722744443507
0.0078870433479336279209
0.0079654965891944960049
0.0083978682109150624979
0.0091967370161488929542
0.0096988224421696387495
0.0099064648869052022995
0.0099399197621259770957
0.0099285901159095104468
0.0099322282940353997377
0.010036820046235716761
0.010355919816046508034
0.010507374983966009246
0.010508486636436602246
0.010393721403879081083
0.010162321485748745248
0.010089055005063461354
0.010099917829798337604
0.010207465119311124116
0.010455073068416274873
0.010630533916814415354
0.010757808446483614617
0.010860404488913205645
0.010936812891509136228
0.010979008272756975162
0.010989761473761938335
0.010983566701367623863
0.010934672325413391861
0.010828883691778770637
0.010770959436654297878
0.010755741560310602689
0.010758818716134000912
0.010782915994418329486
0.010883039162132786964
0.011026815872020820711
0.011114143558376978274
0.011157846790425366562
0.011188135957821533986
0.011239154567475878252
0.01136042282807433676
0.011558867539441543965
0.01175300330331561019
0.011917520873696098999
0.012049407606421839653
0.012164371679538684215
0.012280038114307303271
0.012406009819421632071
0.012540404999440375733
0.01267539784347503258
0.01280139692691678252
0.012917124671296761548
0.013027018452122224659
0.013140183621026516395
0.013266490361349197666
0.01341383106685632709
0.013580675933667232455
0.013757478436319558676
0.013930971974707053243
0.014089455442602547355
0.01422766325458662065
0.014346647501447908069
0.014456138821294770361
0.014568460676453631047
0.014693693939543919086
0.014835814763317200365
0.014990883207409388261
0.015149294266146647037
0.015302869064704167565
0.015440039638066654221
0.015557723447011159723
0.015656252976160089235
0.015742583029228693348
0.015828076035346111405
0.015926032909989416841
0.016048039074445352714
0.016198303199492471854
0.016374112298567531504
0.016563741416671367429
0.01675339074981734358
0.016930430661657381447
0.01708450538880690317
0.017211769969617516512
0.017314006972749176189
0.017396422362113184851
0.017465406807292121333
0.017530698616543802931
0.017600807583509965604
0.017682615248145024112
0.017782225251861714238
0.017901669143863766648
0.018041271657065618278
0.018198895154414296976
0.018369538699946227206
0.01854592149585760838
0.018722718558834540448
0.018894114444770893774
0.019054936274138324637
0.019199969653767127997
0.019327395907835234756
0.01943721213429038322
0.019529436181874734735
0.019603396146772662095
0.019661090264981848086
0.019703546562101142275
0.019731149188628255287
0.019747643306783375233
0.019756055754816655157
0.01975995127660941722
0.019760789740947765775
0.019759950574289333186
0.019755732837639219945
0.019738906625307913595
0.018819713701866382788
0.018799476801043737278
0.018780223266313959135
0.018761937296797343011
0.018743956478236588337
0.018725694497672137201
0.018707228914846080192
0.018689022488527606836
0.01867108754906038684
0.018652988267231215141
0.018634239558012393595
0.018614714126658750415
0.018594442061999501975
0.01857366735186901166
0.018552681124313477601
0.018532048997194645185
0.018512073584863068115
0.018493013986988954961
0.018474322712526667495
0.018455548040112897817
0.018435935726730984935
0.018415885272858849991
0.018395387407662562584
0.018374989910897761292
0.018354159184758571388
0.018333564471993604034
0.018313119017461652882
0.018293631353604733469
0.018274277483353095625
0.018255339567534452361
0.018236186496125749573
0.018217550488778218309
0.018198554538599760744
0.018179406675281263583
0.01815899292390641892
0.018138037562397381353
0.018115855345982485869
0.018093589076613011274
0.018070716216275338473
0.018048690340622289968
0.018026827667446568976
0.018006060310625328358
0.017985065797977744378
0.017964633506096252397
0.017943730918478936753
0.01792360729147981363
0.017903251669399832674
0.017883786753601377956
0.01786379287768061902
0.017844428047955829264
0.017824222847885470844
0.017804573830103639226
0.017783895705507774682
0.017763645629058692071
0.017742191156781928624
0.01772146471577896315
0.017700290546698096983
0.017680854651202421168
0.017661311208210964813
0.017642969522790243053
0.01762355527905450428
0.017604950361166663703
0.01758538573136072744
0.017566646708396315563
0.017546414077668430476
0.017526590121102338105
0.01750551808723421407
0.017485538944640624526
0.017464440597556332019
0.017444025514805970578
0.017422137203017575707
0.017401369134349538303
0.017380009766880619854
0.017360491479729952408
0.017340401227747756496
0.017321870894529838719
0.017302115626804139698
0.017283356627205117423
0.017262811976393149793
0.017243193562108408839
0.017222278853221684863
0.017202973874822530265
0.01718266862979505108
0.017163879165969279927
0.017143550495232577624
0.017124302952239458392
0.017103075710035962886
0.017082768508243313665
0.017060860486296708372
0.01704087798960082778
0.01702030734451895691
0.01700215595858929965
0.016982966343414136051
0.016965406616067622847
0.016946173042105064366
0.016928176516814469332
0.016908237420594843248
0.016889376903030051125
0.01686881396257429791
0.016850259844316629876
0.016830745948788659871
0.016813385036690643715
0.016794097801262924952
0.016775992552521538925
0.016755659424973468746
0.016737302487522809358
0.016717707335039976718
0.016700884246405939965
0.016682716978683977821
0.016666670522919965758
0.016648317481579247984
0.016631281801771424789
0.016611545550404338556
0.016593224629649315494
0.016572271572480826163
0.016552889507543060849
0.01653114734494936372
0.016511613110303708513
0.016490348781357907354
0.01647170478170499261
0.016451304841283515001
0.016433232477096076929
0.016413296918346777925
0.016395629517297758554
0.016376160325658896399
0.016358949223568269166
0.016339692844129602434
0.016321970428354971167
0.016301650124573571071
0.01628249878930511374
0.016261345040315185184
0.01624246141549381961
0.016222708828452978708
0.016205819800999061997
0.016187876193632586008
0.016172036701029124384
0.016154055618834657626