/*--------------------------------*- C++ -*----------------------------------*\
  =========                 |
  \\      /  F ield         | OpenFOAM: The Open Source CFD Toolbox
   \\    /   O peration     | Website:  https://openfoam.org
    \\  /    A nd           | Version:  12
     \\/     M anipulation  |
\*---------------------------------------------------------------------------*/
FoamFile
{
    format      ascii;
    class       volScalarField;
    location    "0.00511";
    object      pPrime2Mean;
}
// * * * * * * * * * * * * * * * * * * * * * * * * * * * * * * * * * * * * * //

dimensions      [2 -2 -4 0 0 0 0];

internalField   nonuniform List<scalar> 
75962
(
1106886.2597274780273
1086947.3930282592773
1078148.6758365631104
1071729.526496887207
1066468.4619541168213
1061646.0288848876953
1056862.9698219299316
1051998.2480869293213
1047086.9129028320312
1042204.713357925415
1037371.5775299072266
1032676.1885814666748
1028099.0312404632568
1023525.5127334594727
1018967.3267345428467
1014527.4078998565674
1010247.8222808837891
1006093.8243923187256
1001982.0943584442139
997873.91190147399902
993794.89672660827637
989784.73648071289062
985898.32183647155762
982155.71944808959961
978616.5884952545166
975347.33519744873047
972358.59088706970215
969652.679443359375
967233.60488510131836
965071.05658340454102
963127.8690128326416
961384.2241382598877
959816.89318084716797
958366.85457038879395
956972.79208946228027
955598.6403923034668
954236.37351417541504
952885.75200462341309
951540.30025482177734
950183.3121452331543
948800.27204895019531
947379.6895751953125
945905.47187995910645
944357.7155704498291
942715.97575187683105
940958.95292663574219
939075.03051376342773
937059.7630672454834
934919.45512008666992
932646.94627571105957
930231.9588508605957
927675.97843742370605
924978.63486480712891
922134.65610122680664
919162.8336181640625
916095.59403800964355
912965.60360717773438
909799.58663749694824
906618.9493522644043
903453.92889404296875
900345.57160568237305
897330.84861755371094
894425.59253311157227
891618.88096237182617
888891.7986011505127
886239.75483703613281
883662.99151039123535
881148.26377105712891
878673.55539131164551
876215.96323013305664
873767.83588027954102
871328.7454719543457
868887.6099739074707
866426.5637321472168
863935.44320678710938
861415.86363220214844
858869.76787185668945
856293.29320907592773
853678.74993133544922
851013.72661781311035
848289.50447082519531
845515.13929557800293
842717.62539291381836
839925.65425109863281
837161.82794380187988
834439.59800720214844
831754.65301322937012
829097.2243595123291
826468.86357116699219
823886.92567443847656
821372.60842895507812
818934.38422966003418
816566.1496753692627
814257.81459617614746
812009.93230819702148
809834.91726303100586
807739.14916038513184
805710.48235321044922
803719.85072898864746
801735.69805908203125
799741.15752029418945
797742.55646324157715
795757.54229354858398
793796.1183032989502
791852.85319328308105
789916.74527549743652
787978.27353858947754
786023.55358123779297
784031.6945686340332
781982.2545223236084
779863.74258613586426
777678.7611141204834
775439.23725128173828
773153.91987419128418
770820.65671730041504
768433.10781288146973
765991.76829528808594
763501.97599411010742
760962.26482582092285
758358.69477462768555
755673.11813354492188
752897.02013397216797
750041.85729598999023
747132.94440841674805
744192.84909057617188
741234.63664436340332
738269.23320198059082
735308.69883155822754
732365.15585136413574
729453.20084381103516
726589.18476295471191
723786.47907066345215
721051.52990531921387
718382.73199081420898
715774.00316047668457
713221.80146598815918
710727.5375862121582
708294.92727088928223
705927.76154327392578
703628.16339111328125
701395.35164451599121
699225.41622924804688
697110.95607566833496
695037.55697250366211
692984.90511894226074
690934.95343208312988
688879.66101837158203
686821.70627403259277
684766.37829208374023
682710.96651458740234
680640.63589477539062
678534.18256187438965
676375.79676628112793
674162.65476989746094
671902.10250473022461
669603.93293380737305
667276.25777053833008
664925.28759002685547
662556.12775993347168
660169.64055252075195
657755.60260009765625
655295.45539283752441
652777.08244705200195
650205.997802734375
647600.16591453552246
644974.21170997619629
642330.37564277648926
639662.3647289276123
636968.64064407348633
634260.6724796295166
631557.10197067260742
628871.62713432312012
626210.52248001098633
623578.41504669189453
620979.79934120178223
618416.54893112182617
615888.73830223083496
613397.19756889343262
610942.44789505004883
608523.80624198913574
606141.44852256774902
603799.26201438903809
601505.82880592346191
599271.06257629394531
597099.79194450378418
594987.30836486816406
592922.48816680908203
590895.89086532592773
518789.67777442932129
517007.09887886047363
515218.6740665435791
513424.5247859954834
511624.36760520935059
509819.26745414733887
508010.39151191711426
506196.17479705810547
504372.90675926208496
502538.72892951965332
500696.26340484619141
498850.09814071655273
497003.17600059509277
495155.86334800720215
493306.83495330810547
491452.97866821289062
489589.26233100891113
487711.14593505859375
485818.26571083068848
483915.73307037353516
482011.82363510131836
480113.27025604248047
478220.62916946411133
476327.04143333435059
474422.80440711975098
472503.14018821716309
470571.86188125610352
468637.35055923461914
466706.45121955871582
464782.70619010925293
462868.90191078186035
460968.96856117248535
459088.23614501953125
457234.42216682434082
455418.23414421081543
453650.64828109741211
451937.62152862548828
450276.5078010559082
448656.03018951416016
447060.21992683410645
445475.01021766662598
443893.87343406677246
442319.08897972106934
440758.14677619934082
439218.36234474182129
437702.91237640380859
436210.01517868041992
434735.5833625793457
433277.62667465209961
431838.91886138916016
430425.12063407897949
429040.4633903503418
427685.59784126281738
426358.55547523498535
425056.25662422180176
423774.1510066986084
422505.35433578491211
421242.08334541320801
419978.95964431762695
418715.31017303466797
417453.99503135681152
416197.44990539550781
414944.11892700195312
413687.69307899475098
412419.79539489746094
411134.12607002258301
409828.99887657165527
408506.53961563110352
407169.30986976623535
405817.98019027709961
404451.88591957092285
403069.91211700439453
401669.82056427001953
400247.74667739868164
398800.10493850708008
397326.95784378051758
395833.18557929992676
394325.49900054931641
392807.90925407409668
391280.24722671508789
389740.42797088623047
388186.58951377868652
386616.31697463989258
385025.07845687866211
383407.14913749694824
381758.86997032165527
380080.98415756225586
378378.44828414916992
376658.82481575012207
374930.09846878051758
373198.52462387084961
371467.3508472442627
369737.05624961853027
368006.73220062255859
366275.49709892272949
364543.26767921447754
362810.33169746398926
361076.84577751159668
359343.80521965026855
357615.22408676147461
355898.64499282836914
354202.33309936523438
352531.76925086975098
350888.45166397094727
349270.72958374023438
347674.79876518249512
346095.96727752685547
344530.37709426879883
342975.8036060333252
341430.58069229125977
339892.28494834899902
338358.9051685333252
336831.54109191894531
335315.00643348693848
333814.53914642333984
332331.72201728820801
330863.44815635681152
329404.96563339233398
327954.68729591369629
326516.60723304748535
325097.75687217712402
323702.70722198486328
322330.23589897155762
320974.6632251739502
319629.8985424041748
318292.10130310058594
316959.16931915283203
315628.83244895935059
314298.12899017333984
312964.91862487792969
311629.84121131896973
310296.20114517211914
308967.47712707519531
307644.78167343139648
306325.99010848999023
305006.67661666870117
303681.39843368530273
302344.31126594543457
300989.22513198852539
299610.37373733520508
298204.46715354919434
296772.76140975952148
295321.80938339233398
293861.55448150634766
292401.4564266204834
290946.57810401916504
289496.00476455688477
288044.61972618103027
286586.49052429199219
285117.04673767089844
283633.26415634155273
282132.73361587524414
280613.60670852661133
279075.64719200134277
277521.05063438415527
275953.76068878173828
274377.77589797973633
272796.20040130615234
271211.65882110595703
269627.36261558532715
268047.69945335388184
266477.85929107666016
264922.6379566192627
263385.02749443054199
261865.43448448181152
260362.33037185668945
258873.92673301696777
257399.6426944732666
255940.25651359558105
254496.84902381896973
253069.8189582824707
251659.07826042175293
250265.0354061126709
248889.26295471191406
247534.35837554931641
246203.35688400268555
244899.09628105163574
243623.49395370483398
242377.32793426513672
241160.96604347229004
239975.54140663146973
238823.01918411254883
237704.45131683349609
236617.81099700927734
235557.31066513061523
234515.05208969116211
233483.9798583984375
232460.35199928283691
231444.38369560241699
230438.90185737609863
229446.8471851348877
228469.21364402770996
227504.78851509094238
226551.46042633056641
225607.71487617492676
224672.99844360351562
223747.15998077392578
222830.0893383026123
221921.9025936126709
221023.06837844848633
220133.97167778015137
219254.29607200622559
218382.81826019287109
217517.47646522521973
216655.3754711151123
215792.74621391296387
214925.30349922180176
214049.1656551361084
213161.54705619812012
212260.39678001403809
211343.36299896240234
210407.66299438476562
209451.41860580444336
208475.39736557006836
207483.10016441345215
206478.57551002502441
205463.60692977905273
204436.61551856994629
203394.07723045349121
202333.27173805236816
201254.31162643432617
200160.52893257141113
199057.6647891998291
197952.76738357543945
196853.24522590637207
195765.88395309448242
194695.83108139038086
193645.68837738037109
192615.04061126708984
191600.66227340698242
190597.83106422424316
189602.61116790771484
188614.14977264404297
187635.49233436584473
186672.1100959777832
185729.25638771057129
184810.11899948120117
183915.85771369934082
183046.98289680480957
182204.42231750488281
181389.44922256469727
180603.12973403930664
179846.3630313873291
179120.62328910827637
178428.53153610229492
177773.34300231933594
177157.89142417907715
176583.96343994140625
176052.58563041687012
175564.65714263916016
175121.05564498901367
174721.98236274719238
174366.25319480895996
174050.99506187438965
1129081.3452911376953
1101703.2432899475098
1089083.0474472045898
1079818.9965038299561
1072757.730167388916
1066868.9775295257568
1061440.7618770599365
1056190.767147064209
1050962.2746028900146
1045689.6150417327881
1040318.6013431549072
1034900.1464805603027
1029533.5903034210205
1024312.6284503936768
1019290.9120559692383
1014515.698091506958
1009999.2356185913086
1005715.7752876281738
1001636.8332672119141
997714.84310150146484
993906.5038890838623
990186.15764427185059
986546.17564392089844
982985.45522499084473
979539.61823081970215
976268.0539379119873
973193.23120498657227
970330.92705154418945
967715.92090225219727
965364.45395088195801
963276.6597957611084
961445.0344409942627
959840.84544372558594
958409.88216590881348
957077.26393127441406
955792.55987930297852
954530.67671775817871
953256.31399726867676
951938.6893367767334
950562.61809158325195
949115.2585506439209
947584.43710327148438
945954.19695854187012
944223.90257835388184
942394.01074981689453
940456.29582214355469
938402.22844314575195
936231.02616310119629
933947.2956714630127
931551.77269172668457
929041.59016036987305
926415.05492782592773
923677.20999908447266
920827.4415225982666
917869.47677421569824
914819.48309326171875
911699.17087364196777
908530.05509376525879
905339.18798828125
902168.24654579162598
899070.79789733886719
896091.45284843444824
893247.55487823486328
890524.47927284240723
887900.0010814666748
885361.60275459289551
882903.9670581817627
880510.17223167419434
878154.95799446105957
875812.38431167602539
873472.30819702148438
871132.88834381103516
868784.1082935333252
866412.79139137268066
864014.52301979064941
861591.77016448974609
859145.19219779968262
856664.08972549438477
854134.22962760925293
851542.04768562316895
848879.02030372619629
846156.90807914733887
843408.40949821472168
840667.4652099609375
837950.19711875915527
835257.56720352172852
832582.18182563781738
829923.3029727935791
827293.84077072143555
824714.70613098144531
822201.35723876953125
819756.0648365020752
817368.36216354370117
815025.24759483337402
812724.4410572052002
810477.5419750213623
808295.68506240844727
806172.04556655883789
804082.52169990539551
801997.84988021850586
799898.45418167114258
797787.10074996948242
795681.99202728271484
793596.53668403625488
791531.31371307373047
789479.49256134033203
787432.85933876037598
785378.74497604370117
783298.25995445251465
781173.50470352172852
778994.22575187683105
776760.09468078613281
774478.86995887756348
772155.73339080810547
769788.3875675201416
767376.66175270080566
764928.05246925354004
762448.01073455810547
759926.76263999938965
757342.13849830627441
754672.51607131958008
751909.52570915222168
749063.08055877685547
746158.09491348266602
743219.8451042175293
740262.23822975158691
737291.35261535644531
734313.94030380249023
731340.55613708496094
728386.43076515197754
725471.61826324462891
722616.21157073974609
719832.32775688171387
717118.88027763366699
714467.03505325317383
711872.40263748168945
709338.97945022583008
706873.7054271697998
704480.77573394775391
702161.37932205200195
699914.66699028015137
697738.16656303405762
695625.63105773925781
693559.24555587768555
691510.40566444396973
689455.53638648986816
687390.58880233764648
685328.45988464355469
683283.19766998291016
681253.75288963317871
679221.28518104553223
677159.54039573669434
675048.70955467224121
672883.96220016479492
670671.50050163269043
668420.07574462890625
666138.18851852416992
663835.17414474487305
661519.22144317626953
659190.8641471862793
656838.10674095153809
654443.34895133972168
651997.66490936279297
649506.72713470458984
646984.66009902954102
644443.0124626159668
641882.52376174926758
639294.15708541870117
636669.68517303466797
634013.9593620300293
631345.48201751708984
628685.32549667358398
626049.07220268249512
623446.35713386535645
620880.19719314575195
618345.92318534851074
615837.69569206237793
613356.09947967529297
610906.26520347595215
608492.11108589172363
606116.22677612304688
603781.8375301361084
601492.87628364562988
599253.63185882568359
597066.81711578369141
594930.21623039245605
592836.93416213989258
590781.41634368896484
588763.06804084777832
520672.37135314941406
518875.28594207763672
517071.81653022766113
515263.02514266967773
513447.93429565429688
511625.8441219329834
509799.02128982543945
507970.55783462524414
506139.23212432861328
504299.28876113891602
502446.32051277160645
500581.61992263793945
498710.70231628417969
496838.8056812286377
494968.43189811706543
493099.04336166381836
491226.97762298583984
489346.21063995361328
487451.4671573638916
485542.54207992553711
483625.65060234069824
481710.13674545288086
479802.89280128479004
477903.7575798034668
476004.80047225952148
474094.85042953491211
472167.1688175201416
470224.15105438232422
468274.31036758422852
466325.61055755615234
464382.81528663635254
462449.32175827026367
460528.73806381225586
458625.88855361938477
456749.34537696838379
454912.57837295532227
453129.31336402893066
451405.55738639831543
449735.37027931213379
448103.72549819946289
446493.38501930236816
444891.70107841491699
443294.66588020324707
441706.40808296203613
440134.88803482055664
438586.80068206787109
437064.56871032714844
435566.13051223754883
434087.2529411315918
432625.40034675598145
431182.26658058166504
429763.39915084838867
428375.82495307922363
427024.76169776916504
425711.38527297973633
424432.0102424621582
423178.78269386291504
421941.58806610107422
420710.92627906799316
419480.35990715026855
418247.29599952697754
417012.14104270935059
415776.31018257141113
414539.72830200195312
413298.83531951904297
412046.98033714294434
410777.55785179138184
409487.50399780273438
408178.31312942504883
406853.419921875
405515.06703948974609
404163.55096054077148
402798.38652229309082
401418.13005447387695
400018.75377082824707
398594.57061004638672
397142.6414737701416
395665.87860870361328
394170.45682716369629
392660.53952789306641
391136.31671333312988
389596.37972831726074
388039.51328468322754
386463.13289260864258
384861.70212554931641
383228.67365264892578
381560.53009796142578
379859.13844871520996
378131.00352096557617
376385.21489334106445
374631.05494499206543
372875.52352714538574
371121.14656257629395
369366.34215927124023
367608.64092636108398
365848.11551856994629
364087.64013862609863
362329.98437881469727
360575.47629928588867
358823.33163261413574
357075.49076080322266
355338.48577117919922
353621.26679229736328
351931.26935577392578
350271.92351913452148
348642.22042083740234
347037.88796424865723
345453.86822700500488
343887.08390235900879
342336.85685920715332
340802.33672714233398
339280.46854400634766
337767.34256553649902
336261.79467391967773
334766.99379539489746
333287.85951805114746
331826.87739372253418
330382.22109413146973
328949.94093894958496
327528.53022766113281
326121.48642349243164
324735.11921501159668
323373.36009788513184
322034.55271911621094
320712.85910415649414
319401.96414375305176
318097.2618236541748
316795.17027473449707
315491.76334953308105
314183.3768196105957
312868.97107887268066
311551.61409378051758
310237.04232025146484
308930.28833961486816
307632.61547660827637
306340.77446746826172
305048.26099395751953
303747.3253231048584
302430.65793609619141
301092.24501037597656
299727.82400894165039
298335.65011596679688
296917.71674346923828
295480.04826354980469
294031.1540699005127
292578.73599815368652
291126.67757225036621
289674.41741180419922
288218.90955543518066
286757.07796478271484
285286.70209693908691
283805.52623748779297
282310.5236701965332
280798.73733139038086
279269.09523582458496
277723.32186698913574
276164.91156959533691
274597.31528854370117
273023.23701095581055
271445.28313446044922
269866.78636360168457
268292.01485824584961
266725.68716812133789
265171.91341209411621
263633.19079399108887
262110.19371223449707
260602.59527587890625
259110.23744773864746
257633.53135871887207
256173.02579498291016
254728.71206092834473
253300.0599536895752
251886.81398582458496
250489.73225593566895
249110.53794288635254
247751.32508277893066
246414.24214935302734
245101.46749305725098
243814.99516105651855
242556.30128860473633
241326.65191459655762
240127.73867607116699
238961.62397575378418
237829.4477596282959
236729.59436225891113
235656.96969985961914
234604.12934112548828
233563.78960227966309
232531.33115768432617
231506.09854316711426
230490.80382537841797
229489.18587493896484
228503.48117065429688
227533.34213829040527
226576.81075286865234
225632.07008361816406
224698.43196296691895
223776.05889892578125
222865.13006591796875
221965.44148254394531
221076.51022720336914
220197.75145721435547
219328.49628257751465
218467.88830947875977
217614.53685188293457
216765.80026245117188
215917.19634628295898
215062.95764350891113
214197.80597496032715
213318.46977806091309
212423.63119506835938
211512.49863433837891
210583.74019432067871
209636.15215301513672
208670.26389694213867
207688.89363098144531
206695.47448539733887
205691.25015640258789
204674.02364730834961
203639.58420372009277
202584.62150573730469
201509.11947059631348
200416.59683609008789
199312.68965148925781
198203.7203426361084
197096.31163597106934
195997.64242172241211
194915.03657913208008
193854.24650192260742
192816.96493339538574
191799.63261413574219
190795.14049339294434
189796.87588119506836
188802.40478324890137
187814.57693099975586
186839.571044921875
185883.68417930603027
184951.26006698608398
184044.6358699798584
183165.21681594848633
182314.16472625732422
181492.11968231201172
180698.69273948669434
179932.87589645385742
179194.53177452087402
178485.71900367736816
177810.6619701385498
177174.18170738220215
176580.05441665649414
176030.59293556213379
175527.32998275756836
175071.65941429138184
174664.60984992980957
174305.72375679016113
173991.9798469543457
1100155.4678153991699
1085388.6597919464111
1078342.7501487731934
1072033.8933639526367
1066458.8337268829346
1061342.7679405212402
1056663.5887355804443
1052223.0348033905029
1047801.5078830718994
1043271.8571262359619
1038554.4156303405762
1033592.3426971435547
1028429.6691970825195
1023233.6130466461182
1018116.9269180297852
1013173.2139415740967
1008504.2521419525146
1004137.8275604248047
1000042.9089050292969
996188.39910697937012
992553.43952751159668
989086.25693702697754
985739.36703681945801
982510.21295738220215
979372.39717292785645
976328.98830413818359
973394.93624496459961
970588.98855781555176
967948.89387512207031
965518.64127922058105
963334.9056510925293
961413.23024559020996
959732.89282035827637
958233.69844436645508
956851.13778495788574
955550.3493537902832
954314.93970489501953
953103.94333076477051
951861.69751739501953
950544.61769866943359
949131.10579109191895
947604.60698699951172
945946.69295310974121
944156.12928581237793
942239.94364929199219
940191.57157707214355
938008.06803703308105
935702.00390625
933284.35937118530273
930757.04413223266602
928125.57676887512207
925397.02041435241699
922580.11691093444824
919683.77123260498047
916710.29850006103516
913661.77201652526855
910545.72327423095703
907375.84129524230957
904179.90652275085449
901010.9881706237793
897924.77201652526855
894960.67909812927246
892132.24031257629395
889429.6704158782959
886832.50865364074707
884327.27270317077637
881907.86076545715332
879561.82935523986816
877265.12780952453613
874990.73944664001465
872721.89511489868164
870454.00503730773926
868183.56610298156738
865904.33286094665527
863616.313232421875
861320.93716812133789
859010.14828872680664
856667.75770568847656
854269.90210151672363
851797.67608261108398
849243.95453643798828
846626.17086791992188
843978.9102840423584
841327.68172836303711
838676.90475082397461
836019.00387954711914
833350.27421760559082
830683.7979564666748
828043.05112266540527
825446.85186386108398
822904.28249549865723
820416.08242988586426
817974.97419548034668
815570.67266464233398
813199.38088417053223
810869.67382431030273
808590.79100799560547
806358.7861442565918
804156.09267425537109
801959.54117012023926
799752.21616172790527
797533.58939552307129
795318.5263843536377
793121.06374549865723
790943.85112190246582
788781.2067699432373
786625.07592964172363
784467.53552436828613
782298.79557800292969
780106.60881042480469
777878.23998641967773
775607.40755844116211
773297.35513877868652
770951.57903289794922
768570.26888656616211
766158.8997631072998
763728.74812316894531
761282.07297897338867
758800.8072681427002
756255.22544860839844
753622.99714851379395
750897.50152969360352
748086.82770347595215
745210.95443725585938
742292.9175968170166
739348.38536262512207
736383.12110328674316
733400.53390312194824
730409.28951263427734
727426.20973205566406
724475.14950561523438
721581.45749664306641
718761.07422828674316
716012.87656021118164
713326.22344017028809
710695.63827323913574
708125.90920829772949
705625.66232109069824
703201.3757438659668
700855.91053009033203
698588.36642074584961
696395.60657691955566
694270.35015296936035
692192.23002433776855
690127.8680534362793
688051.22628021240234
685962.68535614013672
683883.59761810302734
681833.1739673614502
679809.98189735412598
677791.71407699584961
675749.36760711669922
673662.95033264160156
671527.82058143615723
669349.31735038757324
667136.26143455505371
664898.92325782775879
662647.40570068359375
660387.67009735107422
658117.23338890075684
655825.78105163574219
653502.51408195495605
651144.86805152893066
648758.39155387878418
646350.98185348510742
643926.90324783325195
641483.41486549377441
639009.79014587402344
636493.91328430175781
633935.48291397094727
631351.88980102539062
628768.32177925109863
626205.26552772521973
623672.81171607971191
621168.72711372375488
618681.76924705505371
616203.39983558654785
613737.21849632263184
611295.32759475708008
608888.77102661132812
606523.51043701171875
604200.19552612304688
601914.43671226501465
599661.02645111083984
597439.46578407287598
595252.92305564880371
593103.94247055053711
590994.32742881774902
588926.77790260314941
520865.30949783325195
519045.9992790222168
517221.72143936157227
515390.81446075439453
513549.80884742736816
511698.28401374816895
509841.74890899658203
507986.62710762023926
506132.72686576843262
504272.86337852478027
502399.78551864624023
500511.92869758605957
498613.3800048828125
496710.72607040405273
494809.43677139282227
492911.03838729858398
491012.21357727050781
489106.85028266906738
487189.97677612304688
485261.45298385620117
483327.19156455993652
481396.18867111206055
479475.42550849914551
477565.42675399780273
475658.88334655761719
473744.16418838500977
471813.20458221435547
469867.04673194885254
467913.36456489562988
465959.65640640258789
464010.41980743408203
462068.98596572875977
460139.10783386230469
458225.8697509765625
456338.30353546142578
454490.41129684448242
452695.67724800109863
450958.21530723571777
449269.35595321655273
447612.82294845581055
445973.54741859436035
444343.60129737854004
442722.9333610534668
441116.72300148010254
439531.75593948364258
437973.02604293823242
436441.46951103210449
434934.49166870117188
433448.73354530334473
431982.97930145263672
430539.18045043945312
429122.18440818786621
427739.07065391540527
426397.00366401672363
425098.69443130493164
423839.2745361328125
422608.19459533691406
421394.38295745849609
420189.2877368927002
418986.36754989624023
417780.50113868713379
416569.31314086914062
415353.69270324707031
414135.31932640075684
412912.74397087097168
411680.00666427612305
410429.51091957092285
409156.61543273925781
407861.78003120422363
406548.74788475036621
405221.09389877319336
403880.95746803283691
402529.61700248718262
401166.67485046386719
399787.79657936096191
398385.46518135070801
396954.12604904174805
395494.38299942016602
394011.01060485839844
392507.62771224975586
390984.68140602111816
389441.62169647216797
387878.4171028137207
386293.59682655334473
384682.10885620117188
383037.44225311279297
381356.25718116760254
379640.94834136962891
377898.63023567199707
376138.61030960083008
374370.04466438293457
372599.48199272155762
370828.69907760620117
369055.20489692687988
367276.21100044250488
365492.83133506774902
363710.21533203125
361933.49636840820312
360164.04843711853027
358400.23216247558594
356641.78705024719238
354893.03136444091797
353161.99627494812012
351456.8686580657959
349782.54736328125
348138.98112869262695
346522.33943176269531
344928.36828422546387
343355.40728950500488
341804.10167694091797
340274.37015342712402
338763.19673347473145
337266.28137588500977
335781.75506210327148
334311.71813201904297
332860.24681663513184
331429.60648536682129
330018.30873680114746
328622.80458641052246
327241.3634033203125
325876.2336597442627
324531.60853576660156
323209.4839973449707
321907.62811279296875
320620.9124755859375
319343.8165340423584
318071.1994514465332
316797.45134925842285
315516.63572311401367
314224.82844924926758
312922.96501922607422
311617.12936210632324
310315.63944816589355
309024.74967384338379
307745.75092887878418
306474.45605087280273
305202.61705780029297
303920.51530265808105
302619.74237060546875
301294.70368766784668
299942.6329517364502
298563.3758602142334
297159.63590812683105
295737.05496597290039
294302.61819839477539
292861.82796096801758
291416.73585319519043
289966.45737075805664
288509.41106224060059
287044.96212577819824
285573.04850387573242
284092.5495719909668
282600.77933883666992
281094.9438533782959
279574.31806182861328
278040.86659049987793
276497.60035133361816
274946.6137523651123
273389.07550430297852
271826.52512550354004
270261.80118370056152
268698.79385375976562
267141.65711212158203
265593.96540832519531
264058.09568023681641
262535.1962776184082
261025.90909004211426
259531.02780532836914
258051.50440216064453
256587.89991188049316
255140.14452171325684
253707.93426704406738
252291.43896675109863
250891.58860969543457
249509.72013473510742
248147.03830146789551
246804.57326316833496
245483.48590850830078
244185.27823257446289
242911.79609107971191
241665.13968467712402
240447.6480884552002
239261.66746711730957
238108.58993911743164
236987.67375755310059
235895.3245677947998
234825.5667724609375
233771.74071884155273
232728.79190254211426
231694.98983573913574
230672.07047271728516
229663.50469589233398
228671.89262390136719
227697.41840362548828
226738.29055404663086
225792.60961723327637
224859.76170539855957
223940.11076354980469
223033.80671882629395
222140.02493858337402
221257.20573234558105
220383.85834121704102
219519.19950866699219
218663.11997222900391
217815.21637153625488
216973.36379241943359
216132.82666397094727
215287.09311485290527
214430.17166519165039
213558.69973945617676
212671.93497276306152
211769.87306785583496
210851.58147621154785
209915.6330623626709
208961.97386932373047
207992.807373046875
207011.16922187805176
206018.1762638092041
205011.49289894104004
203986.43938255310059
202939.12502670288086
201869.20557403564453
200780.37725830078125
199678.5278263092041
198569.52082061767578
197458.73624610900879
196352.43008804321289
195258.72458839416504
194186.0164909362793
193139.11954879760742
192116.30594825744629
191110.22623634338379
190112.50896453857422
189118.80689811706543
188130.66685485839844
187153.63749122619629
186193.80982208251953
185255.47574996948242
184340.96031188964844
183451.8045711517334
182589.77293586730957
181756.5764274597168
180952.92350959777832
180178.31589889526367
179432.13767051696777
178715.30489540100098
178030.97167587280273
177383.49660682678223
176776.61542510986328
176212.45006561279297
175692.2004451751709
175217.546142578125
174791.07012176513672
174414.93954658508301
174088.78886985778809
173808.42415046691895
1119280.9295845031738
1095868.9017868041992
1084685.0137023925781
1075508.8763790130615
1067566.3804206848145
1060687.0561580657959
1054856.2101364135742
1049761.1229801177979
1045079.0657787322998