/*--------------------------------*- C++ -*----------------------------------*\
  =========                 |
  \\      /  F ield         | OpenFOAM: The Open Source CFD Toolbox
   \\    /   O peration     | Website:  https://openfoam.org
    \\  /    A nd           | Version:  12
     \\/     M anipulation  |
\*---------------------------------------------------------------------------*/
FoamFile
{
    format      ascii;
    class       volScalarField;
    location    "0.00511";
    object      rho;
}
// * * * * * * * * * * * * * * * * * * * * * * * * * * * * * * * * * * * * * //

dimensions      [1 -3 0 0 0 0 0];

internalField   nonuniform List<scalar> 
75962
(
1.1421663291328076895
1.1420689627163012059
1.1407977132237303586
1.1414407693670851618
1.141670615947858014
1.1405612465327055194
1.1390833242089479782
1.1382592972924752139
1.1381172572311877289
1.1378889954265491991
1.1379479442658468891
1.138365313787191635
1.1382592389281815937
1.1376312700083590634
1.1372262819964509273
1.1374377655835885559
1.1379464971929320605
1.1381208985075259577
1.1381194107547099037
1.1387076036635219722
1.1396888408224141731
1.1401854525466448287
1.1397611016982798215
1.1390057777035054176
1.1387319364705754676
1.1388747316429876921
1.1389366896451005307
1.138912499034828274
1.1390619095763576674
1.1393273871049511836
1.1395643896835370157
1.1398566843685489225
1.1401373279828042051
1.1400612046512044184
1.1396283836899387953
1.1392991903922786712
1.1394202365825831791
1.139837488204287208
1.1401915171105259095
1.1402065105026155667
1.1397681934072658727
1.1391074215572898343
1.1387317268225529698
1.1389491747318982728
1.139581135644122778
1.1401926879998156572
1.1404799370591771623
1.1403465496836184823
1.1398218395905830302
1.1391764367186427709
1.1389345038967875201
1.1394602255036323513
1.1404277532962663333
1.1412015217859849958
1.1414690446314210703
1.1413332489965926086
1.1409687943244626318
1.140558116822043333
1.1403817488945435787
1.1405743951845181972
1.1408252313042690496
1.1406542903903831299
1.1399364467732435724
1.1390468249578962201
1.1385271498536551071
1.1386077242050880454
1.1390002169606194826
1.1392121307826883481
1.1390335931223558585
1.1386855075533854897
1.1385199522996838351
1.1386569425923522836
1.1389649120238738433
1.1392548683263348241
1.1394715236436074868
1.1396713545547212387
1.1398523564928668694
1.1398449774301067094
1.1394357980778750949
1.1386204303098377277
1.1376586349665425146
1.1368557575752160638
1.136409154027050894
1.1364240198775974466
1.1369255028113878225
1.1377751814536443131
1.1387040823672005541
1.1394819243665232911
1.140045142058945471
1.1404378570146449512
1.1406771147093461849
1.1406898513280201435
1.1404333704195304122
1.1399604061210262262
1.1394335486134452573
1.1390109249882800491
1.1387518349824314878
1.1386293795861546219
1.138627047752126531
1.1387730614138358298
1.139087229529963885
1.1394919814406556657
1.1397991242621108299
1.1398600203715603119
1.1396871714745153703
1.1394257979358171085
1.1392176227040216041
1.1391108122918480738
1.1390705986592895016
1.13908612834316747
1.1392250344661269956
1.139593974214373695
1.14026080363399962
1.1412119625442134208
1.1423322181246675644
1.1434627149831979587
1.1444871515481513935
1.1453959173173557939
1.1462546173585110854
1.1471053772538695181
1.1478796134317024169
1.1484333015501662079
1.1486623200465277961
1.148606405158699717
1.1484320354869550496
1.1483108024917572099
1.1483038095373285792
1.1483484064128544055
1.1483482959005435475
1.1482422413358122082
1.1480316584041854178
1.1477647436546771775
1.1475113062490265303
1.1473370180130202378
1.1472724386505925853
1.1472978924080738938
1.1473619596987332248
1.1474142925191632703
1.1474249964866425344
1.1473978979476529005
1.1473610959592757119
1.1473244292482625006
1.147247062595628142
1.1470535171948306186
1.1466945910918708851
1.146209882814247516
1.1457285520669031609
1.145401081167599866
1.1453125347051145155
1.1454431796835808921
1.1456946663242160156
1.1459607221186236536
1.1461887297686286225
1.1463769882393084476
1.146535798432892328
1.1466494776047195803
1.1466797144632243644
1.1466028645961583443
1.1464467455009139663
1.1462881665123223485
1.1462053212433853666
1.1462319342150073531
1.1463369559458589375
1.1464463326191112191
1.1464874175156563041
1.1464220510436593514
1.1462516149659236486
1.1460093548799263896
1.1457467688308036191
1.1455244465352565353
1.1453958541724842402
1.1453856554794974443
1.1454768763597127368
1.1456160772626491351
1.1457439656303873843
1.1458277684355215875
1.1458707608710516634
1.1458949760981944621
1.1459124339329309628
1.145913094856701564
1.1458790614647764716
1.1458103685804963412
1.145735243304183637
1.1456973780136716634
1.1457293310892457949
1.1458325496722987502
1.1459786435559660145
1.1461280265398674505
1.1468493688910401662
1.1468501564483817301
1.1469306307381605947
1.1470491711446741956
1.1471733844686691217
1.147297647852838276
1.1474350589503645725
1.1475942858925456402
1.147763082424590575
1.1479094109634275789
1.1479982096843395212
1.1480109422826356713
1.147954736304060086
1.1478578450810394962
1.1477561666950240049
1.1476797063045789393
1.1476454550984604985
1.147655978183173664
1.1477012569142555076
1.1477628375402435523
1.1478205421252971608
1.1478600566959213936
1.1478789476805890679
1.1478870511462095916
1.1479003357439956368
1.1479316978838391972
1.1479837321522692317
1.1480469919965052839
1.1481051785563576306
1.1481439367908499172
1.1481562484107159516
1.1481421444038266699
1.1481043307575558021
1.1480425930065492057
1.1479522279703679999
1.147830053341785117
1.1476849851044867989
1.1475429644486399017
1.1474383887475934074
1.1473974512118938485
1.1474224209824959164
1.1474870802506480505
1.1475477472289690173
1.1475640869024172908
1.1475179288741785832
1.1474209443668210717
1.1473059945603294452
1.1472100066994781464
1.1471587881750053839
1.1471584728083634719
1.1471972081839338919
1.1472527211151033466
1.1473013178774542631
1.1473273454649925984
1.14732939703478376
1.1473221627869394368
1.1473308658765826173
1.1473795547844483078
1.1474786989072380816
1.1476167297192882977
1.1477621876717201133
1.1478771858204259715
1.1479342953576499031
1.1479286534453652102
1.1478770792493790953
1.147806199006048411
1.1477371499994646342
1.1476760822039007159
1.1476137859655837214
1.1475353593834833887
1.1474340173353989591
1.1473187987554691603
1.1472102963464581027
1.1471300122058201154
1.1470876057771739465
1.1470756565971511609
1.1470763990502752527
1.1470743198873056823
1.1470648349774228425
1.1470539978012763704
1.1470506171804168982
1.1470554810207158614
1.1470565772375616032
1.1470331003861065078
1.1469649387901459381
1.146843203695034008
1.1466766619493771184
1.1464914360566409446
1.1463225095502416195
1.1462008681770519125
1.1461430113299539979
1.1461458760300360371
1.1461897670206535604
1.1462470817980743298
1.1462923501847157581
1.1463113623392369167
1.1463053925940838162
1.1462886643174026169
1.1462804098463492686
1.1462953724218438722
1.1463374564225403685
1.1463995472677053211
1.1464687890635290035
1.146533372027630282
1.1465871938027221155
1.1466306055666979358
1.146667602983421741
1.1467007428740907393
1.1467275025202203764
1.1467411273106720149
1.1467337569132505237
1.1466997115867318957
1.1466373076729592384
1.1465496826346956993
1.146443902100423573
1.1463292228893628977
1.1462156721520935232
1.1461128383338419212
1.1460291067573940005
1.1459710741834858716
1.1459418182643679174
1.1459395583908529304
1.1459567102514158776
1.1459807757513840176
1.1459963017055603274
1.1459882747003302672
1.1459464725880299518
1.1458684809200265775
1.145760500265301296
1.1456367007193331009
1.1455154650289061102
1.1454138444341634973
1.1453430171505427637
1.1453053393858887432
1.1452940401105720092
1.1452961315820637811
1.1452972852408678239
1.1452854433872348139
1.1452532830360075966
1.1451998374663765468
1.1451294206135909093
1.1450492274155537054
1.1449674218627339251
1.14489241214557258
1.1448318124551533082
1.1447919006674140974
1.1447767332714291477
1.1447866871147813761
1.1448183893413366174
1.1448641445124692062
1.1449146438442565632
1.1449603830570358465
1.1449942801511117096
1.1450129808712454782
1.1450186080008382117
1.1450177040971696307
1.1450191669767606495
1.1450292945322499971
1.145050864760436049
1.1450831291650052091
1.1451244259039203843
1.1451736646415300314
1.1452325738672866073
1.1453041666612640004
1.1453898714411610005
1.1454873242218417406
1.1455894314717005589
1.1456874153475584688
1.145772276069536133
1.1458374712634886716
1.1458820131807510023
1.1459115662709928873
1.1459371742276378559
1.1459730060312367517
1.1460322769362671913
1.1461229357197448842
1.1462466113158622516
1.1463972862635940508
1.1465617659839242304
1.1467235015233003814
1.1468654512801061962
1.1469742990587064035
1.1470438206609487874
1.1470774224806512542
1.1470860863063889745
1.1470840068938978895
1.1470834717070026443
1.1470920258463448427
1.1471108640390754729
1.1471365669036628354
1.1471638413313447469
1.1471903979828645959
1.14721828792120073
1.1472537308612724694
1.1473049743130248057
1.1473778327175692127
1.1474735133615432403
1.1475870345230663183
1.147706983621245902
1.1478190520665165764
1.1479099568044295321
1.1479728833657969478
1.1480091252938460222
1.1480273774266833708
1.148040687066682608
1.1480623011469242023
1.1481012204781115837
1.1481589708819692763
1.1482300771385101079
1.1483060296979248349
1.1483792657588960395
1.148446667230653917
1.1485105045682444391
1.1485767387286187624
1.1486513484332885326
1.1487367794343954497
1.1488295884291703786
1.1489200991239840732
1.1489950424498711623
1.1490422025549531515
1.1490543150126524274
1.1490318421588245901
1.1489833544496486084
1.1489232450761512894
1.1488680188680013838
1.1488328142611614613
1.1488283516494932623
1.1488590929176225597
1.1489231843921323684
1.149012974423803346
1.1491168612996414122
1.1492215138102996885
1.1493144078666803765
1.1493841527258132906
1.1494211124044333427
1.1494172825952091443
1.1493683092841273652
1.1492747378854477613
1.1491419749915805504
1.1489790627995559724
1.1487981346357623025
1.1486129870882191284
1.1484369668354210692
1.148280893485284615
1.1481511291156540899
1.1480491003246648951
1.1479724088453386877
1.1479157188190152183
1.1478737350463952271
1.147841513690992965
1.1478165244365723385
1.1477975923013186144
1.1477849398066073405
1.1477799284356480225
1.1388178967570083966
1.1374758718448976236
1.1386328026768994803
1.140941897933404503
1.1408073139288326114
1.1400543497769646262
1.1398743392778083461
1.1393565667301412958
1.1386644455633041506
1.1380982872927405403
1.1379822541147388559
1.1380601047179497165
1.1381299184947546443
1.1380792278363176528
1.1378581129802940453
1.1377631980801652389
1.1380025527223742721
1.1382198817882456243
1.1384864306925941424
1.1392833440841112491
1.140217420494173739
1.1404572137422219757
1.1399050162747061954
1.1393028125687811869
1.1392548427610353912
1.1395192653332275601
1.1395658153820928948
1.1394101107549392538
1.1393473439126904356
1.1395049887664239208
1.1398771592326304436
1.1403647209896965453
1.1405282126739559878
1.1400523111133509246
1.1392593053145343429
1.1388684582327817107
1.1390740437664650386
1.1395260618277125442
1.1399287989277830935
1.1400725318125712882
1.1398031168176065986
1.139163793168523453
1.1386611893649680738
1.1388115439483452729
1.1395291471649600101
1.1402580508713435758
1.1405657477760178242
1.1403746501007148151
1.1397913312147149867
1.1391105167116049035
1.138829295704048894
1.1392504856572316374
1.1400758712896115199
1.1408009986561655769
1.1411057833151503349
1.1409869158043008941
1.1405496716839904625
1.1400104296819828509
1.1397215387664427766
1.1398527587544013961
1.1401384708205459795
1.1401070904660839389
1.1395801848519726551
1.1388620819496879655
1.138448714806299833
1.1385908036273046928
1.139033350604967687
1.1392877176582927312
1.1391368389175291487
1.1388149144282986303
1.138668904545777405
1.1388518401257550217
1.1391845662915920379
1.1394164543330691508
1.1394920023547956411
1.1395247147524141251
1.1395781254120405102
1.1395321837597143233
1.1391855242060058284
1.1385032810345154797
1.1376819329194867159
1.136996979032624866
1.1366542614832573221
1.1367489243095090234
1.1372361780620372507
1.137936914251086673
1.1386592921571696557
1.139288186676568726
1.1398224598461326185
1.1402813926623538432
1.1406141830568750084
1.1407313837392623057
1.1405762140187378773
1.1401690579860337404
1.1396403571846867031
1.1391674021677851147
1.138864244783053925
1.1387398036780072008
1.1387543900429770716
1.1389106787444454039
1.139232548254347055
1.1396601225084050935
1.1400070993435256206
1.1400809701920082695
1.139853587403400148
1.1394797216706722409
1.1391621318684592712
1.1389933609863853725
1.1389504251611379804
1.138993963030773493
1.1391591531096507683
1.1395482604988731445
1.1402497931412545196
1.1412532595239885946
1.1424334323080937992
1.1436068259289677851
1.144639254535969819
1.1455073159260249493
1.1462769148067202263
1.14702644832798617
1.1477555333444680041
1.1483641047656312217
1.1487353856496036464
1.1488412741668190264
1.1487694913263757357
1.14865100590325242
1.1485686511886830097
1.1485169779507844456
1.148435561346034417
1.1482653980622734569
1.147998113554290267
1.147690688872449627
1.1474271850100346004
1.1472688434910325306
1.1472262906479679945
1.1472599469084987511
1.1473185450917431361
1.147367824179243323
1.1473898149019445825
1.1473803912093789581
1.1473439225959936039
1.1472742254694716646
1.1471382970005217228
1.1468849122231854487
1.1464892360988248043
1.1460092300683613065
1.1455806649735942315
1.1453419664150008561
1.1453494952038654198
1.1455428602007142747
1.1457923655514565819
1.1459879917432178598
1.1461057378188190814
1.1461953836976463972
1.1463074782071855928
1.1464335751436003363
1.1465117314128769888
1.1464866881030066903
1.1463686065347564735
1.1462384741281392841
1.1461863147262503215
1.1462443845107435081
1.1463692092344162088
1.1464741641872575606
1.1464828326254050683
1.1463630013044210365
1.1461292321527820626
1.1458306981078034692
1.1455347873353702859
1.1453097058392680552
1.1452018471389420196
1.1452169416431310367
1.1453161172116197442
1.1454364186953669424
1.1455279809177478789
1.1455776795293215464
1.1456075394785842914
1.1456480468135630257
1.1457067925750583637
1.1457606879662121102
1.1457774731925776113
1.145744371487870561
1.1456825654933746605
1.1456338367881009344
1.1456342151837093368
1.1456942265496559141
1.1457994807907065926
1.1459222822728416524
1.1460356691509370197
1.1470183078014326572
1.1469183713108748179
1.1469162691250855968
1.1469848687398633835
1.1470847563149673132
1.1471894121790355836
1.1472971851569582213
1.1474253187063288006
1.1475882450808163604
1.1477746942045483625
1.1479456953149855813
1.1480565399599900189
1.1480825580038076517
1.1480317665341386313
1.1479402354077290482
1.1478544197933540083
1.1478094157305240852
1.1478158465120325005
1.1478597599633884041
1.1479126563821491214
1.1479456841050492688
1.1479420965737265892
1.147902702291060395
1.1478430419170884136
1.1477858640427252013
1.1477516152430884411
1.1477506629026092977
1.1477808710320616115
1.1478306396990385352
1.1478850128268676123
1.147931756601062947
1.1479641586885240834
1.1479777657703678084
1.147965756614187427
1.1479172961550199172
1.1478220739627882363
1.1476794931533558231
1.1475067993490690732
1.147338780541776293
1.1472152595580475953
1.1471627985750394441
1.1471811999498107149
1.1472412387758670338
1.1472991765850228951
1.1473176164139620159
1.1472822701761835607
1.147206104553152084
1.1471202578718138199
1.1470579137749048471
1.1470387927423337793
1.1470623768538996679
1.1471109028217347792
1.1471599194896759943
1.1471881012109845788
1.1471853396833933125
1.1471576398926743856
1.1471253280935467256
1.1471158108170624867
1.1471510677348670804
1.1472380958665453488
1.1473646170167370872
1.1475022232393214949
1.1476176271612736901
1.1476856527352348181
1.1476981138628996604
1.1476641772289497556
1.1476019879609391516
1.1475269359640207778
1.1474458757247159024
1.1473575722500133356
1.1472593755263109649
1.1471557074006850652
1.1470610631951467795
1.1469929388914228419
1.1469614844752258342
1.1469632148079638156
1.1469817469464644866
1.1469978272925962504
1.1470010217239792194
1.1469947507514113294
1.1469905560931503707
1.1469975951991806529
1.1470118377879530147
1.1470145137826905923
1.146980363711344042
1.1468912501970212059
1.1467462493152542624
1.1465646465487140393
1.1463799826193679099
1.1462290382690336621
1.1461387162329763623
1.1461171065839290684
1.1461509519967163495
1.1462112780267696976
1.1462650739474282702
1.1462877525860404315
1.1462711023285621081
1.1462253952251171274
1.1461735677984452586
1.1461409086882166086
1.1461443582330017588
1.1461867280782531697
1.146257063534391607
1.1463380892838033187
1.1464146414951208452
1.1464800679128721583
1.1465367144285625312
1.146591627180500339
1.1466500325520507797
1.1467096506277110191
1.1467603208501997436
1.1467881956733303461
1.1467813883382660389
1.1467345221147857703
1.14665070061734653
1.1465398636533539189
1.1464147436549618764
1.1462875709148043768
1.1461684331418078298
1.1460650215342005342
1.1459834202737062547
1.1459282787024633876
1.1459016857566031167
1.1459011364094751073
1.1459183505488632626
1.1459397010746230627
1.145948869332718667
1.1459321460029969764
1.1458824721775353606
1.1458014622843819552
1.1456999091672370739
1.1455950725430814607
1.1455041941001580241
1.1454386556978510825
1.1454008519754201867
1.1453842209688296361
1.1453763827128198294
1.1453645253971249662
1.1453394246075436769
1.1452968219883219447
1.1452377465278356095
1.145167361806299855
1.1450927906450409921
1.1450207334871866927
1.1449576712944982138
1.1449098707704827849
1.1448831710880509327
1.1448812428257806317
1.1449037268720765326
1.1449454704240662473
1.1449970441895618301
1.145047359849008517
1.1450869723836851755
1.1451095044038952508
1.1451129315943160414
1.1451001757689072136
1.1450777304835908499
1.1450557171995738859
1.1450434120235870594
1.1450465692238538384
1.1450671641957588243
1.145105058744476878
1.1451593950733733873
1.145229092774755042
1.1453141915003794971
1.1454133990133534837
1.1455224838498150319
1.1456341854663347757
1.1457395008261017644
1.1458298952158629813
1.1458997005435509475
1.14594851103608808
1.1459813010479851236
1.146007820976209679
1.146041506743789018
1.1460955929218428206
1.1461792654527163116
1.1462951894166701905
1.1464383643873679031
1.146596678514333334
1.1467528722171766997
1.1468899434393153847
1.1469947559764761547
1.1470623129185861799
1.1470971911463481163
1.1471118294207103272
1.1471218266573954825
1.1471402365736851348
1.147172972581523176
1.1472181597605963788
1.1472687437132562671
1.14731637489351046
1.1473553207782969388
1.1473860720079225306
1.1474147869394273336
1.1474514322331976768
1.1475051095302974957
1.1475804997066185731
1.1476761718382628708
1.1477849727019775461
1.1478958469714544144
1.1479973612731040333
1.1480814850321896525
1.1481460284188831356
1.1481945171277043727
1.1482337984296724365
1.1482707798798508225
1.1483101941300464244
1.1483535088508445288
1.14839909603131618
1.1484441258085593685
1.1484873248694662529
1.1485299989417281363
1.1485756625104392992
1.1486288250853102788
1.1486926858033654764
1.1487664807410560286
1.1488446214606602425
1.148917034178503993
1.1489722425394333083
1.1490011354792031284
1.1490005526574624817
1.1489744117850770877
1.1489329608409193373
1.1488904880108312678
1.1488615752195086017
1.1488582126464212951
1.1488878081581446189
1.148951047893563393
1.1490430868425085542
1.149155473422689866
1.1492772761557639161
1.1493970913118447541
1.1495037394991929336
1.1495865851494102561
1.1496363310751795961
1.1496458612505853214
1.1496101856970994959
1.1495285299308983795
1.1494044192977017627
1.1492467121415579356
1.1490678555143782891
1.1488822466409800427
1.1487043354116159843
1.148545525584544702
1.1484127798512628882
1.1483083553793762555
1.1482299916582443533
1.1481723542543453842
1.1481289165411103781
1.1480947885476895376
1.1480673120563964495
1.1480468683704732058
1.1480357369234359677
1.1480365036284543301
1.1384454725038832823
1.1390290610590294573
1.1384840124828592423
1.1392934951222313256
1.13888478081074207
1.1391896370831084973
1.1404202572490513834
1.1403260862655946184
1.1392845617354128152
1.1385441586796627433
1.1380975425586361549
1.1378886968682009329
1.1382639587355842803
1.1387022156942887552
1.138507662730879666
1.1380851309686190742
1.1380570237839027214
1.1382116482889212961
1.1385172155022544871
1.1392084988411750324
1.1399456227510942341
1.1402423107498604882
1.1401305738328797457
1.1399376746826803686
1.1398885980169088938
1.1399012656365550278
1.1398466514444853814
1.1397557727899461089
1.1397165051895801202
1.1398228161647219192
1.1401589138102330434
1.1404587363840610337
1.1402407620468948402
1.139489015896975932
1.1388319381993003976
1.1387565899073046616
1.1391839418882594437
1.1396836394871463494
1.1400131329215577036
1.1401173810462972291
1.1399161191985396346
1.1393420763049011413
1.1388379692582264457
1.1389682951733819394
1.1396570183946905797
1.1402981497920308129
1.1404419921783792713
1.1401044274405534029
1.1395238016807651693
1.1389376487459552667
1.1386526865413537646
1.138888592149515766
1.1395555144647770973
1.1402467863105218981
1.1405950375372366778
1.1404811135286734292
1.1399910648819202574
1.1394083462017587927
1.1391066557929721004
1.1392561871459963019
1.1396204298843786162
1.1397484165185887139
1.1394334486377206694
1.1388797230260578885
1.1385073497247542029
1.1385991178856524897
1.1390147062829860669
1.1393331120777399068
1.1392856323113842443
1.1390175698432636331
1.138859128866623216
1.1390063357728543725
1.1393236999754960959
1.1395363462402681165
1.1395321619810283575
1.1394046163719233622
1.1392733429190646799
1.1391053864482612035
1.1387900843982110555
1.1382985857450726996
1.1377345491939785393
1.1372869266749292549
1.1371009253460380162
1.1372303194842112717
1.137607956221314387
1.1381073585138692383
1.1386318161020523299
1.1391604667907393456
1.1396945895996466458
1.1401659319066523857
1.1404885096870815975
1.1406082158959767181
1.1405087778071671956
1.1402011384479409095
1.1397643116850226797
1.1393489699974419516
1.1390836697306070402
1.1390014357165356707
1.1390615829567491968
1.1392503733059597959
1.1395630966265586359
1.1399545817877307918
1.1402561363842478315
1.1402723187214223177
1.1399695527450330879
1.1395254675145372047
1.139160983198848065
1.1389922411854973561
1.1389879991146907301
1.1390803175610624276
1.1392798649340707406
1.1396870861022807553
1.1403964542222331247
1.1414115620706155596
1.1426130774079512609
1.1438133582646770048
1.1448620829197531101
1.1457166247647048163
1.1464360449481905135
1.1471062490160894853
1.1477703197071282837
1.1483807790115110326
1.1488286125705775564
1.1490447289255274477
1.1490510518861973832
1.1489294598619279597
1.1487677207272204427
1.1486085288309704211
1.1484297117980113434
1.1481949502450923273
1.1479065362001399375
1.1476145538389359579
1.1473880312184268071
1.1472692288556578522
1.1472495198477707934
1.1472842056746419548
1.1473313653958951974
1.1473757605733323484
1.1474115215855036354
1.1474153693694726375
1.1473558334876015063
1.1472096019091333474
1.1469568257704756409
1.1465890934403153434
1.1461364505498845556
1.1456872972383227438
1.1453678777945839329
1.1452755687146498609
1.1454150152785460559
1.1456813513168369045
1.1459259007054647395
1.1460530396921300156
1.1460725271040899109
1.146072020919501222
1.1461292838352556966
1.146243449034697548
1.1463404333669908741
1.1463467166581273737
1.1462644320115300545
1.1461738148397682124
1.1461639716381246679
1.1462567019736764617
1.1463928777623917377
1.146480528957395828
1.1464510182440714736
1.146284520526222428
1.1460094663425066663
1.145683323708957202
1.1453771878728276068
1.145157144300699148
1.1450631834243714113
1.1450906969941576641
1.1451910700559015943
1.1452990258194089002
1.1453680529380909636
1.1453928905424886064
1.1454049205516014798
1.145443255953723094
1.1455229746214052877
1.1456222387769152693
1.1456960369616935314
1.1457113568023247208
1.1456708393554286829
1.1456066023505611096
1.1455595968008316365
1.1455601126371151022
1.1456163765038875901
1.1457144266348473494
1.1458280651393091265
1.1471033352066095645
1.1470154337465199301
1.1470211307134672296
1.1470931660166274746
1.1471894679016378937
1.1472807862846827742
1.1473664520958799518
1.1474673284269705231
1.1476036444366763956
1.1477736737319985671
1.1479457746657404371
1.1480727382303352879
1.14812099609504914
1.1480908380950674008
1.1480168894732287743
1.1479502795731781895
1.147930809574472244
1.1479673620855845861
1.1480351785918443408
1.1480905105517340559
1.1480942653646266649
1.1480307784607994837
1.1479125395095257645
1.1477713314707105319
1.1476431738714016895
1.1475544515016984359
1.147514669669135845
1.1475181657819570891
1.1475520219475223715
1.1476042020586321168
1.1476673782164128479
1.1477349207396834174
1.147794101910237341
1.1478238722768214775
1.1478004359787341571
1.1477087879240599477
1.1475535130696561392
1.1473620683149998722
1.1471778607647278303
1.1470431015965856236
1.1469800608506874884
1.1469819650195522964
1.1470181892461952522
1.1470505038780196561
1.1470516822105423227
1.1470163957384209574
1.1469615352285156273
1.1469152631036350076
1.1469013759262207675
1.1469275690879541241
1.1469828797750876159
1.147042835588605314
1.1470809945911524252
1.1470804497789326426
1.1470405616050911579
1.1469780321085929486
1.1469200160252572829
1.1468943934557329634
1.1469193746765653508
1.146997082979005933
1.1471132513937214448
1.147241862269435364
1.1473537915088767303
1.1474264753137586315
1.1474497270549659511
1.1474264258941964112
1.147367749356233313
1.147284785352023162
1.1471847334207407876
1.1470736661684390878
1.1469606395083906669
1.1468602478585159243
1.1467901081586244771
1.1467631399919109292
1.1467784027384275714
1.1468202004723679899
1.1468648862434782654
1.1468932372317941493
1.1469001098429831842
1.1468955247754117899
1.1468947428291553781
1.1469061357097547482
1.1469226980149118678
1.1469231714842536007
1.1468823679143145267
1.1467856610270343864
1.1466378389819100736
1.1464637895209823792
1.1462992744849600513
1.1461784148132385663
1.1461219106956836988
1.1461300698324332625
1.1461825709655242278
1.1462458686320011747
1.1462861299718656305
1.1462828667984172881
1.1462356511444440343
1.1461630744080337774
1.1460932728841692896
1.146052249940086698
1.1460538722522475297
1.1460961696012639255
1.1461641630349013177
1.14623945040385955
1.1463094863983038785
1.146372098872193046
1.1464341034158647137
1.1465048493056337886
1.1465895043517839724
1.1466837800038105488
1.1467733036280454151
1.1468386195198423394
1.1468627013475869436
1.1468371376987966936
1.1467644568328370092
1.1466560469664321964
1.1465266911241422942
1.1463899670005111009
1.1462566613919389358
1.1461352531543982369
1.1460332464169213917
1.1459573288358908538
1.1459120424560735874
1.1458974225521427748
1.1459066361121248434
1.1459268007221117269
1.1459418042435420837
1.1459365579905986809
1.1459026190426377934
1.145840581190737284
1.1457594383382287972
1.1456742416422553976
1.1456004745841226189
1.1455472768333549993
1.1455149495370191559
1.1454966515633504542
1.1454812083217282837
1.1454580753936711712
1.1454216200891138566
1.1453718579864520244
1.1453119741080504124
1.1452476841037839694
1.1451853289065823116
1.1451297010819825317
1.145084183124026822
1.1450519914494790008
1.1450367180469454009
1.1450411812104452913
1.1450651379476002312
1.1451040383853208215
1.145149415165201745
1.1451907529471059277
1.1452187718234199121
1.1452278175135448546
1.145215939924785431
1.1451859158818216144
1.1451439262408915631
1.1450998773584768475
1.1450660064804172311
1.1450517712304484341
1.1450622813653010823
1.1450984978659217717
1.1451589268158837154
1.1452392825607164983
1.1453349753570540859
1.1454416129423872217
1.1455550724678875696
1.1456705184047846213
1.1457815167175462445
1.1458816153421169659
1.1459658371271188582
1.1460317059674509643
1.1460806875818017048
1.1461187747535284132
1.1461555702993442285
1.1462031977378990266
1.1462726761575516843
1.1463696346998653031
1.1464929652421451678
1.1466337298200630634
1.1467771239355055712
1.1469070097370641648
1.1470108559921481373
1.1470833913894138423
1.1471288874548259962
1.1471587216720933178
1.1471870850908223449
1.1472252315497768471
1.1472783983958854126
1.1473436753782089159
1.1474122519643799034
1.1474734023647008563
1.1475192689815070235
1.1475487390041057001
1.1475680033326030038
1.1475881083726733323
1.1476207636070054896
1.1476740635138833468
1.1477504131735958293
1.1478463806773699929
1.1479541109429227674
1.1480647205764107355
1.1481704420050646842
1.1482662901828448732
1.1483498565338228214
1.148420982601654261
1.1484804257969241092
1.1485287108630974906
1.1485666642888980871
1.1485955134712320103
1.1486175116604535607
1.1486362942698615797
1.1486567868875761089
1.1486835068381413549
1.1487188081163921538
1.1487622578763638792
1.1488100923200412762
1.1488560823353293205
1.1488929022538811875
1.1489142815270807496
1.1489172191046641558
1.148903367874006376
1.1488793302683351083
1.1488552047410347523
1.1488423668964609092
1.1488506054581804072
1.1488857845356168497
1.1489490543716436299
1.1490373329345155984
1.1491440915976747217
1.1492610112578942605
1.1493796765177943797
1.1494929768698789463
1.1495943511340223075
1.1496771841363579991
1.1497341539343879369
1.1497581141876069832
1.1497436508293876756
1.1496880220584324572
1.1495924339419700821
1.1494622056093863893
1.149307275337144052
1.149140219034817445
1.1489741490177769467
1.14882094716416705
1.1486891187961427718
1.1485825448909707802
1.1484995686270900173
1.1484351222756759014
1.1483839654783061235
1.1483421392089816493
1.1483090793627512838
1.1482869111600717549
1.1482796973925388784
1.1482921534558792054
1.1483276106902033931
1.1345631315640458681
1.1377781776325071039
1.1384305007504471607
1.1372886908376522719
1.1367982419150823858
1.1378983750420632592
1.1398818961683963025
1.1400282318057555209