/*--------------------------------*- C++ -*----------------------------------*\
  =========                 |
  \\      /  F ield         | OpenFOAM: The Open Source CFD Toolbox
   \\    /   O peration     | Website:  https://openfoam.org
    \\  /    A nd           | Version:  12
     \\/     M anipulation  |
\*---------------------------------------------------------------------------*/
FoamFile
{
    format      ascii;
    class       volScalarField;
    location    "0.015";
    object      rho_0;
}
// * * * * * * * * * * * * * * * * * * * * * * * * * * * * * * * * * * * * * //

dimensions      [1 -3 0 0 0 0 0];

internalField   nonuniform List<scalar> 
106891
(
1.1472362146831209806
1.1473780828014072952
1.1475541537098006284
1.1477619207812379543
1.1479925789384861634
1.1482299321516999946
1.1484579470752780406
1.1486559480094493679
1.1488094321603714576
1.1489042577987371718
1.1489314196113804556
1.1566442948103878852
1.1566623523049381905
1.1567100186817507179
1.1567546657490779261
1.1567813567803444386
1.1567907084769251114
1.1568048346636783386
1.1568470936653076908
1.1569210977840587162
1.1570008542293515053
1.1570312260762496415
1.1569626172938598518
1.1567798694206528065
1.1565162856607658082
1.1562522436701649919
1.1560678752708737349
1.1559998244507136977
1.1560260021710124789
1.1560826782396598222
1.1561124059246465912
1.1561013905911494692
1.1560804237514055171
1.1560918492705571925
1.156147183031689174
1.1562249278518921258
1.1562836191744869652
1.1562896904291903866
1.1562410308187185404
1.1561586392174343363
1.1560644661717516257
1.1559752186036520438
1.1559016103068471271
1.1558530686072507887
1.155834709134923477
1.1558584271162302137
1.1559128821693316347
1.1559812917392191522
1.1560371739461909879
1.1466409306790938949
1.1467101809762110243
1.1467884273341091284
1.1468686013280748881
1.1469468696282738573
1.1470205804217932233
1.1470919261644163534
1.1471662939146531901
1.1472517269401867335
1.1473570345580010876
1.1474889957610772129
1.14764815594770897
1.1478329064538781434
1.1480348081449420761
1.1482407910688685604
1.1484372204698525266
1.1486035811089811975
1.1487317636668950005
1.1488038727577674081
1.1488255133489142512
1.1567204785759326313
1.1566982620814647564
1.1566801256070537995
1.1566716916466677212
1.156684826467106797
1.1567348629347284916
1.1568277304345229162
1.1569516058349780252
1.1570673790101706491
1.1571168781297263006
1.1570512092331350917
1.1568605182363356221
1.156593603505162049
1.1563378061037086209
1.1561770687615262609
1.1561483374277752301
1.156221098802840741
1.1563205337213384727
1.156379520395504068
1.1563780069189510957
1.1563466698241178232
1.1563369543954278296
1.1563752002767992977
1.1564449717922444805
1.1565063252537775007
1.1565203446439364932
1.1564742654440172132
1.1563776124111997401
1.1562567444957925211
1.1561313803022104096
1.1560192227077170646
1.155936545950275729
1.1559035964876722691
1.155928368288850594
1.1560089371450885665
1.1561165398423871586
1.1468012512758967159
1.146867026394774669
1.1469378478116170061
1.1470096567426255607
1.147079576873352158
1.1471468486063427505
1.1472139802005514309
1.147284178091952711
1.1473646279677465198
1.1474612743305339091
1.1475793246278918058
1.1477192978688901537
1.1478758300833491468
1.1480411844741662541
1.1482018285266999413
1.148348821902175354
1.1484650623712000517
1.1485498599085988136
1.1485871510771623605
1.1485916611874744664
1.1568710722154325055
1.1567445603437847002
1.1566519171067179972
1.156620314760246071
1.1566628247991024292
1.1567732585681052004
1.1569267582547326789
1.157084325693072957
1.1571975183324387793
1.1572203958273110658
1.1571224294681834444
1.1569172157027480807
1.1566659433911918864
1.1564506983056233036
1.1563418412314030448
1.1563599642161608294
1.1564651695132086573
1.1565829266329976655
1.1566468636571733963
1.1566380597961072318
1.1565883712641895631
1.1565506835940024821
1.1565631045310285074
1.1566220344751521054
1.1566912314025372677
1.1567328365421125635
1.1567134453240710545
1.1566374361873372756
1.1565149299464130284
1.1563715830792222761
1.15623172297661303
1.156119481816496819
1.1560682805120019445
1.1560902219703728111
1.1561883189231938474
1.1563208761413577008
1.1470927100367400708
1.1471665471886534071
1.1472408695003504242
1.1473127908891440629
1.1473806501443559736
1.1474468424328523319
1.1475143000095113788
1.1475869420997371062
1.1476678345066926301
1.1477599439225800726
1.1478629288475332704
1.1479740087086727218
1.1480856713109721667
1.1481885341997131178
1.1482754536508821275
1.1483347097114915414
1.148369128385056781
1.1483695246009590907
1.1483522049529473197
1.1568367685046538895
1.1566581693864899094
1.1566002142284903531
1.1566746689224975952
1.1568497099413657114
1.1570721374654389102
1.1572701524479094282
1.1573799546149283746
1.157366981105221404
1.1572319646293687256
1.1570156775165123531
1.156789169013826557
1.1566266969485177185
1.1565744444987007267
1.1566329230416960705
1.1567567390621880108
1.1568775929307411054
1.1569408947686592448
1.1569289810771679061
1.1568667865677719764
1.1568041275261107259
1.1567850826402297226
1.1568236723945892752
1.1568972096574483555
1.1569667300925139397
1.1569935259651065174
1.1569571316130613514
1.1568582808817271523
1.1567161420192244581
1.1565573854816537658
1.1564188718891501573
1.1563345101310913421
1.1563384748946796687
1.1564222175220650879
1.1472631854191732703
1.1473200266201495356
1.1473856308616194877
1.1474567556016337377
1.1475293759152651596
1.1475999777365573085
1.1476676548610524886
1.1477313013056067437
1.147792306383059735
1.147851796400398694
1.147911643370967516
1.1479714104913012473
1.1480315018070288424
1.1480882025245924272
1.1481365414993154328
1.1481724845119041234
1.1481899120199303699
1.1481916005356804789
1.1481727193253896679
1.1481479927635143135
1.1570902207250501892
1.1568575533709979375
1.1567923554605261671
1.1568968714095841932
1.1571146218295289554
1.1573593191658682056
1.1575457404981859266
1.15760781560035797
1.1575247236511496673
1.1573314480180503239
1.1571007402400113051
1.156911922649916491
1.1568209956796380311
1.1568441733153571604
1.1569561725678207953
1.1571043456449054965
1.1572308714934311791
1.1572932475417549991
1.1572764527979679805
1.157198650409426044
1.157105252132796247
1.1570468413506673766
1.1570537451553863928
1.1571209668992479269
1.157211637811240923
1.1572758044835469438
1.1572782831984635976
1.157209665992039449
1.1570836493868748018
1.1569288630031904219
1.1567830334229474154
1.1566870983056434241
1.1566664307275864587
1.1475983336749364661
1.1476400598885403426
1.1476949272496526078
1.1477607815941202052
1.1478319092169324556
1.147901660859317996
1.1479641219610723368
1.1480152055360681729
1.1480520533511879844
1.1480759692329709498
1.1480883066459155462
1.1480913085148076735
1.148085876187894705
1.148074702068288877
1.1480600843883466133
1.1480388922021695919
1.1480165009284766242
1.1479894189758361733
1.1479690541780136481
1.1571648732747794597
1.1571059046270049109
1.1572362074580497815
1.1574795175856456009
1.1577277582955949331
1.1578788307034044713
1.1578737199387536538
1.1577139865631627114
1.1574588989692597973
1.157202942879225871
1.1570343639420113124
1.1569994968532615331
1.1570906858792378014
1.157258784805458518
1.1574409538506016393
1.1575827850294329036
1.1576490318101519961
1.1576300444165292802
1.1575465364258274992
1.1574419022874384844
1.1573710365036142811
1.1573765378205258525
1.1574608828788131021
1.1575827505742064538
1.1576876005199103759
1.1577209301024424803
1.1576634434139461138
1.1575269306588449325
1.1573487350979227983
1.1571711561806834467
1.1570344825697431723
1.1569624099592568101
1.1479050495114728747
1.147907092411577068
1.1479286888800699362
1.1479702569228791287
1.1480256586445189981
1.1480858618604141697
1.1481401436142870676
1.1481796802689634429
1.1481973530789353344
1.1481910488065500964
1.1481619883686839945
1.1481176235160626131
1.1480635347135668134
1.1480063424278463824
1.1479552699713728714
1.1479127185577939763
1.1478845241197339622
1.1478669815940294452
1.147868550028471768
1.1576254679478577003
1.1577342661181884154
1.1579403656008493417
1.1581375948996626146
1.158229283862280079
1.1581659386175802151
1.1579592891518344366
1.1576751921374675014
1.1574071155441498782
1.1572375909792742554
1.1572111950360211008
1.1573194771162358396
1.157510590252351923
1.1577188584367243962
1.1578854224490722213
1.1579737656288942027
1.1579762136976448073
1.1579093267452078564
1.1578149903877885674
1.1577482912629550871
1.1577524345479448531
1.1578345432718146757
1.1579586392466421074
1.1580642920966639497
1.1580969236182605542
1.1580313231662773266
1.1578812153614201907
1.1576860296558593166
1.1574874460963933132
1.1573226816756072566
1.1482095555859281877
1.1481916155721230144
1.148198912206628286
1.1482275480391668232
1.1482684743965094754
1.1483082079724289404
1.1483346075654785601
1.1483373090436705954
1.1483110128582272313
1.1482544950923441185
1.1481753797167910669
1.1480834850172929595
1.147991673663562251
1.1479103302507316364
1.1478494003413439728
1.1478153846024172768
1.1478076669164081203
1.1478294303011395971
1.158308133806517759
1.1584347428603665175
1.1585405623935887132
1.1585600003405416292
1.1584608798666373719
1.1582498879160865179
1.1579704420131529119
1.1576961561835765746
1.1575028213722591275
1.1574404806068689933
1.1575182967568813375
1.1577001726093933964
1.1579233998197755451
1.1581243798685645352
1.1582591862506541602
1.1583125721666016616
1.1582970310379470114
1.158248447521344815
1.1582114874654931835
1.1582225506428871498
1.1582901999641541657
1.1583890676258721264
1.1584703665955953245
1.1584853507801022854
1.1584120125551957692
1.1582568922129037325
1.1580491328613771174
1.157823832597235425
1.1485611750205761972
1.1484933955164149388
1.1484547506555242702
1.1484444696349240811
1.1484560602292313014
1.1484773055078649762
1.1484935215511733464
1.1484905948925228092
1.1484595095136407306
1.1483965146322978601
1.1483054724381880352
1.1481977928342432804
1.1480871944184822819
1.1479893971288279708
1.147915216307562547
1.1478766258376207343
1.1478739738470233878
1.1479129470034574734
1.1589290775759801821
1.1589449156190285706
1.1589072518253835664
1.1587940826167977271
1.1586044319713229012
1.1583577198601453517
1.1580943092761235569
1.1578796120607828257
1.1577685261519017335
1.1577843140386185894
1.1579106682067323852
1.1580996079220284845
1.1582948309939868903
1.1584521994857603922
1.1585539446061134949
1.1586054560167127203
1.1586283368087444412
1.1586480082611056996
1.1586829335671691155
1.1587367026368771139
1.1587934178123959761
1.1588229762236230691
1.158796292139621098
1.158699128018547464
1.158533684119910756
1.1583144701636098883
1.1580649623980912022
1.1487773483490109072
1.1487056609119254968
1.148666953055606621
1.1486568661666067825
1.1486634164680924464
1.1486710157772639374
1.1486630350390045763
1.1486286498541660173
1.1485636552618441186
1.1484702066729912673
1.1483569020563120233
1.1482370189316788434
1.1481287991870918752
1.1480436210457036772
1.1479986234683592361
1.1479921512156490149
1.148037630232577877
1.1592996316536261503
1.1592574971224232083
1.159220960045753035
1.1591577638724965826
1.1590487249794656499
1.1588847792565986072
1.1586792494025635047
1.1584688431331395808
1.1582919119691010845
1.1581864139963595761
1.1581655775384662732
1.1582193605998682973
1.1583257043584329615
1.1584593404891918578
1.1585998737285150284
1.1587316576682600289
1.1588486354120279831
1.1589504654070381662
1.1590388263502278132
1.1591129313121961708
1.1591658420565349452
1.1591803268549596417
1.1591391689647358998
1.1590317332535648998
1.158855228593458131
1.1586211617666695162
1.1583532492229273725
1.1489215545111965966
1.1488695280092235951
1.1488495161461260707
1.1488497498876579783
1.148855433817725924
1.1488510162710563467
1.1488245817531752557
1.1487674150960254238
1.148680369923919864
1.1485688033234240368
1.1484467553497521575
1.1483277539169183257
1.1482283109617448247
1.1481657185809579502
1.1481464387907243108
1.148181206270375343
1.1594528637555181483
1.1594403575123146677
1.1594494914052664303
1.1594359281169457354
1.1593648597931043298
1.1592208756620967502
1.159037618797090996
1.1588567167908159217
1.1587138685196098908
1.1586177324517190623
1.158563662129774352
1.1585499928321845164
1.1585821737069328385
1.15866572764178688
1.1587956880375340774
1.1589492985890399446
1.1590979162924877066
1.1592199866778898354
1.1593088381604577108
1.1593684892667714958
1.1593995388577893468
1.1593934078114600528
1.1593357298784907616
1.1592169157296678961
1.1590366810819117127
1.1588048344135521983
1.158539060181857927
1.1582600557548359266
1.1489730827131967583
1.148922163745899061
1.1488890367866111397
1.1488640916824799376
1.1488376073018153889
1.1488022877932109189
1.1487522874598978806
1.1486893762925747264
1.1486156660969644161
1.1485397584508694191
1.148468879959223754
1.148416796746985602
1.1483932932009701666
1.1484059381122186938
1.1484630919603049382
1.1594715471694665432
1.1595229578995216446
1.1595434682926073489
1.159490805352189291
1.159362839351285146
1.1592093114657160413
1.1590817894280254219
1.1590033105442940631
1.1589629260143505807
1.1589376807787343804
1.1589187777632137255
1.1589210263787088628
1.1589698252567861569
1.1590690389561262297
1.1591969289521506514
1.1593185242784669331
1.1594116716181523952
1.1594753140446905082
1.1595217119798013616
1.1595490614082550884
1.1595413219866852472
1.1594739210753555181
1.1593322704414257274
1.1591175656445042996
1.1588467862721183455
1.1585457551248647956
1.1582487228194431328
1.1490457099606474767
1.1490021411827040509
1.1489517620453810753
1.1488911200661147127
1.1488197948559910611
1.148742252950837317
1.1486646465033545361
1.1485932790271280446
1.148533389290116391
1.1484930150802425963
1.1484747074918588705
1.1484885652712937265
1.1485278991958336459
1.1486091393430244434
1.1595201479286196822
1.1595545628072494448
1.1594986479378404098
1.1593792779302807272
1.1592542876632527804
1.1591845985648085993
1.1591806612575465962
1.1592139513797607986
1.1592456722636079736
1.1592583943968532978
1.1592651817947037252
1.1592920578129428666
1.1593460892201361556
1.1594094335644204996
1.1594560306653951542
1.1594787683093132902
1.1594947137601829823
1.1595233814922480953
1.159561317054094598
1.1595819767106050335
1.1595439521588697396
1.1594164840680212247
1.1591947184735096332
1.1589008993896827704
1.1585738246088765901
1.1582656082605800041
1.1491785422692957219
1.1491097208767457882
1.1490243443363161724
1.1489277054121604937
1.1488272697136991951
1.1487314833819577409
1.1486477569866486714
1.1485824508180053627
1.1485400318317360302
1.1485213282898800724
1.1485308285241400128
1.1485616378527898629
1.1486280204217866885
1.1595079392320322142
1.1594456227670884019
1.1593426691367045844
1.1592637111704739983
1.1592623017403189678
1.1593414945079150158
1.1594593161849806595
1.1595680121642382154
1.1596445222530420427
1.1596949682580093288
1.1597328330816407682
1.159758449941511893
1.1597557739931789733
1.1597103573614611083
1.1596321756541594361
1.1595570911106154455
1.1595181831775565051
1.1595237723657292328
1.1595475191003683513
1.1595413956146749523
1.159460210599781993
1.1592841954337274046
1.1590261244684809672
1.1587219401816160058
1.1584291010595060278
1.149135412792628097
1.1490340788541482109
1.1489281421425361351
1.1488259802235725182
1.1487371382069779813
1.1486675040705935924
1.1486213781015144342
1.1485984446848793716
1.1485964619200574877
1.1486165296330670405
1.1486511530729985875
1.1487129009681957825
1.1593404757719951714
1.1592507710422139677
1.1592166988654217796
1.1592752553059926246
1.1594227331761792765
1.1596142028727478568
1.1597942276793475891
1.1599332691483619229
1.1600275170047871232
1.1600806195372761476
1.160086440898932203
1.1600332119934213537
1.15991897925136489
1.1597679554609119368
1.159625017045652795
1.1595324122343679818
1.1595064366556424584
1.1595232876623302598
1.1595336404687202059
1.1594852673644138186
1.1593496635741653566
1.1591317887176684209
1.1588672531922763476
1.1586115435136912222
1.1591984543040743105
1.1591932800495750033
1.159296357690619228
1.159495899086731896
1.1597470669935598941
1.1599905408326705025
1.1601848426775249745
1.1603172265720316236
1.160388098589946626
1.1603946444688451045
1.1603271469509999214
1.1601884053921740492
1.1600044551932087167
1.1598214098490189361
1.1596847891455852597
1.1596184125781081597
1.1596044455285121622
1.1595990023192523921
1.1595469617648952454
1.1594179173909264779
1.1592127808276320167
1.1589666566805747472
1.1587340022664198713
1.159298513353843374
1.1594890303079359306
1.1597398314527653795
1.1599973051531677903
1.160218392166478818
1.1603853598439999306
1.1604977987528035666
1.1605521745710616344
1.160535175041094158
1.1604379601505871999
1.1602712662996985671
1.1600729670414409167
1.1598931665522984602
1.159769930091785195
1.1597064255919735665
1.1596677754937803062
1.1596104979089281173
1.1594996444709884109
1.1593319526262135799
1.15913420573565773
1.1589490368611969906
1.1602633304082001775
1.1604685301558306243
1.1606171869994434953
1.1607103229384583276
1.1607357130600153283
1.1606745352172187502
1.1605242515338132225
1.1603128878650688094
1.1600925758553100042
1.1599122529541381343
1.1597903201191406275
1.1597049843068667485
1.159620343261762887
1.159505598345944577
1.1593564472589970027
1.159194731608883755
1.1590531084185236033
1.1608658413212256111
1.1608629447079130692
1.16077753370679293
1.160619106214483498
1.1604280890863944986
1.1602488120214502487
1.16010256650968957
1.1599788346269732653
1.15984814358231203
1.1596924733275002506
1.1595133144261178249
1.1593359504704257024
1.1591898036709258335
1.1609506381022751675
1.1609640487032333311
1.1608890012030572692
1.1607501045898935832
1.1605849403159311795
1.1604155360010317555
1.1602411110671597694
1.1600475610458469422
1.1598295300295928811
1.1595987636021338751
1.1593865070469819845
1.1592230440355086873
1.1598214320490727314
1.1597524769708060788
1.1596696667616079868
1.1595278355472893317
1.1593061132976556493
1.1590399244489495434
1.1587991191745441455
1.1586348692895873658
1.1585429302672689555
1.158484062715018359
1.1584258094321615573
1.1583712959416123667
1.1583648299345532529
1.1584697195367172906
1.1587357628657444231
1.1591791668820978778
1.1597719144436695604
1.1604412224801969877
1.1610908625198232969
1.1616328908076407611
1.1600571600330229494
1.1600428266506785935
1.1599821059199755258
1.1598767942577157264
1.159692669664669884
1.1594195092792818347
1.1591016391267625618
1.1588202655653991879
1.1586355295509451757
1.1585412442620035556
1.158480873525674415
1.1584054354030286493
1.1583114700626486737
1.1582526963951664811
1.1583100904460239544
1.1585422951947406123
1.1589609890396994629
1.1595280318516558715
1.1601648154270176594
1.1607833072109348116
1.1613155526174885335
1.1617324516768285925
1.1595530480278419816
1.1599081163741911116
1.1600707328506221216
1.1601095107863859113
1.1600790375897260809
1.1599791108376567017
1.159774231844593384
1.1594604602687275108
1.1590941998836028493
1.1587736634611598419
1.1585729235920527724
1.1584870135894136389
1.1584438766429718815
1.1583748321296065686
1.1582690944182323367
1.158186332620824599
1.1582189402582785398
1.1584350122730848742
1.1588383646936037952
1.1593790442889109205
1.1599730282722389152
1.160540273873158279
1.1610313708215080908
1.1614336152166531146
1.1617543667547418629
1.1620073879896795077
1.1589604504731700896
1.1593820260248994813
1.159579482933085437
1.1596044190013630182
1.1595559505543768797
1.1594994533485938337
1.1594240091953829097
1.15926645273714235
1.1589958861315943217
1.1586571805664240831
1.1583519640026358477
1.1581688160066796467
1.1581142121219363261
1.1581152053892329601
1.1580948177640453256
1.1580432919902043931
1.1580291586171627127
1.158152611756364081
1.1584792712598765974
1.1589912187963862245
1.1596051565222049717
1.1602101293175597352
1.1607183510295289164
1.1610899263599456788
1.1613308853509620722
1.1614620737143686036
1.1615056595549415608
1.1614819185570059989
1.1583673702184886789
1.1585991904019683485
1.1586821951732146907
1.1586333836438045264
1.1585398707790901529
1.1585015036954706691
1.158552883782803189
1.1586331069863007315
1.1586300062361605256
1.15847938679030249
1.1582285145745918609
1.158001855128951485
1.1579137628920606051
1.1579880350803926081
1.1581478748444782312
1.1582931749209548489
1.1583910990179326905
1.1584947763267972043
1.1586893574332532975
1.1590226193184793857
1.159457640721251126
1.1598907527669126694
1.1602102320652369905
1.1603567285064901871
1.16033850643820724
1.160213918774769537
1.1600440273925762824
1.1598715715282252869
1.1597293701730353455
1.1596510628263645426
1.1577240795104122295
1.158097732838962779
1.158452193802383956
1.1586965203056838192
1.1588062751283232377
1.1588388823214490486
1.1588824078665294071
1.1589733037952130168
1.1590543900757219742
1.1590213512312541599
1.1588134990630791776
1.1584880644687860496
1.1581827659356458415
1.1580165412435341477
1.1580096518967424313
1.1580734426700687312
1.158094235257424387
1.1580394277494632238
1.1579801287759365902
1.1580243470248667847
1.1582351452453045759
1.1585809748234090488
1.1589493328438549291
1.1592226634096292059
1.1593439113104018201
1.1593300804190747044
1.15924084974614372
1.1591268720595326869
1.1590086980455649446
1.1588995176622627348
1.1588276252031208813
1.1588472763691393119
1.1578375777147567049
1.1581383404690772654
1.1584031028534973462
1.158542631050838656
1.158539013403763418
1.1584632981792399864
1.1584190248157217873
1.158453656513708907
1.1585049817130097516
1.1584554693843009954
1.1582327042410154316
1.1578824818140438513
1.1575470067532824814
1.1573557647735412957
1.1573241045778455138
1.157353115180685732
1.1573186355305800088
1.1571856425848590089
1.1570378010073159025
1.1570029051814880727
1.1571562190398780867
1.1574692920943958629
1.157820809200396095
1.1580851544809080966
1.1582028470120564467
1.1581970443661600001
1.1581288747951465901
1.1580431908097552629
1.1579466733418253277
1.157838933795199754
1.1577500583175341919
1.1577432693478399983
1.157881292057743261
1.1539565322197733455
1.1541540552415732179
1.1546182260486841376
1.154879591816801554
1.1547133476760440551
1.1543195957702401255
1.1570681736343251256
1.1573558347038566119
1.1576013620519201019
1.1577147422306961477
1.1576807008533422927
1.1575763855704910288
1.1575133126517989091
1.1575437587626673519
1.1576007007168409579
1.1575551210752414999
1.1573274556236836652
1.1569638455849007297
1.1566129785648717743
1.1564075720980926398
1.1563708740764877536
1.1563974873854840908
1.1563566150589366099
1.1562119061595961256
1.1560544547040221275
1.1560237777537780701
1.156197319378155175
1.1565404895327398016
1.1569204408421644992
1.1572027198123890912
1.1573270695232331651
1.1573244776816165036
1.1572624514720939448
1.157187147299343799
1.1571004014775598812
1.1569939016499484197
1.1569003949238529927
1.1568920327540743731
1.1570394300203634685
1.1573367119025190775
1.153895701041505184
1.153532802725456996
1.1537200625183798852
1.1541784402220163219
1.1544018850158161982
1.1541775422353997005
1.1537211384585750462
1.155841640144275706
1.156149527024458612
1.1564145507723206929
1.1565444713816590561
1.1565250413042833522
1.156433766357668036
1.1563865145959779657
1.1564365133059264501
1.1565156193778203253
1.1564889573223264829
1.1562772223098474189
1.1559273853333658089
1.1555913441642742256
1.1554057405279207771
1.1553935341361909472
1.1554473307294643725
1.1554305223998873053
1.1553059841880171099
1.1551679644990584528
1.1551626858189156799
1.1553668096348277405
1.1557430832960515765
1.1561541840942253234
1.1564616233414717339
1.1566067494437219931
1.1566244625005210889
1.1565854661018946103
1.1565363344291490488
1.1564763535638999947
1.1563921713258438206
1.1563173546389564628
1.1563315538374066005
1.1565057673969187935
1.1568360609283308005
1.1572075338143728018
1.1469182761628102796
1.1469080116300933714
1.1468961884211059665
1.1468937176544109491
1.1469105793127705173
1.1469515540453885105
1.1470233359827846087
1.1471202502126180978
1.147239993619866949
1.147369194300490669
1.1474996671683848071
1.1561000370406475657
1.1560335952730349529
1.1559905785717143889
1.156011470906544325
1.1561024781024191732
1.1562376546072532513
1.1563754755891635373
1.156484774948923766
1.1565543825439290604
1.1565839089598846101
1.1565762250859521476
1.1565207732833522325
1.1564191459546369067
1.1562930142568335068
1.1561777236175392325
1.1560993368951772986
1.156050187599323209
1.1559876649262790238
1.1558580279532089108
1.1556380758941646736
1.155363672445562484
1.1551185582617882197
1.1549937601672204401
1.1550424466464832562
1.155254206159430419
1.155559380005934722
1.155861405069495973
1.1560742503884551269
1.1561500438726699524
1.1560875065797857619
1.1559249410909837597
1.1557246959378548734
1.1555537527416461785
1.1554631973701865455
1.1554759302251293995
1.1555764979667100256
1.1462219161539128898
1.1462851421779509664
1.1463689875088602932
1.1464666872408231235
1.1465693732414408146
1.1466673823789181874
1.1467513298783851283
1.1468156360955532591
1.1468559210042352792
1.1468721296737511839
1.1468677155563782311
1.1468518300206054228
1.1468355744005542807
1.1468323106745808015
1.1468541445434656811
1.1469073404160823326
1.1469987246467248099
1.1471210603496206915
1.1472694397435703184
1.1474267540047287106
1.1475820056244474543
1.1560710870515362725
1.1560672593455532109
1.1561437653365380651
1.1562978815068589711
1.156499571524356007
1.1566916919193228619
1.1568243792981094398
1.1568808059956137146
1.156874595730652322
1.156828391530859923
1.1567583165600121564
1.1566628691549396546
1.1565377813504935656
1.1563933165825868166
1.1562580884582882579
1.1561640679990279335
1.1561159009481216664
1.1560829423273133454
1.1560166151611608321
1.155883707016176043
1.1556939262903020982
1.1555018478838088303
1.1553773338114514679
1.1553745246168229954
1.1555032370988067569
1.1557236543502167336
1.1559619262121403338
1.1561405353738694046
1.1562080506363745513
1.1561501064792698568
1.1559941252924763599
1.1557973386294260187
1.1556280946470229853
1.1555404704500515933
1.155559130113061217
1.1556681087036813071
1.1462680778423730565
1.146312129520801415
1.1463780911434451326
1.1464613375450898314
1.1465547736074654939
1.1466502271320795359
1.1467377450659475002
1.1468082763884708264
1.1468554867208888837
1.1468785857735681599
1.1468803926580655173
1.1468694092131739293
1.146857027795320727
1.1468572321961612026
1.1468840505886470638
1.146945482424102547
1.1470487624721690256
1.1471863510655566643
1.1473503404076696999
1.1475226126535429394
1.1476889892503330248
1.156262057988048042
1.1564492993658861408
1.1567153063650283951
1.1569934502064824766
1.157209087562596217
1.157312125362829125
1.1572971564823166801
1.1571977041743692904
1.1570602234062712377
1.1569149050241400722
1.1567718400876021434
1.1566217688811402109
1.1564675131246866524
1.1563319821286779376
1.1562435219099653771
1.1562155548622237156
1.156230434024929199
1.156243635908110079
1.1562092090466937755
1.1561076800720928581
1.1559603488195362431
1.1558148911513361767
1.1557252136656028796
1.155728095828949975
1.1558231880039986361
1.1559731119986871306
1.1561120705049905411
1.1561804194559821557
1.1561453540343218371
1.1560182341017226637
1.1558461620293964955
1.1556943787291460435
1.1556164233375152417
1.1556355361310102214
1.1463828588217224169
1.1464162260807888583
1.1464698459261448704
1.146539349492902149
1.1466185556782897415
1.1466985512410228232
1.1467707403232079155
1.146827057052841603
1.1468637067058065071
1.1468812792674747403
1.1468866731062319353
1.1468902729183150235
1.1469050669735956216
1.1469442692824514118
1.1470158103064360677
1.1471269139797941605
1.1472710937550134602
1.1474402437845094838
1.1476161214671718458
1.1477846781036800117
1.1565752416894419241
1.1568561385919005069
1.1571957278169164862
1.1575002340383118149
1.157692889954309301
1.1577283553911741354
1.1576165981897543755
1.1574144125298864161
1.1571926786680419852
1.1569983717870950812
1.1568452955303611951
1.1567225618205814186
1.1566167419318422738
1.1565302286323309033
1.1564767220586986696
1.1564680918247505215
1.1564972901174637165
1.1565365321381930741
1.1565458855255901227
1.1564944609294751654
1.1563782358119927274
1.1562239976758077464
1.1560784861422888081
1.1559909586643306589
1.1559909017175158397
1.1560628827465724289
1.1561567137007762174
1.1562074117193672507
1.1561720061729221509
1.1560521188935126702
1.1558914397081196945
1.1557520168170449804
1.1556896502748004174
1.1557248001385014291
1.1465627784747627338
1.146556075085264359
1.1465705042059213259
1.1466050035561070608
1.1466562436767453459
1.1467174097553880507
1.1467815004074437546
1.1468409882471093386
1.1468912223563991759
1.1469304174910042171
1.1469621028819092512
1.1469923848213330331
1.1470307702082309653
1.1470872411708263883
1.1471672847914855531
1.1472778517949562271
1.1474118354921123419
1.1475642287625873461
1.1477184555571007252
1.1478655951840688321
1.1573232450009252048
1.1576406952990003774
1.1578964142210623756
1.1580226472423640338
1.1579963415895584422
1.1578349028888328398
1.157591762056978224
1.1573305583423916243
1.1571076121494869859
1.1569456102027313449
1.1568389425950069693
1.1567725338569256888
1.1567344112778701337
1.1567231767624002181
1.156741825021931902
1.1567861434274140375
1.1568429016694246059
1.156885025488582297
1.1568780513597169968
1.1567966516752392625
1.1566481105499004656
1.1564696393268447672
1.156316222587660425
1.1562336641622183997
1.156227088160902694
1.1562611199965859843
1.1562765910186820761
1.1562314859061155747
1.1561199835768483091
1.1559784967466419925
1.1558597887610120303
1.1558093673884843877
1.1467655562440786099
1.1467340704163633269
1.146722839353906398
1.1467330726698030663
1.1467628936519091987
1.1468082863553705764
1.1468630291970716151
1.1469221687571524715
1.146981148176384302
1.1470387197643769905
1.1470955765372172763
1.1471565414100191038
1.1472276621448087575
1.1473123889985938906