/*--------------------------------*- C++ -*----------------------------------*\
  =========                 |
  \\      /  F ield         | OpenFOAM: The Open Source CFD Toolbox
   \\    /   O peration     | Website:  https://openfoam.org
    \\  /    A nd           | Version:  12
     \\/     M anipulation  |
\*---------------------------------------------------------------------------*/
FoamFile
{
    format      ascii;
    class       volScalarField;
    location    "0.015";
    object      T;
}
// * * * * * * * * * * * * * * * * * * * * * * * * * * * * * * * * * * * * * //

dimensions      [0 0 0 1 0 0 0];

internalField   nonuniform List<scalar> 
106891
(
301.22481267260889126
301.20393890532091064
301.18817503369893984
301.17917357463988992
301.17818016260309832
301.18544584541808717
301.20030052421765276
301.22190912528748186
301.2480694126616072
301.27638397119153524
301.30491461667770636
298.44481150352567056
298.44777119781412011
298.44529053425048915
298.43295922560065492
298.40946740298869599
298.37705410179734145
298.34227994979778487
298.31323434671725181
298.29607886006033368
298.29247748392657513
298.29839014883026493
298.30718292409329706
298.31338094506355674
298.31559750675563691
298.31817712661330688
298.32756555008239729
298.34811559595965491
298.37975060973326435
298.41828046745843039
298.45886441937454947
298.49879450299988548
298.53747203531793275
298.57377458139040982
298.60331587120055019
298.62011922778543749
298.61954148572436907
298.60176801211139264
298.57346541290070263
298.54481867642624593
298.52488319319417087
298.51865930664348525
298.5262119869818207
298.54351426980161932
298.56411442796280653
298.58259194300961781
298.59366654041798483
298.59554081993536556
298.58942597693527432
301.34477970845364325
301.34905280511043202
301.34978050660043891
301.34617874372298729
301.33767040719294528
301.3242555776484437
301.3063969043600423
301.28557854700000007
301.26338102384158901
301.24221251582872583
301.22401001592612602
301.21055108536108946
301.20324768266266346
301.20268682430253193
301.20937857759145118
301.22187316162450088
301.24051573179013985
301.26205796601499287
301.28704206479898176
301.31106353482027771
298.43931769513915242
298.42879561322070003
298.41147477990881498
298.38781044307114598
298.36058846257327559
298.33497548045812664
298.31666674499854253
298.30973694026897647
298.31422574563930539
298.32567258427843626
298.33746983683317922
298.34445669375992338
298.34636238006766007
298.3475971883474358
298.35443265692839532
298.37123097834017926
298.39777951150608715
298.43019365203008419
298.46445176682942702
298.49884067509259467
298.53369220869637957
298.56883898717677539
298.60052486225993107
298.6218853763832044
298.62703937672802113
298.61461752213278942
298.58987965802390363
298.56220985636093701
298.54193189851150692
298.53525883665287211
298.54348962145206769
298.56333206454473839
298.58906353943302747
298.61368248457972641
298.63137408250793214
298.63788822218867836
301.34584041714771274
301.35564135971617361
301.36187214515877031
301.36365007780864289
301.36015106881313841
301.3513161413940793
301.33754043511635246
301.32011191081801371
301.30076279431017383
301.28181803530463867
301.26534190332847629
301.25326682068498485
301.24659672915311148
301.24589348793062982
301.25137114669331595
301.26169975189708339
301.27745088251685956
301.29540961349340478
301.31713017814342948
301.33729736382622377
298.43070331982801235
298.41135258034296385
298.38842754468163321
298.36461445060626829
298.34330265112549796
298.32819694263639576
298.32249004422607186
298.32758416211100894
298.34173255202313157
298.36006749842380259
298.37601576448463447
298.38522916351513459
298.38806279008758793
298.38869676260242159
298.3931746803717715
298.40581838326437492
298.4271675373302628
298.45481146956706198
298.48561318627179162
298.51798775045222101
298.55166641221160262
298.58550369996771678
298.61585365467908559
298.63648374665848451
298.64178372603009848
298.63088108464631887
298.60756791869300741
298.58166532087858513
298.56245781190870048
298.55712703182121004
298.56743542813364911
298.59012284571434748
298.61989977472262581
298.64892106520704829
298.67128699985539697
298.68080077462661848
301.35012070664998873
301.35906153261021245
301.36435896631093101
301.36503337774928468
301.36074359157464642
301.35163626741746157
301.33877456902479253
301.32345189387643813
301.30771395323495199
301.29343813070505576
301.28269065752346023
301.27670616783785817
301.27618019372926028
301.28137071517085133
301.29100377340040495
301.30533577447130256
301.32153709970589262
301.34068204512794864
301.35831900461664645
298.40676199099891619
298.38234182026673125
298.36386215348778705
298.35320946192081237
298.35036294497001563
298.35512977892528852
298.36594018939814532
298.38041228138365568
298.39572608782862062
298.40879938514689229
298.41775872104642531
298.42317936898416519
298.42774690418912087
298.43479328148043805
298.44684126316474249
298.46454079162771222
298.48696028401849389
298.51293536119800365
298.54154516997459723
298.57199546494882725
298.60260777440782931
298.62986780785513474
298.64873087917789007
298.65438682089177291
298.64561702530397724
298.62589368684706415
298.6031448983150085
298.58668841815546102
298.58390945463986554
298.5971387582233092
298.62394740128348758
298.65774460349325636
298.6915133942370062
298.71656050358154744
301.33773480464094519
301.3506267371890317
301.36250555344309987
301.37214673610765203
301.3781181304857455
301.37960277680849686
301.37618504687378618
301.36832830405847972
301.35689129523012753
301.34362077308776406
301.33012594792711525
301.31849663834941566
301.31014383767080744
301.30629592575985498
301.30744853422027063
301.31286762029259307
301.32291532134047429
301.33516496414057428
301.350349324109402
301.36467520619203242
298.40185326395726406
298.3730955341391109
298.35837946060689774
298.35882745987333919
298.37121325675190064
298.3904369322847856
298.41149900659235072
298.42989074579395492
298.44312888334764011
298.45142734343693292
298.456789271375726
298.46144908149113917
298.46696661208164869
298.47421762036304926
298.48370810927679031
298.49613454750800656
298.51251137805343205
298.53363226448607293
298.5592306176675379
298.58775289458111502
298.616723092204154
298.64285997625898972
298.66240320578151568
298.67200885552551881
298.67023062158119728
298.65884805012530023
298.64363798611037737
298.6324914397403063
298.63220607743181745
298.64572248568816804
298.67125550970416725
298.70339174867598331
298.73412921379349427
301.34835258790451462
301.36472615832695965
301.37965708278289867
301.39148241673746043
301.398870908126014
301.40073955181856036
301.39706978888659705
301.38833221979444943
301.37597287469458252
301.36172856470187753
301.34796266328419279
301.33619877912082075
301.32820213995353242
301.32493882620775594
301.32646325822747713
301.33276434324864113
301.3421348063538403
301.35440671271578594
301.36628615385745888
298.39937267167368873
298.38828284662321266
298.39466760410221013
298.41428352945644065
298.44042651864668869
298.46611036345518642
298.48624079448137536
298.49867636643324431
298.50426634646817092
298.50608985261737871
298.5072749825898768
298.50942731980399003
298.51269637332507045
298.51712392540838437
298.52404476029653324
298.53582628418973854
298.55406785487997467
298.5781938455432396
298.60557584731969882
298.63228122238626838
298.65484667685808517
298.67107119704724028
298.67950660921979988
298.67973588498603021
298.67429784879067256
298.66747913196638819
298.6657246456612711
298.6744553916068412
298.69598280484331099
298.72764388968795402
298.76304970165699615
298.79366221841792139
301.34937252679543462
301.37061692657016465
301.39167785292067947
301.41063455643683255
301.42557261713062644
301.43472284234530889
301.43715833131125237
301.43271934151425739
301.42226436264911626
301.40731282409007008
301.39027768713594924
301.3734996191906248
301.35929184590690966
301.34918675688044232
301.34404200384574324
301.34432329945974516
301.34849373525509009
301.35624660717752477
301.36424367706189287
298.4360309416276209
298.45026905660762395
298.47506102977530418
298.50321071755331559
298.52797005033994537
298.54513523737597325
298.55357770177113252
298.55480022093450998
298.55186303224581934
298.54767255849327512
298.54429591008403122
298.54262186770949938
298.54306497597690395
298.5470278320146349
298.55648415413185148
298.57286570914686763
298.59590396462829176
298.62277442799069149
298.64966258830384049
298.67334460071361946
298.69176842435575736
298.70389759285939135
298.70976650904071903
298.7112297846005049
298.71220732992492231
298.71801767655227877
298.73341446062573823
298.7598520936930413
298.79360880083441998
298.82730873042595476
301.36963141144514111
301.39413644296490702
301.41865302720242425
301.44086284662046182
301.45822506700989152
301.46877690085949553
301.47134489528701806
301.4660178660790848
301.45373706899317767
301.43663321755843754
301.41716245822743758
301.39836941374284152
301.38258200549273624
301.37123654903706438
301.36556688939788273
301.36465324941127619
301.36839084510722842
301.37363504375213097
298.52364260744116109
298.5484556319848366
298.57231094982495279
298.59158233429093343
298.60462237658765616
298.6109740221637594
298.6109077418576021
298.60587226362707725
298.5977930654016177
298.58846094866504473
298.57955839411886245
298.57246317769084953
298.56891000460552732
298.57118998690009448
298.58154826884373279
298.60080987387209461
298.6274080494083023
298.6577986887000975
298.68746217156495959
298.71234237175923454
298.7296736552871721
298.73871780337105974
298.74124673124913443
298.74167184151286847
298.74647857855438815
298.76127923589825741
298.78816009062757075
298.82386252541772365
301.35569715057016538
301.38342169742850274
301.4135776457025031
301.44351480794000508
301.47017496329868891
301.49083210767793162
301.50324190896009213
301.50633154148181347
301.50021521593140506
301.48643566000993133
301.46722884789591035
301.44587060093238051
301.42534361655413022
301.40793379770229876
301.39565880546984999
301.38821135625022407
301.38648029066757772
301.38723424898512349
298.60353472687694421
298.6232471266811217
298.64030273037701591
298.65408749941030919
298.66364693976157696
298.66723067272744174
298.66313338198233396
298.65215569114286609
298.63623521764498037
298.61801672172816779
298.60059882202199333
298.58737304638532351
298.58211564167908136
298.58814115335536599
298.60721550811871339
298.6379539897069435
298.67576125228100636
298.71386889182122104
298.74549865880265997
298.76604766871861329
298.7743216024957178
298.77292016712431177
298.7678485309540406
298.76684543221335844
298.7763634254366707
298.79877794094829824
298.83141965165503962
301.37765006833586767
301.41183632783236135
301.44774779840440715
301.48220670730700022
301.51208692651800902
301.53453068021434547
301.54758096851190885
301.55051322840319017
301.54410428363343044
301.53002443509694785
301.51083684387583617
301.48971001917198009
301.469227514925592
301.4525460951734317
301.43974209426039579
301.43341632953837461
301.42985095074709534
298.61918353275569871
298.64470536305475434
298.67256116882668948
298.70014599270666622
298.72474516864048155
298.74246851076702569
298.74976907639029378
298.74480202593804279
298.72697442859328021
298.69876975935341079
298.66441973104906538
298.62985973353795544
298.60228647492186838
298.58845552085028885
298.59269505784646981
298.6149562643188915
298.65097025177101386
298.69324732924798127
298.73329131858270102
298.76411450735986364
298.78216665409757979
298.7878141495010027
298.78568386458942996
298.78310613736465484
298.78725263190676742
298.80283820986068122
298.83023452309134882
301.42781871437750851
301.47041447662587643
301.51018825667858891
301.54407306078570628
301.56957043533998331
301.58554010032435144
301.59165790087689629
301.58902323828823455
301.57918174892205343
301.56486278766612941
301.548436375011363
301.532425053266536
301.51877669506319535
301.5081822891282286
301.5021096425422229
301.49760401341711713
298.61401777531216339
298.64484055419734432
298.67963279736000004
298.71448119710692026
298.74526492071026951
298.76786513965089398
298.78127390647597394
298.78428230575616453
298.77577530047227583
298.75427742163600442
298.72061416962247904
298.67991807603743837
298.64103714386209276
298.61374266598738814
298.60520718285988551
298.61708792639859666
298.64579200514708646
298.68416493658179434
298.72400570622971827
298.7581331230388173
298.78145289582266741
298.79200305131388404
298.79175556910365685
298.78653565028918138
298.78406237182508676
298.79111212582927237
298.81090687071258571
298.84133084883973197
301.51577535506675076
301.56595567859267248
301.60739916882226908
301.63745600844885075
301.65521041365565225
301.66072439496480229
301.65570649215902677
301.64240244886644859
301.6240953463032497
301.60315255250162636
301.58250032529912232
301.56363920027979475
301.54745349383455277
301.53463238658775936
301.52292434031977564
298.64598989096401738
298.69115666388688624
298.7345578370367889
298.77070472636069098
298.79666820544071015
298.81317674893148251
298.82055316554476576
298.81683679222834371
298.79881136999597402
298.76544539750778995
298.7208776553785583
298.67458055362618552
298.63820408537304729
298.61989600026913649
298.62178020397362843
298.64020840142751467
298.66881009538502667
298.70108039746173745
298.73199225731349316
298.75735440642068852
298.77505628926792269
298.78555584214677765
298.79250853109306263
298.80126749058831592
298.81684241542882319
298.84159115336206014
298.8746988300566727
301.58839217227676954
301.63009779457934201
301.66184688091988164
301.68272737605747125
301.69263327026254728
301.69280190167165756
301.68503670960399177
301.67143518757973197
301.65414216994162189
301.63495491815871219
301.61582058683268315
301.59636628118317958
301.57908499113949574
301.56006260886960035
298.70539913323739256
298.75602631425732625
298.79628690830270443
298.82610010448081539
298.84696679838970113
298.86016855302432305
298.86258733980810121
298.84951186100244058
298.81881568175396069
298.77435102437885917
298.72585026198652258
298.6850835532951578
298.66014707233227909
298.65290191768963268
298.65990694476073486
298.67603743453770448
298.69707898682497671
298.71996610132242722
298.74211688784680518
298.76215188752354379
298.78001355497485747
298.79767520152159932
298.81840459054279791
298.84495093160836632
298.87760951265352105
298.91439945806791911
301.61875382338564577
301.65011357176490492
301.67154995185234156
301.68383662087035191
301.68861642960001745
301.68765501736442047
301.68263560377675958
301.67509386247047587
301.66571167415543187
301.65554805269545113
301.64305567560802501
301.63054296297644896
301.61354230316044323
298.77192334525773276
298.81355750714868691
298.84424187302624887
298.86681596243568038
298.88249593801430137
298.88812971396492912
298.87811840652597084
298.8496391468831348
298.80605678009186477
298.75650203466074117
298.71170844087993146
298.6795609183977831
298.66277352682669743
298.65978244710112222
298.66764669118481379
298.68396826419922263
298.70627435886206058
298.73183459462757128
298.75777732938314557
298.78219407229818216
298.80520737217347005
298.82914718475086602
298.85703595953077638
298.89025114296407537
298.92827109942680863
301.65513387716760008
301.67723183326654635
301.68966281063364931
301.69472761797754856
301.69456487996473015
301.69140373821585399
301.68633836326500841
301.68012857921485192
301.67244654562693995
301.66215466188424443
301.64964431262018252
301.63173128648861621
298.83041388556279117
298.86398877627345883
298.88938111973249079
298.90716350918245325
298.9146822822493732
298.90718454871449694
298.88188186546943825
298.84191798679097474
298.79543319521553713
298.75176294567364721
298.71742715383328459
298.6948509322692189
298.68332865745412619
298.68147970373979661
298.68842796408773665
298.70352275519962859
298.72556729625665639
298.75213831490401617
298.7806666280842478
298.80944306144647271
298.83869021132625221
298.86990110189930192
298.90457786035551635
298.94314340281977138
298.87242328164143146
298.90112234767030941
298.92005011444541651
298.92707858589534453
298.91948191976689486
298.89596373339679758
298.85944661637591935
298.81694847474636845
298.77625602643257707
298.74259314239554897
298.71723330499611393
298.69946659551931134
298.68861875644171278
298.68528803973617869
298.69083764574162387
298.70637762884558697
298.73105165695727692
298.7629922519770389
298.79944469697016984
298.83900602234143662
298.88103957199723482
298.92547597705350881
298.97169754200638181
298.93151311761477018
298.94730730392126361
298.94914330321370244
298.93447288174127152
298.90425077482336746
298.86369173773664443
298.82027512649972323
298.7802321659173117
298.74663732296727403
298.72020552239069957
298.70098523330290163
298.69006350946909834
298.68933306898782121
298.70034897345493619
298.72267109165289867
298.7535535248433689
298.79026731589868859
298.8305789729468529
298.87391988337867588
298.9203097374137883
298.96890669029193077
298.92025040031711569
298.87686868898515513
298.83058836880530862
298.78931345030110833
298.75715030450805898
298.73408675975650794
298.71844782689169051
298.70956180541355707
298.70877397509428874
298.71814370401972383
298.73833005321370138
298.76744378397017954
298.80297351804387063
298.84271650447504953
298.88601136425461391
298.93292571368357358
298.9825926292070335
298.76364270122530797
298.74324400722520068
298.72627889027268111
298.71162124572828134
298.70188354569398825
298.70132389804018658
298.71303999440004873
298.73732705443569557
298.77206492878002564
298.81495846808360284
298.8640439669323996
298.91818458528706515
298.97549864149550558
298.7598519995876245
298.73563904314511319
298.71378886255757834
298.69758152627275649
298.69209524046533488
298.70095271725051589
298.7248836098711422
298.76196780190832669
298.80936369545366915
298.86412392468565713
298.92393211922251339
298.98565344402516075
298.82179833819975556
298.88034149985213617
298.93794968066316642
298.97986470308347862
299.00149478879365006
299.00923932707428321
299.01482238076346221
299.02697244227982765
299.04593847897450587
299.06530623914795797
299.07699617291450522
299.07519875730059766
299.05805472300374959
299.02653669045116658
298.98222215771158972
298.92623799172650934
298.85885909651506154
298.77936750184005632
298.68761814992359405
298.58626138065511668
298.75504983071596143
298.7749760022898613
298.82630742531142687
298.88759949817705319
298.93795235157023171
298.96703480000820718
298.97806925292303504
298.98312484096396702
298.99343136421339295
299.01166087514667424
299.03213147221759982
299.04692956836703388
299.05077817107252258
299.04325448750830674
299.02681976130634212
299.00260506408932315
298.96884823953092791
298.92163350252798182
298.85637264384610035
298.77100758638260913
298.66840993149799033
298.55736350811901048
298.89795514764159634
298.81398368802138066
298.7677772764093902
298.76759835061551485
298.80657908682695734
298.86462625982949248
298.91788548127379954
298.95161399504416977
298.9654780419070903
298.97043372770593805
298.97864660175389417
298.99425711169715214
299.01217695004038433
299.02473583988199834
299.02784343247964216
299.02311337610831288
299.01485730414714226
299.00495670254167635
298.98953665183790918
298.96112315791054925
298.91173076533544872
298.83747292592676104
298.74132547106302127
298.63309370787817443
298.52641780153987838
298.43583175932133145
299.02675784309775509
298.96282347955241221
298.91799973163392679
298.90209226088330752
298.91883190368355372
298.96103719509972052
299.01160081449006611
299.05076847790206784
299.06777808493092152
299.06565934277040242
299.05728532736617353
299.05539619546232188
299.06299586884318842
299.07223336048826923
299.07235090886240414
299.05814153496908148
299.03233625542577556
299.00191248555034917
298.97205331223057101
298.94153252386144004
298.90489874307263563
298.85643936113876862
298.79498051951856041
298.72553720323770676
298.65795372274357078
298.60247604723264203
298.5673336479402451
298.5576839569558274
299.10821566062475085
299.13578591596785827
299.16194535737992055
299.17905208410309115
299.18887998124461092
299.19810851970129306
299.20998600601694761
299.21980098276623039
299.21775204627709854
299.19790376811005217
299.16431792890188035
299.12770179464996545
299.09704926014256898
299.07223828738671045
299.04386282225669902
299.00195792929991967
298.94589673072084679
298.88619556455824977
298.83816372327459021
298.81355719723387665
298.81443360748170335
298.83397568257100829
298.86197602522838679
298.89093276393452925
298.91795589834896418
298.94367129529473459
298.96830666729795212
298.99044943050910206
299.00882922336307956
299.02390908127597413
299.1780623572095692
299.18680134458190878
299.18772853696560787
299.17448721009731116
299.14891237812776126
299.12161144819668834
299.10540403691152278
299.10570221496203658
299.11559892920678294
299.12108219380462515
299.1115429436055706
299.08891137791289339
299.06482740661789421
299.05041449745931459
299.04757467483739219
299.04739680057633677
299.03857852545644391
299.01878229618796468
298.99738393055224606
298.98840585551567983
299.00140786022393513
299.03550745619401141
299.08009619779659261
299.12251811168454196
299.15518309822306264
299.17756025606053072
299.19345982515255855
299.2060878339217993
299.21596505934383003
299.22345598833254599
299.23110527586521812
299.2446756027558763
299.15062089674916024
299.18347291658062659
299.21182370845946252
299.22733493224006907
299.22924134034087729
299.22593148730584289
299.22884050993769733
299.24305074582503039
299.26153861156529956
299.27086136025923224
299.26200423922728078
299.23848568749605192
299.21461140240916166
299.20421617354725186
299.20984195720529897
299.22211022427239868
299.22878611270402871
299.22656142137697088
299.22439412519327107
299.23576530640474402
299.26850789657612495
299.31939158476217244
299.37518618045521634
299.42200466685733318
299.4529376191471215
299.47003892554312188
299.47972302533503353
299.48700017312950195
299.49293183144936847
299.49772472328004369
299.50466652673975432
299.52048620344044139
299.5519535478406965
299.32285096849352612
299.32153697661669867
299.34777759733736957
299.35426058076234312
299.3176524681963997
299.2579172273946142
299.35070426710740321
299.3908331564256855
299.42731235978129689
299.4506855280541231
299.45904690883980948
299.46008887664561371
299.46534800633571649
299.48051029387255539
299.49891155186946889
299.50711605164303819
299.49650158506545949
299.47141334326585138
299.44718871947071648
299.43790485476154117
299.44644633362281638
299.46220829054504975
299.47149106490365966
299.47011219109907643
299.46720843226762554
299.47724668133361092
299.50848917251613557
299.55765575158551428
299.61111423737457926
299.65475977178118683
299.68203946217971634
299.69591526995930053
299.70335007220376156
299.70928086268355628
299.71408042801448346
299.71690990090365858
299.72107403497403766
299.73398158751945175
299.76301416705894098
299.80780986239750519
299.46606834585253409
299.41881348562367293
299.42965967379996073
299.47103053809939865
299.48974473055983481
299.46180883389644123
299.40840347670922483
299.6690018320460922
299.7060839153846814
299.73927765471501061
299.75870101373493526
299.76245160425867198
299.75827028028197674
299.75828266703621239
299.76842856327698428
299.78203119359380935
299.78501317087784628
299.76868739418307541
299.73744520311043971
299.70693815871305787
299.6917444752953088
299.69477339679076522
299.70521496592311905
299.70866077461505483
299.70073329117190042
299.69087325680686718
299.69441554500787106
299.71977433056002837
299.7635492058943214
299.81164451695997286
299.84937829233456341
299.87022169983765707
299.8774843354141808
299.87850525506860322
299.8782967950618854
299.87693482287875213
299.87297171321773703
299.86971355261511007
299.87542659391323241
299.89772498300698089
299.93662275667628592
299.98048466510550725
301.20370928090716234
301.16093358491212939
301.1197502779711499
301.08390127654189428
301.05664530945773549
301.04133778406099964
301.03878440302048602
301.05061631358688601
301.07491267329658058
301.1105288947061922
301.15306750551110326
298.386477379986502
298.38173179351372255
298.36945890938181947
298.35166521879614265
298.32949141998204823
298.30408907199091573
298.27791002097387718
298.25576878083239762
298.24361085307964458
298.24538045631794603
298.26108060775572994
298.28529454142909572
298.31153261388544706
298.33547866590356534
298.35653301309935159
298.3765836382389125
298.3971409353908939
298.41768976844372219
298.43600771318421039
298.45063683679865107
298.46293731117964398
298.47638818588347931
298.49396411079629843
298.51566308863345967
298.53791439162449706
298.5551697855660791
298.56302265423141762
298.56049767770144854
298.55056134996669925
298.53851679468027669
298.52970921089900003
298.52771434289252284
298.53338054244613886
298.54487767304510726
298.55871489311505229
298.57065841786595684
301.29123117545509558
301.30540979526995216
301.31789132313804203
301.32764509446246848
301.33336565404977136
301.3333815518872143
301.32635536084887917
301.31129628550206689
301.28810825045871979
301.25732177614582952
301.2208753013476894
301.18144424313999252
301.14275104931135729
301.10873534025688514
301.08294084370413657
301.06898687354419053
301.06777726470483003
301.08094792924566718
301.10643599157742756
301.14283190093573239
301.18516804769922146
298.37211817226153698
298.37265321099823723
298.37305132406896746
298.37117759970476527
298.36422948637959962
298.34959539208648494
298.32802006208379453
298.30494528161926837
298.28825328175781806
298.28392584850132607
298.2933503520741283
298.31227116047449499
298.33384281733054877
298.35271640915220814
298.36765304658774767
298.38124009542747217
298.3965706050986455
298.41495005057782919
298.43552251830612931
298.45663096972890571
298.47745228167366349
298.49835993888689245
298.51946305266119452
298.539833690857904
298.55696680363024598
298.56769336897167477
298.56976880565912325
298.56337389759744383
298.55176190971377537
298.5397547293210323
298.53237205196171544
298.53300815840964333
298.54251351207392418
298.55866411072156552
298.57719863696127049
298.59296394592280421
301.27126391191484345
301.2832536111045556
301.29522404621724263
301.30614622525990853
301.31461649524976565
301.31882078179893369
301.31708205816397594
301.30782165939677952
301.29052740065850458
301.26550874516749445
301.23444314569582048
301.19979153966158947
301.16515647384159138
301.13435572794361406
301.11112448310075251
301.09910355439228624
301.09941967091441484
301.11346218772342809
301.13932079604848013
301.1749851906179174
301.21554958134743174
298.36696826106157232
298.38155374265306818
298.39586820188134197
298.40281369516173982
298.39726153268833286
298.37934930784155085
298.35528195037272781
298.33471290006139043
298.32606152595946014
298.33195498254070799
298.34892810743167502
298.3688408808596364
298.38464924812484469
298.39396897142358966
298.39925169467483101
298.40577944651948883
298.41830104043083338
298.4386699787542625
298.46557163988694583
298.49571258641918803
298.52541780265488569
298.55107266663202381
298.57001808626870343
298.58100709052962429
298.58383621734162716
298.57943506344292928
298.56926748256586279
298.55636157048684254
298.54470326957914494
298.53888039489356743
298.54233800493699391
298.55614624646369748
298.57783718511080906
298.60203073104679561
301.26109014335025904
301.27446712604859158
301.28854047570615649
301.30174309854385228
301.31195524267417341
301.31714054492897503
301.31536800204372639
301.30566047963520759
301.28787487229919861
301.26342023743103482
301.23460822010270022
301.20497714728389838
301.17818384323470582
301.15778287874337593
301.14724945029985292
301.14753299701692413
301.16005694684366745
301.18286837893487018
301.21418271874244965
301.24922827837826844
298.38323284649402467
298.40667889777193977
298.42943737607726007
298.4428268219965048
298.4424397257616306
298.42875360174662092
298.4079424751474221
298.38930078797238821
298.38062301522984399
298.38389596957631511
298.39507424151014447
298.40665230676523834
298.41224329821699257
298.4105556714594627
298.40588247375495712
298.40595680825128966
298.41776089866664279
298.44419423747626752
298.48233167843284264
298.52472721508979703
298.56246167342368381
298.58837530383692638
298.59917535958720691
298.59633413461602913
298.58483975930272436
298.56992159909037809
298.55600418831556908
298.5458762204470986
298.54172924112202736
298.54555815010201059
298.55844328026228141
298.57917868099565339
298.60410189191475183
298.62707767723190955
301.23290519964405121
301.24672258201172781
301.26263132048893567
301.27922386797047238
301.2944190224088743
301.30603007108953761
301.31187562952231929
301.3105496477350016
301.3014134734502818
301.28529476529320164
301.26397733210734486
301.24054033546264009
301.21842006952164184
301.20100706584992167
301.19179465968966269
301.19177990995069649
301.20269655807487652
301.2225724356082992
301.25034422310653781
301.28114032944091605
298.44496392821986319
298.47214506452496607
298.48603566685119404
298.48311909912439432
298.46691346662782962
298.44536834345569787
298.42787843271173642
298.42096316959668911
298.426191617712675
298.43887045898026145
298.45095437790212145
298.4557484346166234
298.45118217447549114
298.44117638046139973
298.4337876512774983
298.43737413998843522
298.45717381247095545
298.49227768246021242
298.53529350036302503
298.57510203811153815
298.60211267818323222
298.61146441531349183
298.60468639964449267
298.58826749186152938
298.5697027234879215
298.55516593483986298
298.54794811033531232
298.54973557391929262
298.56065933402527435
298.57975602211939758
298.603864400149007
298.62808478269084844
301.23507888967856161
301.25045118750011852
301.26762245684318486
301.28470795004744787
301.29977268700031345
301.3107210250617527
301.31607875826483678
301.31496409683455795
301.30768235701111735
301.29520130725080662
301.27983045680497298
301.26414026899755072
301.2511477580408723