/*--------------------------------*- C++ -*----------------------------------*\
  =========                 |
  \\      /  F ield         | OpenFOAM: The Open Source CFD Toolbox
   \\    /   O peration     | Website:  https://openfoam.org
    \\  /    A nd           | Version:  12
     \\/     M anipulation  |
\*---------------------------------------------------------------------------*/
FoamFile
{
    format      ascii;
    class       volScalarField;
    location    "0.011";
    object      k;
}
// * * * * * * * * * * * * * * * * * * * * * * * * * * * * * * * * * * * * * //

dimensions      [0 2 -2 0 0 0 0];

internalField   nonuniform List<scalar> 
106891
(
0.027702809343346707083
0.027696863667522518548
0.027691087106990072697
0.027685962762414386557
0.02768123110064772685
0.027677128436250857113
0.027673467062526768689
0.027670578150927077621
0.027667717343227038462
0.027666449839495430713
0.027663138249620626563
0.020039525996348450665
0.020216886319464215382
0.020376054999064096424
0.020520337197830858939
0.020648331860087649342
0.02075516849411022241
0.020833022224656595062
0.020876229014628891467
0.020888718806978335413
0.020885467789345336931
0.020852027545617969617
0.020709991357252228311
0.020498429908025309759
0.020358144936092770899
0.02028303995476892635
0.020255871023148842164
0.02025280685462593766
0.020265267655311586248
0.020326434976443985558
0.020525050289886943855
0.02086709553615418225
0.021243011356062345418
0.021637890421148307102
0.022027872388606328097
0.022378850159068947728
0.022670958242255394299
0.022897143104968511323
0.023062508551640485688
0.023177358171283902327
0.023248782388839685231
0.023284065028114569323
0.023293165898701569116
0.023289782688118512016
0.023262250887230905005
0.023145271495654207161
0.022866668418573248694
0.022624867765377892903
0.022457699782431044672
0.029221870774263837556
0.029205085377626109622
0.029192912288657387604
0.0291792411640294444
0.029169883307563489183
0.029159255708114707739
0.0291521926399499684
0.02914375409394139721
0.029138147362160086301
0.029130479866743715783
0.029124885982273682195
0.029117144941063329011
0.029111784021611832041
0.029104516648783482213
0.029099807733796969472
0.029092938955044455457
0.029088845748881108494
0.029081725849313146831
0.029078331123723853008
0.029069185119612175189
0.021566995407898342102
0.021638617238834312317
0.021684692339528154059
0.021716612659429725823
0.021738868740435325633
0.021755611483944163609
0.021763922396688541172
0.021765109072443816068
0.021757717850646236812
0.021713471922187498053
0.021554499145818094979
0.021356555682197894686
0.021224282135936481386
0.021153006505097889101
0.021128330764510212803
0.021127276062391332073
0.021149731729569017785
0.021255066220204388988
0.021581592246418417058
0.022017840722372852835
0.022439865853780549543
0.022841630192589092163
0.023212605560212921929
0.023537471633897105727
0.023813153234027797239
0.024041586678165902113
0.024226308254044426338
0.024369639647475880434
0.024470365154076117314
0.024527228490258259214
0.024547749827250775478
0.024547628367655206783
0.024529828859283332038
0.02444315385457923942
0.024174821078004886388
0.023886181136158972371
0.030780242857706644616
0.030759888695184905288
0.030746349172371501696
0.030728084165093944718
0.030716152334837737437
0.030699925220500714346
0.030689682354875902348
0.030675092769590295294
0.03066592426944404412
0.030652192471419811154
0.030643530932990582782
0.030630411856431744716
0.030622349196245762792
0.030609634533659751954
0.030602315666080803086
0.030589496277732452362
0.030582518484084109112
0.030568874145224120276
0.030562040501163206807
0.030544387130406674274
0.022637155770100711449
0.022724548838163820264
0.022805447891700681567
0.022870610267344080452
0.022916530694481605096
0.022941233893400993921
0.022949171663061897902
0.022946093762711543967
0.022916910530878221997
0.022787700280639106715
0.02251622291171178486
0.022308654434166918373
0.022183793649975701995
0.022130102791513707461
0.02211973569983593027
0.0221330030684316649
0.022219452230702253087
0.022526421435381936698
0.022965164168686109936
0.023361650791774636604
0.023732005923045872836
0.024080055306528302256
0.024411970783601136953
0.024727867254474240888
0.025029138713723479009
0.025308940913783172649
0.025558528481494865309
0.025764092757365315151
0.025911161762048398605
0.025992486086671425655
0.026020133478306721464
0.026018689430315489197
0.025987175991459138258
0.02584078113642804958
0.025459573220915524688
0.025121336426011841442
0.032426077436669108189
0.032412588851612460228
0.032389605823104239413
0.032375663480635773206
0.03235274164864208879
0.032338484135206319037
0.032315734104183112263
0.032302048505821225055
0.032280556793534011251
0.032267476690814242413
0.032246757579804156968
0.032234443923770415841
0.032214212845289622034
0.032202782813779598503
0.032182055471369021282
0.032170684206381729153
0.032148772150497238742
0.032137838762781013868
0.03211024027271509873
0.023578162534469607192
0.023815190355961537994
0.024041150047671423079
0.024235707349468990635
0.024377002909996017821
0.024460086369097189252
0.024490277157976837741
0.024492168933675159681
0.024470838219660506763
0.024362868914439700374
0.024062191375992893205
0.023780905529475624555
0.023591190284668370203
0.023483772023390546424
0.023438486290260684974
0.023430519843185552975
0.023436415321860113586
0.023469503350008844023
0.023581421020768687097
0.023864124032007372894
0.024225162437658792625
0.024632288624187023696
0.025091757110069973224
0.025590687678951024725
0.026108100021873588414
0.026608105605282057066
0.027051110910081908878
0.027400076606391984141
0.027632517692030161144
0.027749714850199790755
0.027784755192247465733
0.027781660168314702142
0.027736770747191816233
0.027538352718664581287
0.034216841081205852382
0.034182541682333429656
0.03416032126212296266
0.034125939926924017676
0.034103557213549434701
0.034069677589650473881
0.034048219393312921521
0.03401586843779742797
0.033995908027523655259
0.033965668897450285169
0.033947670267771054564
0.033919327570319929288
0.033902664086164276125
0.033875200464580611237
0.033859643044139312029
0.033832030868743367957
0.03381714517592760566
0.033788576777083738356
0.033774339918006907046
0.033738607435857007055
0.024780222676279339139
0.02487577083006984463
0.024981253097854136391
0.025091014012026041646
0.025193584425387029191
0.025272050697627789634
0.025319997647033107985
0.025336487781467961072
0.025336183280329702128
0.025318082450082705914
0.025238487322385583927
0.025027005322620754502
0.024837405990542169021
0.0247174667988991556
0.024659084592416145171
0.024643645669261460968
0.024647101644511122676
0.024679780977356610694
0.02482301074919930628
0.025282901340306248444
0.025868482539321422525
0.026371045359748643278
0.026799142750913350353
0.0271786501596682252
0.027533606128139365837
0.027876728190531916557
0.028200512013785070803
0.028487710014611613424
0.028714465243527095839
0.028864159213153006006
0.028937051936994726692
0.028958110254545425116
0.028954182727092450667
0.03596745242891179889
0.035946822059740070332
0.035910510156840082241
0.035888769171876618025
0.03585180246653758146
0.035829633967825041951
0.035793248982297964922
0.035771920051750803748
0.03573651117285066986
0.035715991060835540483
0.035681569588469075338
0.035662129307019251045
0.035628372022349127923
0.035609754342301645769
0.035576116130962530393
0.035558489357693338906
0.035524261529571374285
0.035507258447509293386
0.035464149239936286484
0.02611371503566915081
0.026152328181416054781
0.026178703355344671438
0.0261953501509087118
0.02620327708002762393
0.02620553568564908814
0.026199713806392226773
0.02616641812306537071
0.026048805587385794047
0.025881106171776965125
0.025757189599717126433
0.025690326745370539036
0.025670884857059948769
0.025675989697568998849
0.025729331362785320264
0.025959087537907040572
0.026643583843857999299
0.027438733375609748039
0.028105501516349253033
0.028637869257452201743
0.029035264937941722418
0.029316696303081885705
0.029504276551711051263
0.029621363487075686588
0.029694487035187892843
0.029746848284511157035
0.029788716193675152111
0.029821733382423467468
0.029842433292947462969
0.029852230342161233806
0.029851466537368438053
0.029834278428247693049
0.03783384388435304807
0.037811802333547701871
0.037771670887725664056
0.037748706525398072198
0.03770861079221755896
0.037685782856601443558
0.037645899174859324965
0.037622905443442010431
0.037582545067364650504
0.037559127998954340566
0.037518676669487639741
0.037495957800937382287
0.037456249317995966852
0.037434989099323703887
0.03739636226763275173
0.037376752992211513538
0.037338081652567751967
0.037319037118912420925
0.037270282313917851846
0.027846017393593592432
0.027927789126557984317
0.027965182000069178925
0.02797669223243018366
0.027977217195875266065
0.027961705607875343704
0.027888363629834236196
0.027655242671288222944
0.027379765732216721635
0.027177992971585455961
0.027059797034980563601
0.027014046347886146865
0.027011557806871675652
0.02704283141244585853
0.027201312761510387794
0.027718805492774164362
0.028364237488690050709
0.028905025406647015529
0.029360268491924714634
0.029755529081522284762
0.030117452059487622579
0.030456470124704274061
0.030771621048540701709
0.031048334740439369889
0.031266050017083713009
0.031414594884985172496
0.031498708451243834228
0.031533241243201226567
0.031539391203383469742
0.031530035598960282073
0.039842033649350752644
0.039797195257524724255
0.039772839084135501453
0.039728059090070995396
0.039704421879125359474
0.03965890610919040743
0.039634336557252722311
0.03958702322693846698
0.039560997465344374668
0.039512944512031807076
0.039487294323931866613
0.039440537128250241494
0.039417155390847835594
0.03937238551147681509
0.039350844412530533445
0.039307443507610298483
0.03928622996724590033
0.039231814247272282781
0.029266514781387073518
0.029423589496174851199
0.029510945325539147954
0.029540650768064839055
0.029543124410211063502
0.029529451632139613187
0.029462656089979569196
0.02924227722521854228
0.028969818654314225675
0.028775921773908676171
0.028667176077711260113
0.028628999396192966048
0.02862826626751250117
0.028657098419948873191
0.028792531907650815298
0.029212218663583713885
0.029722514639213194754
0.03016421161082394678
0.030558717279650156329
0.030922253342559481021
0.031277847544877945829
0.031641636818383542251
0.032011413317219364338
0.032371459244984905623
0.032691420754444804053
0.03294338409185116473
0.03311012465746489275
0.033195951370123828739
0.042044164298715200334
0.04200308791562199634
0.041975185139419279867
0.0419331242556448755
0.041904729056087643146
0.04186170416162323521
0.041831983836588440551
0.04178659162110164027
0.041755272325850273374
0.041707887561739799553
0.041677212151920772776
0.041629223203201025372
0.041601917543375173392
0.04155386936350718291
0.041528623807703023141
0.041479274238057473045
0.041454220711248990217
0.041402530626141562098
0.02995305801584875055
0.030225143422218013478
0.030395654688889276601
0.030479897031968315735
0.03049934449539309575
0.03049504369525061348
0.030457376740112618307
0.030325536207331461186
0.030193501261145980902
0.03013365097233447823
0.030124240207039621603
0.030152169824709001977
0.030323254733270573608
0.030906692447689742415
0.031561695163919316343
0.031991703293188497592
0.032221053911151292803
0.032310911453131078985
0.032336059434087065234
0.032349296063131124934
0.032376043980500646136
0.032452524815814322301
0.032686835020284285558
0.033044245528198477879
0.033387566165697227238
0.033684939144337316952
0.03390959096516441007
0.043128819993779668462
0.043072693140491530306
0.043038932674374634491
0.042982028750700770892
0.042949113503762306743
0.042890106191876942177
0.042857641695494226586
0.042796169615667956077
0.042762641946675283844
0.042701273169504061489
0.042667912981250673277
0.042606623704229698579
0.042575341739098479521
0.042513050930555455753
0.042481230488190802053
0.04241788635512204475
0.042386429027245563217
0.028611116151800668195
0.028890980864130531153
0.029659137317327922967
0.03039297100250401909
0.030920250222860139883
0.031260680954669238518
0.031451968050351372663
0.031557095357743952801
0.031635784748723375093
0.031750390994244905019
0.031927809330079236216
0.032171113277854775092
0.032448294326165916246
0.032702168597296875363
0.03287835288408431228
0.032958679712423215313
0.032969569165740966743
0.032934203721702214052
0.032723773508191431048
0.032236316299834623378
0.031876572477016446028
0.031680770986943676548
0.031608627721698388802
0.031603815174296737145
0.031637790940529569861
0.031822315962065798878
0.03249528620721141986
0.042204277969786430091
0.042160007809672966905
0.042080719048325873621
0.042037554805857149653
0.041958230529461335023
0.041915878892493582675
0.041835958770906747639
0.041794124630216610006
0.041712474375687501327
0.041670855108020266044
0.041589138155467421376
0.04154747194075839728
0.041465864157160317593
0.041424597412651441297
0.041322678805531018464
0.041343838097528430586
0.023069559205288032999
0.023109977368708841533
0.023258046583174492306
0.023724770177987478115
0.024596703891972923617
0.025512568011654395556
0.026409216994769134368
0.027208273205006933138
0.027849306564846330186
0.028308082053526247707
0.028593362201508723541
0.028736579836214078826
0.028787137475110833457
0.028789940774913556909
0.028773938448989611755
0.028693552754538231148
0.028396444170026943765
0.027764537058937787534
0.027192897098185078719
0.026736950058979927491
0.026408034943990806032
0.026195817372702143166
0.02607802560416596846
0.026028451100655648071
0.026017173926961241481
0.026021383957703498463
0.026055958551120413785
0.026201972624461090933
0.033962654357191306154
0.0339010582319502346
0.03386543987238585518
0.03380445417575814876
0.033770054304170543658
0.033709841110976919432
0.033676922216115359743
0.033616388566474038335
0.033584553795690127997
0.033524236208036448104
0.033493356967132521806
0.033433986930974490814
0.033404072275550880655
0.033331335656896950159
0.033362666682196930046
0.022524725049977475932
0.022781560745976155158
0.022970804746801288393
0.023127614121148332149
0.02330491062930228896
0.023539147548919385489
0.023850657231223447441
0.024229503140078489931
0.024659223771038071144
0.025105939430392871375
0.025532527867527663595
0.025897601654928718157
0.026162628199615435565
0.026310989503908022852
0.026362998086293280148
0.026364654792403709876
0.026333165673544919883
0.026178600535186544174
0.025830991544548376204
0.02555449662575023928
0.025375142500697781683
0.025275628573366720059
0.025230563321607012844
0.025216659150888859342
0.025215828006411762641
0.025222055442426404709
0.025253704803294117071
0.032286924500771439772
0.032252421634703411224
0.032195401527445696721
0.032161912821729352063
0.03210563886477939971
0.032073539948215552819
0.03201730620801793159
0.031986760870971416015
0.031930879849557149142
0.031902022122954405703
0.031847750789371742641
0.031820637046571231821
0.031757194079907985484
0.031753381114287763942
0.021870306508520648281
0.021978197495252489724
0.022113673967008203036
0.022296842791807040818
0.02254036358397148998
0.022845182297934567978
0.023200202899545833285
0.023580432371435845751
0.023949639945020993748
0.024274373371424063511
0.024519906780818858522
0.024670552006660295685
0.024733937978458925971
0.024742290193294352862
0.024722702693061315848
0.024609157062725952464
0.024359872038694111579
0.024189207355258302706
0.024109290380192469755
0.024089541108966380095
0.024096252758263058541
0.024147164457634023166
0.024319972759261974937
0.024473284663078572615
0.024567163326295816256
0.024650062848981739438
0.031105527714298850106
0.031057671344913700268
0.03103036765256849891
0.030981611498815921774
0.030954455617668779482
0.030905141102956529275
0.030878893216078076578
0.030829354604790883826
0.030803816903693499729
0.030755341554143635768
0.030730997254466544538
0.030674574104688455412
0.030669657681626102258
0.021233830409541722128
0.021473890079823240717
0.021763931079619800585
0.022080140897805265732
0.022390178926338915461
0.022661140318092316132
0.022869979410322132524
0.023018160809528072364
0.023123077433908938855
0.023204640393686248867
0.023266704398451555635
0.023306452067620695573
0.023321951174463378259
0.023321779740832146444
0.023310443709770686804
0.023290187436749806849
0.023285826311277710993
0.023299124183809756528
0.023365001711220710623
0.023430652955012086502
0.02346439979843600171
0.023495384353225828161
0.023550418441629465682
0.023661735768548894376
0.023834534968128973792
0.029843803149189732093
0.029815793746511262685
0.029767703492831438378
0.029740156004015291802
0.02969233001240566272
0.02966632632956447968
0.029618837147962300688
0.029594484984282926759
0.029548232319869825735
0.02952511191873178481
0.02947102562032850176
0.029467298100042907394
0.020754234625857133356
0.020902020690934285801
0.021072558479430944511
0.021257190815363750935
0.02144426239519030622
0.021639330939769631929
0.021853334784540302815
0.022098195429063900025
0.022368706045003440563
0.022635922149166574219
0.022851245941726064381
0.022981987774798977309
0.023030635953630099189
0.023032256287385661359
0.023009130781332029492
0.022908981699989165726
0.022786422362654257939
0.022720106355217376676
0.022695063276710163158
0.022691423224195067521
0.022695164590199223137
0.022712153881279062428
0.022771829403138200282
0.022947858014260979348
0.02004229559789159551
0.020163588626257226283
0.020357515867501296131
0.020606253141514298266
0.020894192475017434041
0.021208304868498513429
0.021526172133630502165
0.021816004696279898273
0.022036732652522067477
0.022164167870713083475
0.022205775241236770656
0.022202809433704874531
0.02215152303883211396
0.021973121741570102172
0.021821013150343869513
0.021760417474927348097
0.021753268893982484478
0.021771732065403122391
0.02187132869989828407
0.022112544950945174638
0.022310026769965678184
0.022452354917066374984
0.022568232249409226481
0.019855279446794826814
0.020070324993517425077
0.020288178026313587188
0.020494125061114296105
0.020674244896389804005
0.020818148718020301063
0.020916029761218875305
0.020965614643118812149
0.020976467420168370959
0.020970946365511111686
0.02093105707606757529
0.020845622355760155126
0.020801009770582180175
0.020792611227597665446
0.020806687534016498481
0.020895957192775177491
0.021107057083438972994
0.021269223600134300189
0.021379517613135542997
0.021487052645357197778
0.021626406906598481111
0.020147437294874618458
0.020224786223996194662
0.020280195834345243061
0.02032628570764830403
0.020363810191274176603
0.020387963221174674328
0.020396339704265374626
0.020395374720809517077
0.020391021567441113688
0.020388022230313621042
0.020388000234509647685
0.020390795262916167757
0.020395732374292874223
0.020403166900752500723
0.02041644146874931065
0.020444297686719098417
0.02051322840628628727
0.020020954047140167298
0.020116959586349885541
0.020141006959158051087
0.02013399037137180575
0.020075851743211359235
0.019889820898742274075
0.01971939494106256241
0.019623348744036456237
0.019579587318732688539
0.019565200747243827184
0.019564182904195846074
0.019568049034189398394
0.019586520591112880491
0.018901293391063049565
0.018878794424503884258
0.01876273432520172979
0.018586335155375145745
0.018485289390549480143
0.018448774855077492568
0.018445950158324005835
0.018462554291348052399
0.018541530135617156905
0.018632821984579141239
0.018689271879427597073
0.018737489798313040207
0.011534296519391994129
0.012264047265997359698
0.012727368560817782159
0.012947203477774090266
0.013008892026279070264
0.013006209897264793193
0.012942279167566418316
0.012665376461946761116
0.01228959966351642584
0.012063048946378083365
0.011965544121938046299
0.011946664785364059444
0.011956687928843448901
0.012022910194430269995
0.012191880985573095783
0.012300631006927752881
0.012343629477241992512
0.012355711894264117742
0.012368662256528401705
0.012401193973050091482
0.025489319992458060044
0.027294051086705687498
0.028675071952422463706
0.029578234401512821378
0.030025303830539595146
0.030165704973902474073
0.030173542116536739705
0.03009713067170559711
0.02971026499154432246
0.028930600862804030371
0.028379270756585764368
0.02807638062965007314
0.027962337597616626628
0.027943042294338197445
0.027955178675209642336
0.027999677717419069189
0.028036013442500652693
0.028049428149610491912
0.028069087957185795412
0.028119809360937435272
0.028255473027968925487
0.028657514638755092473
0.087052412640412996092
0.090483039695886668952
0.093265252028223374903
0.095110679291106350886
0.095962880595486410584
0.096213942799166965458
0.096213108957740198224
0.095972715091197605131
0.095249116724228963249
0.094768954858358747662
0.094590808272129178746
0.094608758673272230766
0.094724506529372115571
0.095118011432406487926
0.096248021454796439667
0.097503804744106470359
0.098334667800565725426
0.098822704463154997789
0.099268055026036999822
0.10018081816100334047
0.10215745405043341609
0.10471937367724497292
0.10727270322929373381
0.10941067269303358933
0.11082032211882894557
0.11149707768996609814
0.45752457208489472062
0.46852829802224882361
0.47906887780273499367
0.48796986314817569763
0.49460656038392691869
0.49886457957949220665
0.50128273811911450153
0.50251490737745951876
0.50336493878686228154
0.50450230378091942551
0.50674344825463479847
0.51197859808280232752
0.51941506361305656014
0.52679145711943120567
0.53331918894265217812
0.5387212891661881109
0.54319060010527209226
0.54738983820736164532
0.55237366910631247041
0.55864193613125345816
0.56653534876921951557
0.57576372660818320171
0.58549663542191554555
0.59433810734793013353
0.60147668297703094087
0.60644816497406950351
0.6090970300278538696
0.61018220147862667346
1.9976727629140291764
2.011916263204163613
2.0229371412559218335
2.0302917379933864694
2.0344928613867150347
2.0367164639039514462
2.0384920614556776286
2.0412252894615816601
2.0459846455740309246
2.0531309164466700068
2.0624585992154531588
2.0731763550632305027
2.084449827458791038
2.095228259090123224
2.1052114647523723079
2.1139791537752694595
2.1218463247355674461
2.1291954093445477625
2.1363563638447913284
2.1429664237295753537
2.1489347410663572902
2.153179020386376763
2.1554054022630535492
2.1560105299167355852
2.1559160472999798763
2.1548193960465695795
2.1515140535838850333
2.1483034284625004418
2.146212459164664299
2.1456629024226949731
4.351868931334262669
4.3404231346079003018
4.3273879195599889158
4.3128644481387752307
4.2975239448880504511
4.282495237923050091
4.2688982485553976787
4.2574247829266367305
4.2480081162825706897
4.2399419602165462351
4.2322008606723562352
4.2239355297501113284
4.2148217824824367739
4.2050369663440863022
4.1949141557297036087
4.1847175072363462789
4.1744137263655352044
4.163717263060135565
4.1522416300533775413
4.1396371767340225389
4.1257727770683629842
4.1107747462506818437
4.0948965637437124698
4.0785720888201799639
4.0623638204866105994
4.0468730838214490575
4.032594547766722215
4.0198185828698962396
4.0084334756108370712
3.9980373940004465538
3.9880984341317242681
3.9781451648052059689
6.0030611200245465042
5.9732243337728494481
5.9437744726816914564
5.9143722314682261043
5.8849712181339794981
5.8558745218666343746
5.8275358220508772789
5.8002581004496525097
5.773994069264952067
5.7482632273946823176
5.7224432942304490624
5.6962653447945319485
5.6699592420323989828
5.6439678156165582479
5.6185827129560239612
5.5937375032793950069
5.5690694803962879078
5.5442126363275168188
5.5191144408467724958
5.4941215167323695923
5.4697313677024066436
5.4462132727589391834
5.4235303042819822394
5.4014629759284433774
5.3797208484462970546
5.3581702071526624565
5.3368750464861731686
5.3159151521269318863
5.2953161410247444607
5.2749652269155262729
5.2547738453555794536
5.2346617545914657654
5.2148148403953999974
10.434963842186121497
10.334059538602264894
10.234587964082766831
10.13610490663853092
10.038155512895789556
9.9415802467295915079
7.0576075093548285011
7.0224286011127077245
6.9876795879916171472
6.9528189079372433312
6.9177187291945925196
6.8827192421030138902
6.848439711941052721
6.8153892637143194122
6.7835999303717926523
6.7525632522114662493
6.7216976226846947284
6.6907984252729768571
6.6601734877526341805
6.6303972334855858506
6.6018654551694861965
6.574389061497222464
6.5473384065423481104
6.5202405042462663332
6.4931366479166916506
6.4664575462906732639
6.4406235106733262796
6.4157589820375342526
6.3916591037609897796
6.3678694510688256258
6.3440615802223083719
6.3203274307692325351
6.2969595950180927701
6.2741819479368325929
6.252002392777005646
6.2302040312857833726
6.2086065948057376218
6.1872933856227438909
6.166424853607280987
6.1463494588380838124
10.69700920564040203
10.597278391242488382
10.498379439276066094
10.399293551690284687
10.299311137113207337
10.199721318865298869
10.103012485186512848
7.5330146681326626279
7.4982320561742259457
7.4618868986379860431
7.4247010467107834586
7.3882438671690993104
7.3543066830223304819
7.3239803485733210309
7.2968498753293911108
7.2713324572110886734
7.2457761473565964749
7.2194816289616277061
7.1930046468402251136
7.1674180316272364522
7.1431010894962572166
7.1192447453186238349
7.0945751105097940581
7.0685108878260107801
7.0415555341022351143
7.0148694699285520926
6.9894773968686543242
6.9655300257042904732
6.9421976543942962579
6.9183451346680824301
6.8934797987500688876
6.8679970399214207433
6.8425767471469525205
6.8177965298547578143
6.7939232553722348484
6.7708185997730918615
6.748338410793246922
6.7265253566477039016
6.7055081951150992126
6.6851493191730240184
6.6648637507444865591
6.6441027731275701385
2.4217295776676875168e-05
2.2448397637287896209e-05
2.0824059980307480064e-05
1.9348029569486411303e-05
1.7999178412107283935e-05
1.6778848003115862185e-05
1.5640413987716499474e-05
1.4624309266086905841e-05
1.3693504036728994757e-05
1.288338414889678328e-05
1.2123056240543965932e-05
0.00019418356143541980934
0.00017426007228584902069
0.00016065357478315276329
0.00015323818368788864257
0.00015063452873593859865
0.00015055462759723390242
0.00015210169703253821442
0.00015796852307960776137
0.0001623311812699763121
0.00016329342896673765674
0.00016274792828293866819
0.00015916798920087080866
0.00015352085275499986771
0.00015092020480487634425
0.00015050857397438932844
0.00015112837964328796453
0.00015472994081847205343
0.00016050611550932889263
0.0001638169344061853256
0.00016513845564986197453
0.00016533404163711305497
0.00016497818963147139223
0.00016274147707198341863
0.00015560920193125071277
0.00014844127767558196076
0.00014408791173914942021
0.00014243339311866722702
0.00014242640428737855319
0.00014416842998994490129
0.00015308313333674771449
0.00017237771338490985389
0.00018527903874699671281
0.00019080859405870976946
0.00019173905586950876884
0.0001909835527485854664
0.00018654513974136936543
5.1690092516638157531e-05
4.8482116761055720031e-05
4.5354255508895514979e-05
4.2379147474503463418e-05
3.9479575622087273662e-05
3.6747509113483527513e-05
3.4116274089426892034e-05
3.164142253331582162e-05
2.9306687491499988055e-05
2.7128670502470648686e-05
2.5094360101078117437e-05
2.3248966106914742392e-05
2.1538044234813795826e-05
1.9986565720880315782e-05
1.8560742069658818889e-05
1.7277661769738326746e-05
1.6078055714576304627e-05
1.5020648686895442174e-05
1.4051762792304142003e-05
1.3218845627922946572e-05
1.2439548649258373687e-05
0.00019464552454134511012
0.00017475678076412867485
0.00016146178379940925147
0.00015450705361310577935
0.00015224420576795386528
0.00015225264534842730397
0.0001538919508390906442
0.00015914326284997894223
0.00016239401089028021813
0.00016295424052267795862
0.00016233822250052491157
0.00015866652155834294331
0.00015068192842372627491
0.00014506452389582771292
0.00014179093734046575295
0.00014001994673937490045
0.00013908549342430423729
0.00013868388119044386918
0.00013863113877826099937
0.00013877022003692019055
0.00013956371638749787189
0.00014147468838067808359
0.00014282771420364172277
0.00014336689483094913473
0.00014341039282360105111
0.00014307897431859982755
0.00014274365057873625393
0.00014293631644483588568
0.00014480855557790850777
0.00015338560699531655473
0.00017081362297907120846
0.00018272616406938695403
0.00018825869832110871485
0.0001894970998039403724
0.00018913119497589723269
0.00018637354318793599556
5.5793453014159177371e-05
5.2140674324316334612e-05
4.859349292658969653e-05
4.5231678044166882108e-05
4.1976810773130855757e-05
3.8923906726494546303e-05
3.600409295025783831e-05
3.3279641767346965263e-05
3.0727256156396230485e-05
2.8360162277224497846e-05
2.6163441412750789637e-05
2.4165330136004654183e-05
2.2321460919271115636e-05
2.0655695469204247435e-05
1.913212160594297942e-05
1.7776146805728320645e-05
1.6517498814597724865e-05
1.5422973739260636381e-05
1.442411014602270033e-05
1.3577892239281048455e-05
1.278109282358984857e-05
0.00018126544450410180041
0.00016743045320381230246
0.000159887093042322513
0.00015710413060133837041
0.00015687595939672783845
0.00015787891484110380008
0.00016184798754833307753
0.00016474498982619790077
0.00016525211184785531431
0.00016466222182675530495
0.00016102404655887099798
0.00015144287570744035024
0.00014405510667462017574
0.00014006759373599538595
0.00013853026285718831679
0.00013831745699746574594
0.00013867431012758201555
0.00014081214172170862086
0.00014832229649664927483
0.00015773657507218982808
0.00016434710947336664136
0.00016789335091914220116
0.00016894989768127674978
0.00016880341637395764086
0.0001669433183159149312
0.00016357947692364777775
0.00016244859038634261103
0.00016263480638749116614
0.00016491904529840399575
0.00017418968058058114474
0.0001850635532530887277
0.00019054226019295944245
0.00019199046198840004677
0.00019177819109758150406
5.3560357500218246606e-05
4.9862744250353401335e-05
4.6369130488097455459e-05
4.3016902564850307731e-05
3.9894204268608559933e-05
3.6938853647568266542e-05
3.4195124858575268309e-05
3.1638772244039261574e-05
2.9266437857453518661e-05