/*--------------------------------*- C++ -*----------------------------------*\
  =========                 |
  \\      /  F ield         | OpenFOAM: The Open Source CFD Toolbox
   \\    /   O peration     | Website:  https://openfoam.org
    \\  /    A nd           | Version:  12
     \\/     M anipulation  |
\*---------------------------------------------------------------------------*/
FoamFile
{
    format      ascii;
    class       volScalarField;
    location    "0.011";
    object      k_0;
}
// * * * * * * * * * * * * * * * * * * * * * * * * * * * * * * * * * * * * * //

dimensions      [0 2 -2 0 0 0 0];

internalField   nonuniform List<scalar> 
106891
(
0.027702707353571769111
0.027696748247431030726
0.027690957499569828631
0.027685820301997260406
0.027681076903852762372
0.02767696503121909804
0.027673298238027454338
0.027670405954391835007
0.027667546589391144723
0.027666276881007558636
0.027662961250574526206
0.020039856413721988948
0.020217141050828290466
0.020376234689974351971
0.020520436350833011485
0.020648337202780614463
0.020755059096808348845
0.020832779496790188034
0.020875858083026225392
0.020888272697377318482
0.020884981545948384102
0.020851296479459779237
0.020708594236043910419
0.020497186718753803575
0.020357191218827654089
0.02028234281584701329
0.020255360899780985862
0.020252395515854157426
0.020265004621273431662
0.020326558049045911208
0.020526047343004439477
0.020868304719626095539
0.021244326557588563004
0.021639228804752615176
0.022029102127438447006
0.022379840840192632284
0.022671638748663042184
0.022897503772390435939
0.02306258961795189244
0.023177213373400194774
0.023248458313515490969
0.023283610969211193664
0.023292646201340361234
0.023289227814517098752
0.023261514039934653303
0.023143855429640671634
0.022864938092460707075
0.022623506851845567867
0.022456671327588773046
0.029221621402888618008
0.029204862825210141375
0.029192719997860619441
0.029179075947177678801
0.029169742244013186633
0.029159132799703866429
0.029152084496390336804
0.029143654790794604886
0.029138050980145168561
0.029130380637550017109
0.029124780838475125555
0.029117032643714110818
0.02911166220751980685
0.029104382499690353153
0.029099657331658774356
0.029092772642776876246
0.02908866322829690293
0.029081533367163091286
0.029078130889961053412
0.029068973762790609877
0.021566858444649682908
0.021638334485028963561
0.021684309596056806912
0.021716175891068296294
0.021738409315980870146
0.021755141877119188454
0.021763441216289633462
0.021764629668235072057
0.021757183471758333171
0.021712648538979199137
0.021553082037200417542
0.02135532968080390559
0.021223317722338371633
0.021152284714306975044
0.021127797018134025775
0.021126842776590291917
0.021149539178538477591
0.021255525927277214154
0.021583156983040589078
0.022019342449641890469
0.022441276977744385041
0.022842923133778787748
0.023213723307696190051
0.023538362155999869446
0.023813802494663163095
0.024041996595180928353
0.024226489819718904223
0.024369605607002495923
0.024470124410214767752
0.024526807114505770613
0.024547210831802685621
0.024547061107212182068
0.024529133303457344162
0.024441945317929310993
0.024172873662366166359
0.023884600166489130396
0.030779982625807479624
0.030759640058067295315
0.030746116360485537672
0.030727864719307107499
0.030715946350918104518
0.030699731522453619498
0.030689502587735621036
0.030674927738307999209
0.030665774576859407274
0.030652055937989888118
0.030643404221993256198
0.030630289475361466983
0.030622223677396958469
0.030609499459008929906
0.030602160900152851342
0.030589317783787664529
0.030582311923750993277
0.030568646385209872346
0.030561797488940955353
0.030544131744973404552
0.022636952100318522701
0.02272430227575740827
0.022805149734057783562
0.022870253257000632691
0.022916115026843916769
0.02294076621421053952
0.022948673003236882278
0.022945565529543594102
0.022916175120730287312
0.022786201000180025117
0.022514649243805587991
0.022307410249665461655
0.022182874233136164882
0.022129441470923674751
0.022119224536128606617
0.022132677125276271901
0.02221974925146395427
0.022527963205053454926
0.022966593636012715141
0.023362903472340542516
0.023733135807644474558
0.02408109937709048895
0.024412950829412825848
0.024728784016375175703
0.025029962949756401347
0.025309621878201439549
0.025559006972848945932
0.025764305143060318298
0.025911066116206405568
0.025992105380554034189
0.026019571718062468879
0.026018074345069319014
0.025986334284104753434
0.025839078519612014573
0.025457273679826072921
0.025119592192542859743
0.032425810799803965467
0.03241231549196360584
0.032389328331979286291
0.032375385972528807066
0.032352466208771024636
0.032338217841575402078
0.032315484970608134019
0.032301824726065950233
0.032280358180208010288
0.032267300866524489811
0.032246597226770153111
0.032234288707886568637
0.03221405358886015452
0.032202604949827823289
0.032181851685424214815
0.032170445442554915227
0.032148504122011860307
0.032137547914736948329
0.032109935863736532857
0.023578467313394711746
0.023815509754615826754
0.024041425013469494565
0.02423585681453853044
0.024376956366269148663
0.024459818453704037372
0.024489830267194853675
0.024491641710379367936
0.024470104844257298954
0.024361457457007788807
0.024060174735522125988
0.023779323494120551546
0.023590012062288993888
0.023482948950176552039
0.023437923424468102424
0.023430085836517060283
0.023436054178124030717
0.023469333682856183265
0.023581798271198599337
0.023865195501834777364
0.024226383445284611906
0.024633736161398481213
0.025093418335741458219
0.025592481167409964621
0.026109886756017802734
0.026609701951454629854
0.027052333400692876036
0.027400788232387011251
0.027632678186439055962
0.027749420738820310822
0.027784212254468459297
0.027781046259832294781
0.027735844283509759889
0.027536261835008905147
0.034216519527952106439
0.034182202909017286863
0.034159966112026832197
0.034125570692786474924
0.034103182008375733381
0.034069304596325962475
0.034047858735958884402
0.034015528173587869509
0.033995598390663135657
0.033965394288918711319
0.033947430480765553029
0.033919113979982068452
0.033902464210385119259
0.033875002061127361397
0.033859430944395238483
0.033831798805238032235
0.03381688285311763853
0.033788286827047764316
0.033774023520844458079
0.033738270959953173267
0.024779823525402276674
0.024875447317436665678
0.024981041452687081234
0.025090884435031924476
0.025193451493085636944
0.02527182305110512589
0.025319619932919278094
0.025335968078027633343
0.0253355848894879776
0.025317305887524135799
0.025237251632455499906
0.025025428980349762043
0.024836188965983281574
0.024716584196601817935
0.024658468773811267893
0.024643177276258795838
0.024646700603417576875
0.02467961433173371591
0.024823683318038851364
0.025285130817661281843
0.025870397881877327945
0.026372595379026690654
0.026800415167149604229
0.027179766637382484634
0.0275346519406929717
0.02787770119928464907
0.028201342885775349673
0.028488296831923321656
0.028714716225878553213
0.028864045581767749926
0.028936651224870820615
0.02895756892043515468
0.028953595570779561141
0.035967115596681739631
0.035946457691624571218
0.035910120702124403991
0.035888363867145604835
0.035851392646548845
0.0358292347924422383
0.035792869906627056142
0.035771567724824128442
0.035736187507619338044
0.035715697277954885913
0.035681302419896476774
0.035661880553402088012
0.035628131183913287761
0.035609508264822536949
0.035575857909541201696
0.035558209336817962753
0.035523961591393947435
0.035506939192322256593
0.035463808114653501413
0.026113101886800438312
0.026151752940527316083
0.026178174105139097316
0.026194842503465987082
0.026202757300938357699
0.026204976435382405092
0.026199054895726974629
0.026165500999254763526
0.026047398939281624086
0.025879810783592069323
0.025756165252502346424
0.025689597767215691798
0.025670359683102831477
0.025675589599415526293
0.025729346275108068431
0.025960448648492374935
0.026646905716561045119
0.027441497632085760927
0.028107652768252854025
0.028639397383332067942
0.029036230643398965728
0.029317206434744148835
0.029504436914901743111
0.029621273686592872881
0.029694248378524652071
0.029746518454550441996
0.02978831392082785523
0.029821255836848567511
0.029841889126515745712
0.029851638905269897023
0.029850862445231503284
0.029833551652799102788
0.037833482662680849307
0.037811412595220292299
0.037771257880425290754
0.03774828027881328707
0.037708181110166973105
0.037685362609426988068
0.037645497445259253066
0.037622528105116154196
0.03758219277439450029
0.037558799336567458282
0.037518368913632728356
0.03749566627050020251
0.037455970106079518323
0.037434715510278229744
0.037396089552306881199
0.037376471648293441152
0.037337790112868800285
0.037318735322720779368
0.037269959073260465476
0.027845748744251018481
0.027927381152734170183
0.027964681527412080936
0.027976127929381811033
0.027976602845543201148
0.027960904151642575199
0.027887072103992580768
0.027653203102782478173
0.027378005132723846199
0.027176638663559037068
0.027058868141903814897
0.027013449285937060629
0.027011112093993885908
0.027042683421200079674
0.027202137674177596927
0.02772134900511166386
0.028366358798303552974
0.028906698264470415821
0.029361604022437089861
0.029756668291443359037
0.030118495014187490061
0.030457440436807248912
0.030772468166399519901
0.031048948614559902792
0.031266332074847483224
0.031414526727081587554
0.031498348455937075219
0.031532690609085506361
0.031538766044924268495
0.031529322545563287505
0.039841627641877000454
0.03979675870545200389
0.039772397488366709184
0.039727623895468251736
0.039703997539810388651
0.039658501033834538119
0.039633951129847827533
0.039586659454821468418
0.039560651530296093992
0.039512614479179801463
0.039486974859565669715
0.039440228185936752892
0.039416851678286533855
0.039372088072546877757
0.03935055059179256437
0.039307148096395141956
0.039285934724166429732
0.039231503403317706524
0.029266668396910208716
0.029423480628135104814
0.029510552202244289682
0.029540041687900003842
0.029542410120929077366
0.029528563588981242977
0.02946133187825392824
0.029240220543623886285
0.028968065319180218153
0.028774617483226846287
0.028666306162359406207
0.028628436434631865382
0.028627822773507217297
0.02865691071909160989
0.028793138243322573266
0.029214105333003934084
0.029724096194396122661
0.030165526435012437328
0.030559865548609902591
0.030923333064546393301
0.031278949963618393748
0.031642781832714322876
0.032012536660484168516
0.032372435904017324293
0.032692108761326048316
0.032943691935878587074
0.033110040003144693144
0.033195539823334452301
0.042043770985950849883
0.042002673484463251552
0.041974772275017335765
0.041932724543716846932
0.041904357648549314663
0.041861361247698035404
0.041831671180956937761
0.041786299986770615578
0.041754995961974662733
0.041707617260622352473
0.041676939713608765481
0.041628949745127534487
0.041601638421413532354
0.041553588874642916062
0.041528344844634294819
0.041478999740735961188
0.041453956960174669077
0.041402273623261480473
0.029953780351683619021
0.030225429826732725519
0.030395497864125667342
0.030479361562583129341
0.030498582219961593853
0.030494165809682616253
0.030456210967634293058
0.030324011985963295057
0.030192333488887525966
0.030132852761600513458
0.030123666621468786486
0.030151921866249497411
0.030324170787542525235
0.030909483569730018121
0.031563600133334715481
0.031992642501412843492
0.032221227482723012459
0.032310638179083202293
0.032335631877034795578
0.032348872573342735137
0.03237569043768726007
0.03245252071757173673
0.032687741274558597404
0.033045182610492239428
0.033388355529806991451
0.033685455147834574008
0.033909722809920966879
0.043128489534973390995
0.043072370202933252248
0.043038632725329352413
0.042981769035188459316
0.042948891196933576542
0.042889925959755360874
0.042857484395611739059
0.042796023106881908582
0.042762494179421288443
0.042701109331054094842
0.042667725566518689695
0.042606418181795183142
0.04257511680349949923
0.042512818969978882766
0.042481004305926481357
0.042417679038272357306
0.042386241968583336648
0.02861103185022336251
0.028892584626492238964
0.02966225839060931263
0.030395070956877323631
0.030921419422081201922
0.03126103786703404025
0.031451743380132575478
0.031556597010908543632
0.031635308703174623568
0.031750169722079300827
0.03192794394659378282
0.032171555029891239774
0.032448837894792123548
0.032702542807815232484
0.032878366174986906056
0.032958334409281378474
0.032969056163622910416
0.032933361885879336439
0.032721523672262775584
0.032233771929570019521
0.031874811616175204032
0.031679618372257356551
0.031607851736813498411
0.03160314538731475581
0.031637400213867079846
0.031823120078566378977
0.032499225755947692973
0.042204151521680083325
0.042159903526735723056
0.042080645417264327113
0.042037512560942277839
0.04195821725443291822
0.041915881954221002881
0.041835965640327411885
0.041794114138164438488
0.041712437850860220601
0.04167078623451760111
0.041589036186180226851
0.041547349191010794767
0.041465734753881308694
0.041424476639523172272
0.041322587266600908917
0.04134377048972037727
0.023069110918602059312
0.02310980527136801202
0.023258662023109572675
0.023727572756684158634
0.024600105733312234435
0.025515986282215789849
0.026412320153798643507
0.027210739109814193609
0.027850967014260430421
0.02830892257687073546
0.028593490751938621663
0.028736201629263186108
0.028786490292173606137
0.028789243137860062727
0.028773163988545544939
0.028692349679916150096
0.028393648717823231908
0.027761334532705329858
0.027190202458286825277
0.026734794068704253317
0.026406409366445827286
0.026194632984708289547
0.026077159776455371282
0.026027775663176135057
0.026016571764397693201
0.026020824745039972115
0.026055652992388513706
0.026202553263807860928
0.033962557004621564405
0.033900972957494744653
0.033865363193125420926
0.033804383681223772184
0.033769984650803795689
0.033709766210673154652
0.033676830331611347369
0.033616277213670990587
0.033584419945238239147
0.033524083994069461823
0.033493196236665072341
0.033433827379404749969
0.033403923518684465466
0.033331219380367919924
0.033362571416608685637
0.022525425981749488957
0.022782099585918202944
0.022971116804666326383
0.023127870654302103842
0.023305291497265952921
0.023539783560944861629
0.023851579622573924194
0.024230656678970789036
0.024660500443918868807
0.025107191482557904283
0.025533600771037296556
0.025898345107751453292
0.026162938800538094314
0.026310878895053842891
0.026362606485504674891
0.026364184983455628275
0.026332440635550288105
0.026176930809534829092
0.025829102243109879067
0.025553065383440952407
0.025374087679429259412
0.025274835383652875798
0.025229915067616001667
0.025216067878208531933
0.025215239758301227768
0.025221517979838251056
0.025253378647424162828
0.032286801831818909281
0.032252289440805333165
0.032195256024489936342
0.032161752064085911973
0.032105462120996478004
0.032073343138109250416
0.032017093812964428357
0.031986533048724237471
0.031930644782913103485
0.031901788319304562325
0.031847526043849279376
0.031820426739017311502
0.031757019442084324923
0.0317532303474981209
0.021870373743330753097
0.021978327523091235884
0.022113928139930478373
0.022297294070990413689
0.02254105918362480504
0.022846117288870006895
0.023201299517355979118
0.023581544399710580029
0.023950603028446870724
0.024275038574865546309
0.024520179468902537911
0.024670437347096691588
0.024733537614153436324
0.024741778948259792598
0.024722022764492406627
0.02460774512240860093
0.024358437423589389403
0.024188228460502579631
0.024108666328593646166
0.024089088132677363707
0.024095871669999536363
0.024147107052522862047
0.024320335357321452158
0.024473275805372302766
0.024566983680346338864
0.02464997271994620251
0.031105436639325752257
0.031057546807506608566
0.03103020960430363448
0.030981425772278373132
0.030954246132646690004
0.030904917677896322908
0.030878659739444657556
0.030829119395427036915
0.030803588715737205417
0.030755125732732178229
0.030730796207220054811
0.030674403856410108887
0.030669506508849714993
0.021234384519407883268
0.021474637081166127184
0.0217648219367074236
0.022081066809663169731
0.02239100872576305773
0.022661741369775830618
0.022870280763099444521
0.023018194066007940934
0.023122933647916864286
0.023204393748728395497
0.023266376333151168182
0.023306036847273427226
0.02332145828321710232
0.023321257021499900569
0.023309841922619090049
0.023289654616767154621
0.023285373932189813023
0.023298831399594380903
0.023364982444422990882
0.023430456227023086641
0.02346408838652799464
0.023495078343723583419
0.02355025838038118241
0.023661836490631402152
0.023834936024041852853
0.029843658385318213438
0.029815610598096366907
0.029767489449432502774
0.029739920594507519153
0.029692086611733347484
0.029666081567668447366
0.02961860176512503412
0.029594263680646697851
0.029548026573107032122
0.029524920369390743324
0.029470859553932207686
0.029467146467565048795
0.020754456760406648358
0.020902305481156954053
0.021072925093245556405
0.021257594433777740606
0.021444676323279752983
0.021639780163459597373
0.02185386559104118831
0.022098834719496647516
0.022369394391975650632
0.022636494524830193253
0.022851513590744252508
0.022981873849452581077
0.023030222604394287589
0.023031735988743411159
0.023008423452097578193
0.02290790236367108712
0.02278558128927596696
0.022719507725642903301
0.022694602963309929572
0.022690993056230183283
0.022694737793207207799
0.022711795938625552183
0.022771780062052490029
0.022948520626519492566
0.020042265335497463224
0.020163909077430760414
0.020358102999636487618
0.020607045304405727237
0.020895118539140476038
0.021209282486992539485
0.021527079218975779529
0.021816676710771976122
0.022037020074725147123
0.022164030344595405525
0.022205327290765995013
0.022202228875401214259
0.02215053297924746839
0.021971701084779107077
0.021820073652820445864
0.021759845589238914487
0.021752860394676606232
0.021771513279465137813
0.021871750834351381954
0.022113204979786148935
0.022310340633654231202
0.022452466223427270525
0.022568306156117896172
0.019855821535923467991
0.020070927946894148719
0.020288755246360253709
0.020494599806137586001
0.020674553788336779564
0.020818244868741852399
0.020915890781195559112
0.020965260739665269457
0.02097598611801706342
0.020970381598156010577
0.020930208850816652
0.020844824370206092856
0.020800424975009182416
0.020792160720910505406
0.020806414190256514174
0.020896324281812039825
0.021107594516800984308
0.021269447979065103649
0.021379598279285139811
0.021487187717416929289
0.021626758395443257399
0.020147459980669135682
0.02022464875854755248
0.020279981467909984072
0.020326028061320628587
0.020363496772006193375
0.02038757294263440073
0.020395883804065040312
0.020394888300098779066
0.020390535162021616172
0.020387578411983863641
0.020387595068103163409
0.020390437434685576568
0.020395387144559760928
0.020402834244248792966
0.020416141009784966737
0.020444095974946879107
0.020513346220311302198
0.020021166908387049571
0.020116797304391108303
0.020140603617147624649
0.020133456921824551683
0.020074896378995420176
0.019888427254710575737
0.019718392046097925341
0.019622655140709856225
0.01957908807261577594
0.019564796178765875984
0.019563806277295158614
0.019567712334953434039
0.019586312126824378943
0.01890086766157603182
0.018878154417031646484
0.018761481005845678099
0.018585285330767514073
0.018484568964083673837
0.018448292401345656177
0.018445563317495198424
0.018462332311471207902
0.01854164889690448903
0.018632789027215854866
0.018689149945520514701
0.018737436073584440299
0.011537557699432085534
0.012266340573795969648
0.012728645331467815238
0.012947660324828733081
0.013008896028648799306
0.013006070459858479205
0.012941659911345704953
0.012663625553713689018
0.012288236239516582907
0.012062230144954083633
0.011965123387413446193
0.011946413754413119993
0.01195652354339491602
0.012023133537654398517
0.012192202949680645829
0.012300605851708347124
0.012343420934495140037
0.012355482944442339535
0.01236849324017563409
0.012401173015614375822
0.025497415661814376575
0.027300882532037922673
0.0286802076185128825
0.029581530729745026537
0.030027041316867619791
0.030166517221907648838
0.030174048090660227778
0.030096975278628788214
0.029707819110913712135
0.028928194153806954109
0.028377744323397319226
0.028075658266775473104
0.027962104498581219492
0.027942941938564350157
0.027955050460577446358
0.027999528192166858037
0.028035722046010742858
0.028049168918733304035
0.028069020455857067453
0.028120088174614126658
0.028256359006686687652
0.028660312490058997142
0.087066841592547350448
0.090496989456465878887
0.093276585255710864342
0.09511855606474886593
0.09596780168617642659
0.096217238871063759387
0.096215872200042559803
0.095973379746166126436
0.095248525317141050084
0.09476967312889926498
0.094592159745439954865
0.0946102344519718641
0.094726292138204770676
0.095121317847788475208
0.096253855541631822001
0.097507755239930493651
0.09833610078973532842
0.098822542014686154399
0.099268442362250547406
0.10018455671219361758
0.10216608216190370406
0.10472978869929537582
0.10728275556218841436
0.10941835869451617402
0.11082493989775542287
0.11149920306363074463
0.45755573919204084454
0.46856515200256204645
0.47910458342478284832
0.48800046887678166785
0.49463011732684258881
0.4988812325811331494
0.50129404530419563457
0.50252297492646258448
0.50337199463194748361
0.50451055836908165197
0.50675620211522598435
0.51200270761893640348
0.51944007536991398943
0.52681294523953148268
0.53333508481817326619
0.53873106846476026544
0.54319500350042970727
0.54739243458483999305
0.55237882721840303457
0.55865340495085413774
0.56655552759630600779
0.57579092091220551719
0.58552559756301458815
0.59436259957421644362
0.60149323135353283121
0.60645575388807626549
0.60909749655590628148
0.61017870567861576259
1.9977054982222108848
2.0119464726775362351
2.02296019640336322
2.030309494550943672
2.0345080075300874256
2.0367339393636876288
2.0385166237246359344
2.0412593026631644655
2.0460276966428563306
2.0531802885012906401
2.0625101004862527176
2.073226126367863742
2.0844951657951309443
2.0952678323017970285
2.1052446398984168141
2.114005287120663823
2.1218659498293628296
2.1292101872468780499
2.1363691368027089013
2.1429797053745400781
2.1489493581620981999
2.1531920423678432286
2.1554140843417086693
2.156013978680714871
2.1559152311547609138
2.1548100280919095795
2.151498539505301455
2.1482944601607996127
2.1462108377851532026
2.145665834197159505
4.351870404630843403
4.3404272744827103736
4.3273879039186589068
4.3128539658753037855
4.297506052932072329
4.2824797681569615193
4.2688961526638573574
4.2574417359882801293
4.2480397495257200546
4.2399765077651547784
4.2322263335546619345
4.2239479579152483524
4.2148256954360334703
4.2050407205201558725
4.1949226256483314046
4.1847289750035070455
4.1744219902025498925
4.1637176448765229608
4.1522356299383034184
4.139630366779331716
4.1257711705823316706
4.1107794946025997262
4.0949025100749683048
4.0785736349273591372
4.0623567792298986845
4.0468593463842887914
4.0325796143353853651
4.0198074831975247889
4.0084276149903121933
3.9980349535734083233
3.9880969680674134281
3.9781453009308775925
6.003051502986121335
5.9732203268533492491
5.9437605719739163845
5.9143379516624685621
5.8849178402543511623
5.8558153290876138186
5.8274871564270451785
5.8002293725169993266
5.7739804134670347224
5.7482487397229720116
5.7224139572584427071
5.6962206196752536158
5.669910741703237278
5.643929089649911468
5.6185590544581396344
5.593721620310753373
5.569049466747683752
5.5441833338730726055
5.5190821809018189015
5.4940987696760918979
5.4697272129236225169
5.4462245404921461045
5.423545550103615831
5.4014679595623569242
5.3797087480101950518
5.3581433184179800833
5.3368403519239260291
5.3158788843976720884
5.2952802757806862743
5.2749285993439860576
5.2547377612423682436
5.2346321797207968629
5.2147998566001421139
10.434914338124649191
10.333992361701874074
10.234497801183040977
10.135981969448097928
10.038007391082519604
9.9414373258923252052
7.0575657897642667393
7.0223888680964927644
6.9876210140057661846
6.9527299031952853881
6.9176019668803432339
6.8825937232040228508
6.8483282554048745538
6.8153038242403116698
6.7835340937078738577
6.7524965016755755798
6.7216136522489193794
6.6906983515870441792
6.6600741113935653104
6.6303157475009957267
6.6018066776650048411
6.5743417730729820647
6.5472862341596140823
6.5201780230432309082
6.4930740597767222511
6.4664105341301398866
6.4406003917210359333
6.4157528917067567775
6.39165316891969848
6.3678463737684314339
6.3440154941034787583
6.3202638382574365394
6.2968883589167070625
6.2741103516121023986
6.2519309695706279939
6.2301314816960129406
6.2085364480193909742
6.1872350629747714379
6.1663891324966639829
6.1463380657052919531
10.696392058078036058
10.596559863150561753
10.497592229930367225
10.398451511937274461
10.298439750667212067
10.198881300628757529
10.102250599648183282
7.5328435768812305184
7.4980169816752493261
7.461628489472881931
7.4244407937578396073
7.3880465675915996115
7.3542251274129464278
7.3240229055045489304
7.2969758068899048808
7.2714818609457259058
7.2459077367193209795
7.2196024532431808396
7.1931559609331188199
7.1676359078234321842
7.1433837949493810271
7.1195564284982673087
7.0948732345138214583
7.0687795871987191276
7.0418124722953798766
7.0151401659924639276
6.9897624321971774108
6.9657958375089874536
6.9423963539997410876
6.918442546867034082
6.8934809692958269878
6.867940824114578291
6.842511670790347722
6.8177592641641142635
6.793929521229034485
6.7708715708113240694
6.7484400681485894324
6.7266781225769136654
6.705704868202365887
6.6853620116576673027
6.6650443566524781858
6.6442038844171191769
2.4204686294198446417e-05
2.2436807082059654961e-05
2.081340385347747328e-05
1.9338260944585170789e-05
1.7990251393901676431e-05
1.6770636143767661221e-05
1.5632917200731481132e-05
1.4617553091457596644e-05
1.3687483763318809965e-05
1.2877970693808053846e-05
1.2118313353169873442e-05
0.00019408248889688699355
0.00017418517313172896476
0.00016060678067341419223
0.00015321640221823201928
0.00015062910658254207862
0.00015055401256047884332
0.00015211289664098328646
0.0001579925134110475094
0.00016233744553503329255
0.00016329048433120246678
0.0001627395603206890592
0.00015914054812688898126
0.00015350244072067322138
0.00015091402757287585251
0.00015050824780335275103
0.00015113415886307759333
0.00015475559983895237153
0.00016052511453825673974
0.00016382538764154777849
0.00016513973287714435326
0.00016533244128970399247
0.00016497337440731630167
0.00016272207598084514218
0.00015557078057641150759
0.00014841490516087415684
0.00014407388833966104213
0.00014242949639362188709
0.00014242656891220767564
0.00014418402698210139529
0.00015315465002957274836
0.00017244990766474707568
0.00018531537408522541261
0.00019081716664943050143
0.00019173558956945400034
0.00019097240319160651277
0.00018650534423740472586
5.1668346231921294159e-05
4.8461010852948642003e-05
4.5333919988540035014e-05
4.2359558970975373844e-05
3.9460773358585095793e-05
3.6729573663078161341e-05
3.4099172499409247214e-05
3.1625283259579322031e-05
2.9291508289450938894e-05
2.7114463949921644435e-05
2.5081230415989628823e-05
2.3236883339285882138e-05
2.1526916622667284973e-05
1.9976374941663643873e-05
1.855144802458622694e-05
1.7269142226442842417e-05
1.6070317637944433721e-05
1.501371392782770381e-05
1.4045605200114915322e-05
1.3213340085014633991e-05
1.2434731011846148304e-05
0.00019454433662090318911
0.00017468322413218925651
0.00016141736886788913088
0.00015448754078310151312
0.00015223978411880390786
0.00015225201871070168091
0.00015390356040893761903
0.0001591616121740401955
0.00016239723060816970996
0.00016295100657863855918
0.00016232974322378366139
0.00015863529019102113032
0.00015065024732798995956
0.0001450448193562745491
0.00014177960303365553466
0.00014001354489537318269
0.00013908181498310491974
0.00013868201150704444723
0.00013863016944745809177
0.00013877057409516417672
0.00013956932302820084565
0.00014148184627015220408
0.00014283105516307446816
0.00014336715174661241183
0.0001434091655192315626
0.00014307523874707386326
0.00014274177312844054787
0.0001429373981350377321
0.0001448239949673800573
0.00015345388457589458466
0.00017087756018773896669
0.00018276127490869368999
0.00018826894254926583041
0.0001894950678819515527
0.00018912383934216960468
0.00018634706192746400776
5.5768917279130655158e-05
5.2116907057195101705e-05
4.8570645785955266817e-05
4.5209756121474318049e-05
4.1955865940403747343e-05
3.8904027197262073688e-05
3.5985265277484354779e-05
3.3262002786143299261e-05
3.0710778952346915729e-05
2.8344842541062428994e-05
2.6149322967576710502e-05
2.415236635208538527e-05
2.2309590167681542445e-05
2.0644891109713983706e-05
1.9122356826233082245e-05
1.7767283890118404962e-05
1.6509523752267796925e-05
1.5415879615562978256e-05
1.4417850144714946677e-05
1.357230799139005987e-05
1.2776205526419821395e-05
0.00018119052360454588886
0.0001673841957321644668
0.00015986512985011593155
0.00015709791779096039495
0.0001568749454240611033
0.00015788568947603520828
0.00016186364635597104314
0.00016474805274787837368
0.00016524922325642538048
0.00016465412749512464588
0.0001609929314152493368
0.0001513999346600989422
0.00014402991193660983054
0.00014005544780444433668
0.00013852639681536136696
0.00013831677928028850069
0.00013867696578934106378
0.00014082889234025655102
0.00014836650296712799784
0.00015777155064852036999
0.00016436881135343107789
0.00016790232953309828417
0.00016895058156772831495
0.00016880027428047792446
0.00016692661616683599933
0.00016356842089793681406
0.00016244574563230936189
0.00016263653369842824429
0.00016493818277845163369
0.00017424394402464917463
0.0001850970185575480831
0.00019055337878416179521
0.00019198903988846763172
0.00019177206568768778521
5.353581747982589221e-05
4.983919940976038013e-05
4.6346645756552770092e-05
4.2995573247894727353e-05
3.9874129171636363994e-05
3.6919984879114491364e-05
3.417753958318393517e-05
3.1622389024764851941e-05
2.925121181651561952e-05