/*--------------------------------*- C++ -*----------------------------------*\
  =========                 |
  \\      /  F ield         | OpenFOAM: The Open Source CFD Toolbox
   \\    /   O peration     | Website:  https://openfoam.org
    \\  /    A nd           | Version:  12
     \\/     M anipulation  |
\*---------------------------------------------------------------------------*/
FoamFile
{
    format      ascii;
    class       volScalarField;
    location    "0.011";
    object      nut;
}
// * * * * * * * * * * * * * * * * * * * * * * * * * * * * * * * * * * * * * //

dimensions      [0 2 -1 0 0 0 0];

internalField   nonuniform List<scalar> 
106891
(
9.5674647073467882771e-06
9.5597960193676525311e-06
9.5521624266159781e-06
9.5446471470353128964e-06
9.537205263927962779e-06
9.5298773337819611836e-06
9.5226308553288163997e-06
9.5155226241427416802e-06
9.5084244762836897004e-06
9.5016051740106634397e-06
9.4944399771120105365e-06
1.0290099061959149447e-05
1.0328359227352196812e-05
1.0361738288449477414e-05
1.0391139615011952215e-05
1.0416259383281319394e-05
1.0435921381726697365e-05
1.0448216720960808805e-05
1.0451784020329937631e-05
1.0447651296968320735e-05
1.0439585065951546963e-05
1.0423981829778640652e-05
1.0381206410898594365e-05
1.0320875347233229865e-05
1.0278357090733502278e-05
1.0252257149601267571e-05
1.0238275126922716677e-05
1.0230392863027276546e-05
1.0226434473110974915e-05
1.0234745365149349432e-05
1.0277486530731648758e-05
1.035557385284707532e-05
1.0441179822903506273e-05
1.0530460419595999389e-05
1.0617555607981047326e-05
1.0694377723403575013e-05
1.0756474209694417293e-05
1.0802493601102747947e-05
1.0833904612633737287e-05
1.0853306507719654347e-05
1.0862469623022392374e-05
1.0863161526986033604e-05
1.0857740607579677855e-05
1.0849414135093274391e-05
1.0835471229954881826e-05
1.0800688531220985596e-05
1.0728033383273309688e-05
1.0663752595592529575e-05
1.0616907621241606361e-05
1.0145020494193973378e-05
1.0135064749368805437e-05
1.0125917051368347549e-05
1.0116517047289324584e-05
1.0107871998872653674e-05
1.0099013939435600302e-05
1.0090779907341829543e-05
1.0082314371533990479e-05
1.0074345069041139707e-05
1.0066025837588538265e-05
1.0058071187352124386e-05
1.0049752100267325501e-05
1.004185004834703237e-05
1.0033625425237173635e-05
1.0025847972276612753e-05
1.0017704565779492413e-05
1.001004507072231507e-05
1.0001870872042600795e-05
9.9943432483000185817e-06
9.9858334324975034309e-06
1.0945063412518924869e-05
1.0955610367162193889e-05
1.0959653532918409732e-05
1.096010215367036133e-05
1.0958103454302486678e-05
1.0954711386384186113e-05
1.0949196348971988109e-05
1.0941892666014961652e-05
1.0932439014839921256e-05
1.0913734778794966635e-05
1.0866159971310299502e-05
1.0808641176749798245e-05
1.076763598192667354e-05
1.0742077423458252426e-05
1.0728356265368453105e-05
1.0720640028917784173e-05
1.0718888626786337971e-05
1.0738087162674313148e-05
1.0812741038000946812e-05
1.0913895472534323108e-05
1.1010344864498367471e-05
1.1100759882542267566e-05
1.1182772074081993662e-05
1.1252934706433995733e-05
1.1310784139090736226e-05
1.1357014776939698442e-05
1.1392646285181740303e-05
1.1418364820671678163e-05
1.1433993812284101759e-05
1.1439323266585002683e-05
1.1436162179981358824e-05
1.1428193835569964968e-05
1.1416118125179416245e-05
1.1388018977465379995e-05
1.1317475486241837935e-05
1.1241898391660800559e-05
1.0682777939789923593e-05
1.0671830688232167899e-05
1.0662073960736041496e-05
1.0651506136925270653e-05
1.0642044073486670429e-05
1.0631845878549520443e-05
1.0622691694197166083e-05
1.0612792900651880294e-05
1.0603839440488643927e-05
1.0594104499224615606e-05
1.0585253184033174584e-05
1.0575639351418024455e-05
1.0566905730315040172e-05
1.0557376739702435456e-05
1.0548785453152964171e-05
1.0539253329033970724e-05
1.0530734684354742332e-05
1.0521075481040236018e-05
1.0512595512055353359e-05
1.0502262173842770801e-05
1.1504921186368906715e-05
1.1519104544716377196e-05
1.1531578367367280934e-05
1.1540023549926611086e-05
1.1543582754358088066e-05
1.1541783891080661554e-05
1.1535765682412310623e-05
1.1526983390029109153e-05
1.1511652913840940255e-05
1.1471184587780760728e-05
1.1394733055284564621e-05
1.1334214841328401228e-05
1.1294604489111500785e-05
1.1273095896968663541e-05
1.1262630062408115252e-05
1.1258185272587297062e-05
1.1272318730367670344e-05
1.134203688286593169e-05
1.1444006524029454286e-05
1.1534358621675231565e-05
1.1617355439423244332e-05
1.1694109598652876759e-05
1.176625367245492613e-05
1.1833916036234765813e-05
1.1897520795488353626e-05
1.1955531076111742067e-05
1.2005995504588002341e-05
1.204581106775341077e-05
1.2071755472548910835e-05
1.2082290229609687064e-05
1.2080321162913830482e-05
1.2071598870190256407e-05
1.2055910012258840093e-05
1.2013557724080225044e-05
1.1916336182515672716e-05
1.1828697455118729998e-05
1.1241985309701075691e-05
1.1231843216558983129e-05
1.1220064939638308281e-05
1.1209861440745021291e-05
1.1198112274572289169e-05
1.1187871476071243451e-05
1.117617051412699418e-05
1.1166045811917838719e-05
1.1154580656666869914e-05
1.1144577504313500147e-05
1.1133263793622054263e-05
1.1123409637549634812e-05
1.1112197930706846453e-05
1.110251260199952458e-05
1.1091233017939934271e-05
1.1081574118417172458e-05
1.1070108279527541615e-05
1.1060541102992532499e-05
1.1048114960621498775e-05
1.2038581650594527722e-05
1.2090541147914374588e-05
1.2139329426240033665e-05
1.2179887982497201434e-05
1.2206860054369065077e-05
1.2219154916094574807e-05
1.2218204634526358816e-05
1.2210193161597517869e-05
1.2196401169028526511e-05
1.2161015974858650681e-05
1.2077348539569677483e-05
1.1998213124213368789e-05
1.1941961638403841741e-05
1.1906470479134608371e-05
1.1886726185058696481e-05
1.18764544455999843e-05
1.1869701699139282246e-05
1.1869830800756145647e-05
1.1889837838961853667e-05
1.1952591056533901258e-05
1.2034305377162386849e-05
1.2126582561687460223e-05
1.2230661587653204864e-05
1.2343086067701278903e-05
1.2458586725686718883e-05
1.256858800232805896e-05
1.2663986292746901835e-05
1.2736559668543781572e-05
1.2781588785258609349e-05
1.2799772240651952716e-05
1.2798958578129375884e-05
1.2789359942322884364e-05
1.277015087044531573e-05
1.2715558068936287141e-05
1.1856777071245103457e-05
1.1842604913368097067e-05
1.1830535544847133571e-05
1.1816370758575364149e-05
1.1804293671476848439e-05
1.1790237231271008463e-05
1.1778340382223349573e-05
1.1764569692163915853e-05
1.175295179197120977e-05
1.1739567156447493524e-05
1.1728307743317191642e-05
1.1715271268749478307e-05
1.1704261388155860857e-05
1.1691396857096761149e-05
1.1680596455700264984e-05
1.1667726310107696055e-05
1.1657060133933386123e-05
1.1644045186868172387e-05
1.16335091115413432e-05
1.1619280674415904042e-05
1.2662580097404997596e-05
1.2678160443754640907e-05
1.2696190974441420383e-05
1.2715217982884517589e-05
1.2732334823449542255e-05
1.2743293299613476287e-05
1.2746520069498533644e-05
1.2741817373819919364e-05
1.2732894277747007657e-05
1.2719507881305489253e-05
1.269068111306187818e-05
1.2628625377683610364e-05
1.2571963810833811488e-05
1.2532864679844755475e-05
1.2509363506096939111e-05
1.2496764398890940767e-05
1.2488963577828040454e-05
1.2488563554995532953e-05
1.2516054112970374383e-05
1.2622693187094434253e-05
1.2759169729370157154e-05
1.2873569369570791819e-05
1.2968630675354459795e-05
1.3051065819088127916e-05
1.312689322385273277e-05
1.3199262680653216695e-05
1.3266477815899876418e-05
1.3324602900146342955e-05
1.3368240134405156476e-05
1.3393734762103465792e-05
1.3401325236754060472e-05
1.339689275347357091e-05
1.3386683460048352681e-05
1.246376244287295546e-05
1.2451536373079420182e-05
1.2436605112719315182e-05
1.2424207790386956071e-05
1.2409185831343640927e-05
1.2396735735198550417e-05
1.2381837073363151711e-05
1.2369553314042561673e-05
1.2354845920618274323e-05
1.2342722853063391311e-05
1.2328208375849415194e-05
1.2316292465205525149e-05
1.2301914774364694616e-05
1.2290161231273108149e-05
1.2275826035360804648e-05
1.2264263593986298725e-05
1.2249848597049330361e-05
1.2238413681145618914e-05
1.2222490211291289164e-05
1.3327588016482617173e-05
1.3328177703527575997e-05
1.3325638530033499893e-05
1.3320619814988484143e-05
1.3313385286740386069e-05
1.3304715234817262977e-05
1.3294000877687461057e-05
1.3276326815106670904e-05
1.3237259116114375506e-05
1.3185419355100918906e-05
1.3144683508361095661e-05
1.3118496903103222127e-05
1.3104427403748330566e-05
1.3096631049339940977e-05
1.3101125697364159113e-05
1.315035392806152516e-05
1.331335208911183761e-05
1.3501172725391162845e-05
1.3654742037268878562e-05
1.3773888025127885491e-05
1.3859496731370033259e-05
1.3916833922113058906e-05
1.3951592483771470317e-05
1.3969542610701272153e-05
1.3977063698549453124e-05
1.3979668615922931688e-05
1.3979790321466676516e-05
1.3977824151478003e-05
1.397296636244233547e-05
1.3965556830121214711e-05
1.395568207240196397e-05
1.3941977166386851017e-05
1.3115468741872694704e-05
1.3102544373630983898e-05
1.3086497150377952896e-05
1.3073435262681747451e-05
1.3057418279382757717e-05
1.3044402391692634815e-05
1.3028446106181607064e-05
1.3015423853774057628e-05
1.2999409065657802144e-05
1.2986335961126803349e-05
1.2970329416552088577e-05
1.2957399318758072555e-05
1.2941545018561984473e-05
1.2928888976705784941e-05
1.2913245165679881714e-05
1.2900895854435993277e-05
1.288526786652099325e-05
1.2873037442897578274e-05
1.2855693970190027126e-05
1.4110629859868553565e-05
1.4121521770744226238e-05
1.4121161286219418765e-05
1.4114260791704992594e-05
1.4104593658988102151e-05
1.409089303127534148e-05
1.4062630688931899913e-05
1.3994009322045743076e-05
1.3914469485267264823e-05
1.3853478865665807174e-05
1.381372448173403087e-05
1.3792459243645634073e-05
1.3782248350496520759e-05
1.3780650004581589287e-05
1.3811375127547369316e-05
1.3932453793698120747e-05
1.4083943662255411926e-05
1.4207699635560306354e-05
1.4309203745062914719e-05
1.4395198613360702831e-05
1.4472424862103157073e-05
1.4543547047096862297e-05
1.4608449071346606298e-05
1.4663797204144147775e-05
1.4704903056462166258e-05
1.4729559363792429441e-05
1.4739025267799816054e-05
1.4736863587396217064e-05
1.4728067859943010302e-05
1.471565917819114773e-05
1.3799455737673066384e-05
1.3782113067013281274e-05
1.3768329119481875587e-05
1.3751022197391236135e-05
1.3737386402993156698e-05
1.3719977781945977947e-05
1.3706204449254066365e-05
1.3688510673817432073e-05
1.3674509562457878763e-05
1.365671375762836533e-05
1.3642801636301926229e-05
1.362525545199888487e-05
1.3611758944108720909e-05
1.3594581442410978326e-05
1.3581425986082167414e-05
1.3564509977972873648e-05
1.3551433988080936979e-05
1.3532643451612816481e-05
1.483194083395994628e-05
1.4861364081067119064e-05
1.4873075238948136619e-05
1.4870227406225879169e-05
1.4860525227915364355e-05
1.4846770846736317487e-05
1.4819673286392136911e-05
1.4753893454920813402e-05
1.4674803779845352361e-05
1.461545713125903422e-05
1.4577686458374213225e-05
1.4557862043701593627e-05
1.4547568321198691931e-05
1.4544786674123187181e-05
1.4568993294886558259e-05
1.4664601072658001274e-05
1.4781861313482683884e-05
1.4880951617275610599e-05
1.4967547402533003164e-05
1.5045859974468009509e-05
1.5121617370027497546e-05
1.5198742350883270237e-05
1.5276679710995174857e-05
1.5351685127947277453e-05
1.5416655934479491538e-05
1.5465207594172936161e-05
1.5493531655493191846e-05
1.5502828492671014897e-05
1.45443169521498828e-05
1.4527117335300800981e-05
1.4512208574083213915e-05
1.4494865126872257416e-05
1.4479896358761789856e-05
1.4462412809752714978e-05
1.4447240380621963459e-05
1.4429374641036995952e-05
1.4413951687701986342e-05
1.4395768881500284309e-05
1.4380482755858659341e-05
1.4362222666483632263e-05
1.4347543271148533378e-05
1.4329299847011382581e-05
1.4315000648059908071e-05
1.4296559743466920797e-05
1.4282318488968001718e-05
1.4263501299431597644e-05
1.5384404505405452828e-05
1.5443390689347560299e-05
1.5476137906825887628e-05
1.5486809439163699853e-05
1.5480993425146985482e-05
1.5469154256689382466e-05
1.5448864164479136506e-05
1.5404688401283961693e-05
1.5360444340595373364e-05
1.5334558760184462611e-05
1.532151902854051519e-05
1.5317977451897649274e-05
1.5350708136860036722e-05
1.5486923011033395592e-05
1.5639303268666720722e-05
1.5734548638352754827e-05
1.5779885409427357989e-05
1.579090226821194633e-05
1.578607838791830229e-05
1.5778346599327069423e-05
1.5773909033427473727e-05
1.5781564453925261027e-05
1.5827437611022335864e-05
1.5902685189944073879e-05
1.5973985618221120489e-05
1.6033825713048276758e-05
1.6076034046343699662e-05
1.5103301140642642409e-05
1.5082991074233816528e-05
1.5066610933416062205e-05
1.5046193722565313948e-05
1.5029989001822337177e-05
1.5009232608210623138e-05
1.4993134225912137198e-05
1.4971975610826154655e-05
1.4955718840838021748e-05
1.4934607263548330063e-05
1.491840735070480844e-05
1.4897338574465860528e-05
1.4881529373710549136e-05
1.4860314399186396459e-05
1.4844438404401577995e-05
1.482306820566730714e-05
1.4807282986481198141e-05
1.5437550778478724569e-05
1.5502099102798245236e-05
1.56959277068071583e-05
1.5877885908542712826e-05
1.600390503789159678e-05
1.6080592612861837096e-05
1.6118518136522609651e-05
1.6134223812537620303e-05
1.6143111214700461403e-05
1.6161097056477753328e-05
1.619493565703445371e-05
1.624523798561329331e-05
1.6303743572728227626e-05
1.6356035447470514225e-05
1.6388649208063250364e-05
1.6397264528783405291e-05
1.6388586688401907056e-05
1.6368422151853828108e-05
1.6304717902837757799e-05
1.617158810160573891e-05
1.606993582988116957e-05
1.6009382146957851765e-05
1.5980040949526172305e-05
1.5967730368996576262e-05
1.5965218864254807708e-05
1.6000592289004418167e-05
1.6157669379764960004e-05
1.5318419441251934977e-05
1.5299753284068667245e-05
1.5274747123922868228e-05
1.5256311346181230553e-05
1.523132794262366115e-05
1.5213069234122373469e-05
1.5188006809881410337e-05
1.5169871551786221113e-05
1.5144524074978659635e-05
1.5126457325445380117e-05
1.5101126559111413235e-05
1.5083080721781622844e-05
1.5057798484046238752e-05
1.5039854521048413307e-05
1.5010912302654226734e-05
1.5004330311135320302e-05
1.2067574296356860296e-05
1.2069755148280077769e-05
1.2099953033351079455e-05
1.2212271204882288252e-05
1.2426025957229295361e-05
1.2646468147833897722e-05
1.2857848255267910782e-05
1.3041855683771578283e-05
1.3185434933110670342e-05
1.3284366740347974977e-05
1.3341867192787178743e-05
1.336595228063267699e-05
1.3368416718037020064e-05
1.3359785533958039484e-05
1.3346799074351514946e-05
1.3318888907776379565e-05
1.3240554743092923499e-05
1.3083314641480579195e-05
1.2938939255994375704e-05
1.2821098405709421418e-05
1.2733145767217713521e-05
1.267307519099564387e-05
1.2635771247378488829e-05
1.2614990578990593857e-05
1.2603500847634925639e-05
1.2595769282003410071e-05
1.2595383509770414514e-05
1.2621856238234941617e-05
1.1954302275299396436e-05
1.193516465440083504e-05
1.1920610956575321919e-05
1.1901603692393692395e-05
1.1887287514386185098e-05
1.186843913605356068e-05
1.1854406562844471771e-05
1.1835524675569630772e-05
1.1821705763115479898e-05
1.1802884769488545966e-05
1.1789256776468128691e-05
1.1770625408802439478e-05
1.1757189787116245286e-05
1.1736228235395158238e-05
1.1733590656527707213e-05
1.1688707871516495137e-05
1.174699703689200974e-05
1.1787496970636375036e-05
1.1819450115488521668e-05
1.1856430048721481747e-05
1.1907592250999044634e-05
1.197780204875959006e-05
1.2064173570372033908e-05
1.2162234988565864244e-05
1.226338307072331444e-05
1.2358544627473200589e-05
1.2437943018233967379e-05
1.2492744015274147239e-05
1.2519417245142631587e-05
1.252308386229570737e-05
1.2514782355357219695e-05
1.2498622728354540393e-05
1.2453235560912798995e-05
1.2361691338734986874e-05
1.2286816968783600737e-05
1.2235122872956826978e-05
1.2202629895943775529e-05
1.2183282016171461363e-05
1.2171468082849049206e-05
1.2162817042975601988e-05
1.2155873220298982936e-05
1.2155052541954060213e-05
1.1425446525486467129e-05
1.1411411698211025977e-05
1.1393404051762279279e-05
1.1379570699210701963e-05
1.136171701219097065e-05
1.1348151482509233679e-05
1.1330326846110011732e-05
1.1317058006952880679e-05
1.1299317697256731132e-05
1.1286369114301647527e-05
1.1268935507885975244e-05
1.1256316918299617448e-05
1.12372826664119625e-05
1.1228806515135317733e-05
1.1290173417109377731e-05
1.1310129575004553395e-05
1.1337057844918096703e-05
1.1376009970585884609e-05
1.1430022976665326761e-05
1.1499059617001122414e-05
1.1580018944506327696e-05
1.1666420532193636983e-05
1.1749235428047613702e-05
1.1820408686797747384e-05
1.1871791282242208989e-05
1.1899936543826659564e-05
1.1906941296958614465e-05
1.1900683182457072977e-05
1.1887712282826158665e-05
1.1852147510540997577e-05
1.1783777864485354015e-05
1.1734274167958076032e-05
1.1706740540734414166e-05
1.1693820131591670333e-05
1.1687328947684204387e-05
1.1691546179565994731e-05
1.1725160282765132179e-05
1.1753893295476620519e-05
1.1768239171393598573e-05
1.1779893438572998929e-05
1.0992970238539098637e-05
1.0976884058029696416e-05
1.0964440103549807286e-05
1.094821625971861625e-05
1.0935819102911821247e-05
1.0919517897017682061e-05
1.0907301764329691265e-05
1.0890982221077930613e-05
1.087891205443028261e-05
1.0862801491085956906e-05
1.0850962426251332279e-05
1.0833469631851674867e-05
1.0825080397764662231e-05
1.0904952357592035013e-05
1.0958808298766873387e-05
1.1024908779401073355e-05
1.109700088679377559e-05
1.1166880004132119844e-05
1.1226446576166453163e-05
1.1270227624480811841e-05
1.1298830078595141634e-05
1.1316688219156990081e-05
1.1328758587553457762e-05
1.1336022619435385487e-05
1.13378241682100935e-05
1.1333719032143783857e-05
1.132580845956992562e-05
1.131519401164746529e-05
1.1302423943470953408e-05
1.1293519212262297493e-05
1.128890018183726851e-05
1.129699951729316599e-05
1.1305005138904349946e-05
1.1305288770130728226e-05
1.1304896192431030205e-05
1.1310270260695265879e-05
1.1329098048305920554e-05
1.1362496003816004498e-05
1.0555037269532361203e-05
1.0542758108791173838e-05
1.0526938526730675346e-05
1.0514761084811324974e-05
1.0499008664759240379e-05
1.0487124076031344901e-05
1.0471451610183179389e-05
1.0459878701398214894e-05
1.0444445165823808727e-05
1.0433109480058052021e-05
1.0416312007068322259e-05
1.0408421717041929037e-05
1.0568160097522386691e-05
1.0598356554374337512e-05
1.0634115918731583948e-05
1.0673185522930508402e-05
1.0712603873532243852e-05
1.0753745912795299299e-05
1.0799286990605314854e-05
1.085208020638415932e-05
1.0910719425413240317e-05
1.0968075194111969793e-05
1.1012467313877519705e-05
1.1036258174560230775e-05
1.1040262227218423832e-05
1.1032985122602813124e-05
1.1019788603461096136e-05
1.0988145878355003014e-05
1.0951105480681114053e-05
1.0927565977177634591e-05
1.091395912686255418e-05
1.0905506948055679106e-05
1.0898833697566875421e-05
1.0895342454856879442e-05
1.090207214787862056e-05
1.093652965151891897e-05
1.0180196870622527114e-05
1.0203865516732039433e-05
1.0245698449794153308e-05
1.0300944819309328784e-05
1.0365463045428555258e-05
1.0435836293381136385e-05
1.0506451256041530356e-05
1.0569601692102532689e-05
1.0615561739556968917e-05
1.0638820004124661053e-05
1.0641407698628961836e-05
1.0633309256675062412e-05
1.0613647062793015274e-05
1.0563481929324860582e-05
1.0519546919425318412e-05
1.0497637160346359601e-05
1.0488625452387452609e-05
1.0485790347899109668e-05
1.0502450183647359385e-05
1.0552874602941942343e-05
1.0592532998529446698e-05
1.0618889364621516405e-05
1.0638864672147791654e-05
9.9255649637045818622e-06
9.9722418712113363647e-06
1.0019256415739456287e-05
1.0062989639642508632e-05
1.0100096645407270044e-05
1.0128149921283700763e-05
1.0144883410568567283e-05
1.0149849460836101199e-05
1.0145427323359989426e-05
1.0137049091928897817e-05
1.0120372146276520773e-05
1.009268459260506524e-05
1.007487912130836219e-05
1.0065851489854741102e-05
1.0062267096819452138e-05
1.007682857129389863e-05
1.0120569333366173786e-05
1.015231974553215536e-05
1.0171541762825750844e-05
1.0190010377211076065e-05
1.0215902846387984546e-05
9.780446084415846884e-06
9.7923988356204801688e-06
9.7989955992396962761e-06
9.8033130231973681349e-06
9.805545157412786877e-06
9.8045465175464683574e-06
9.7997517838982876225e-06
9.7927162013173316493e-06
9.7848727659454906813e-06
9.7773600160493951387e-06
9.7705663721812706444e-06
9.7644519601617821004e-06
9.7588537631918867947e-06
9.753855460399593418e-06
9.7502536807486790379e-06
9.7501288723529592198e-06
9.7597711117015364599e-06
9.5372389546710969967e-06
9.5534408282026087592e-06
9.5525122392032477272e-06
9.5442170671914161085e-06
9.5238103023968989695e-06
9.4730002657583140663e-06
9.4257794264089705261e-06
9.396268272548701414e-06
9.3792687557800626916e-06
9.369312713554076518e-06
9.3625641010097638038e-06
9.356988111055317302e-06
9.3549038281252345763e-06
9.0836933275748439837e-06
9.0719823665546053137e-06
9.0377744771214151362e-06
8.9889441961729779412e-06
8.9582524269279316501e-06
8.9431867786928292074e-06
8.9362933700883783383e-06
8.9341072535980566e-06
8.9469790735455788524e-06
8.9627507698067374796e-06
8.9700850392718538864e-06
8.9754129835564386546e-06
5.2139981956023004453e-06
5.3726753069099779018e-06
5.4694211334679077729e-06
5.512624456662832236e-06
5.5219051448820709337e-06
5.5175024352034892356e-06
5.5001040150352068479e-06
5.4371703424342979308e-06
5.3521850724645165032e-06
5.2989420035506097447e-06
5.2738189236744240925e-06
5.2659980462723566323e-06
5.2645489552799994227e-06
5.2754424510462093192e-06
5.3086954597070169537e-06
5.3286171356386909093e-06
5.3342163575704746152e-06
5.3331210540958114486e-06
5.3322105178398936139e-06
5.335511236829867494e-06
7.6084139688813705264e-06
7.8676924754666516151e-06
8.0586816761845155862e-06
8.1789251342498116824e-06
8.2347834282256257988e-06
8.2482835620259799394e-06
8.2436274702422201435e-06
8.2274665183412605632e-06
8.168742498724744291e-06
8.0552502487504581979e-06
7.9725874683733361013e-06
7.9244221710582038194e-06
7.9028210463408937736e-06
7.894608923552893186e-06
7.8908407745180349788e-06
7.8916356649515836572e-06
7.8912718909807206213e-06
7.8876793959055999767e-06
7.8849648476516977913e-06
7.8866063402077692758e-06
7.9001190412865350521e-06
7.9506012470807651475e-06
1.3811687315081749776e-05
1.4071431776726929324e-05
1.4276212352545321208e-05
1.4406751782592916783e-05
1.4461103575844780971e-05
1.4469954699952926092e-05
1.4459845622255918863e-05
1.4431743105080996906e-05
1.4367253152220186172e-05
1.4321043962252286006e-05
1.4297643607513005101e-05
1.4289072441756521967e-05
1.4287883759738188459e-05
1.430758980100636099e-05
1.4382334040610356856e-05
1.4465805257645435256e-05
1.4517222294972155258e-05
1.4543098103595986082e-05
1.4565711019254062021e-05
1.4622363867924121703e-05
1.4755661947480329675e-05
1.4929166143850304018e-05
1.5099585039658642516e-05
1.5238724263770980319e-05
1.5325929996627948778e-05
1.5361981669695745178e-05
3.1081590364148811885e-05
3.1431296871375739854e-05
3.1760821958897288565e-05
3.2032262983571071309e-05
3.2226966220197228029e-05
3.2342917202004562436e-05
3.2398700858589538174e-05
3.2415973060820857355e-05
3.2420852891691263799e-05
3.2434925010838997969e-05
3.2484318443257924162e-05
3.262901459599159285e-05
3.2842309672176609055e-05
3.3051726472589176798e-05
3.3232786690336649335e-05
3.3377483577243219804e-05
3.3492380108113967412e-05
3.359824716424261059e-05
3.3727418850735363073e-05
3.3894696990409179131e-05
3.410961847732408447e-05
3.43624303427699716e-05
3.4627591917357209556e-05
3.4863841950319747064e-05
3.5048240506639960815e-05
3.5168353184737131966e-05
3.5220603785185374034e-05
3.5227489191222449184e-05
6.3752597446834038996e-05
6.3935052622083370847e-05
6.4065414027226352681e-05
6.4137205495020535389e-05
6.415895205088553363e-05
6.4149434211762721802e-05
6.4132832622529667758e-05
6.4131256198162361936e-05
6.4161399543326820094e-05
6.4228729534457728429e-05
6.4329769714077726607e-05
6.4451921165341281373e-05
6.4582051042748694577e-05
6.4703853857796134338e-05
6.4812788539282564868e-05
6.4902520174727018989e-05
6.4978030077849052281e-05
6.5045267596126950141e-05
6.5109320093622712489e-05
6.5164694095452691653e-05
6.5210068718585760929e-05
6.5229114196065806535e-05
6.5217517192412414366e-05
6.5181384862846451279e-05
6.5134702503089354623e-05
6.5072923136800836681e-05
6.4977850175034089952e-05
6.4884269918322079354e-05
6.4807659011810106594e-05
6.4754371312389022441e-05
9.2366247881024113753e-05
9.2180657199131678207e-05
9.1978229640336754539e-05
9.1759999614868215882e-05
9.1533067749190419088e-05
9.1309439436366285608e-05
9.1101074769037309622e-05
9.091540080063315358e-05
9.075174851877637909e-05
9.0602598813794269937e-05
9.0457004416363343794e-05
9.030588916510070294e-05
9.0145781336444151207e-05
8.9978567587923897466e-05
8.980780291733564825e-05
8.9636310547950521295e-05
8.9463732070757306719e-05
8.9287003599732993504e-05
8.910197057679875379e-05
8.8904860702009611082e-05
8.8694233784849702842e-05
8.8471408193862961463e-05
8.8239072561347033736e-05
8.8001870838194415727e-05
8.7765859060552780017e-05
8.753754431559556575e-05
8.7322309422968735098e-05
8.7123342175685490238e-05
8.6939473819210255591e-05
8.6766376264968268122e-05
8.6598293750917673976e-05
8.6430112995191353282e-05
0.00010641426183026858154
0.00010607577996722234945
0.00010574049738233083846
0.00010540540505129999396
0.00010507008721478489554
0.0001047372505318946382
0.00010441097002073528347
0.00010409399607153946646
0.00010378594758093550763
0.00010348253964517516764
0.00010317818179893629104
0.00010287043921206321295
0.00010256137239069111481
0.00010225498423180407674
0.0001019539315856984391
0.00010165763373483920247
0.00010136280964960862471
0.00010106612809556214986
0.00010076709886892204796
0.00010046887808350652804
0.00010017602336899093058
9.9891026909187846162e-05
9.9613582198872929621e-05
9.9341700760801542004e-05
9.907272908782418792e-05
9.8805444274262141076e-05
9.854044217793559888e-05
9.8278467653364881941e-05
9.8019767853679780128e-05
9.776330841717742286e-05
9.7508274478548846308e-05
9.7253924447957839391e-05
9.7001988277416528804e-05
0.0001428845200386525717
0.00014209328428296097825
0.00014130958502709829706
0.00014053042337035777181
0.0001397526760730714271
0.00013898222206307480221
0.00011318275505088840473
0.00011282193468354118657
0.00011246431301389567259
0.00011210553848240085214
0.00011174456951366571172
0.00011138414377806974797
0.00011102928134684998912
0.00011068414380807643554
0.00011034903949786696923
0.00011001987343803098585
0.00010969192628397747579
0.00010936352929938680735
0.0001090371977868284664
0.00010871764882285131742
0.00010840816139592411441
0.00010810722301477635105
0.00010780968371767343079
0.00010751165618736351407
0.00010721347745293140349
0.0001069187058154675771
0.00010663083281261566404
0.0001063509152341901489
0.00010607728121508072996
0.00010580617646364906862
0.0001055348765741702746
0.00010526414500194719028
0.00010499642167869893932
0.00010473358419903548938
0.000104475713635230694
0.00010422101058971106448
0.00010396797445574180844
0.00010371730740952816801
0.00010347036168827297025
0.00010323007354430055872
0.000142007270423728831
0.00014124560183010505927
0.0001404873631262241432
0.00013972573860914467929
0.00013895588706909188796
0.00013818642507686589938
0.00013743427009029507186
0.00011470278746910777135
0.00011435821575031155598
0.00011400151689858783782
0.00011363814913149412607
0.0001132801051578793928
0.00011294116611425030004
0.00011262980991848908199
0.00011234295376721349852
0.00011206848484315090955
0.00011179369806193673758
0.00011151319028773197019
0.00011123123779130053177
0.00011095613847492167366
0.00011069085226743086267
0.00011042913277843502558
0.00011016109955627529694
0.00010988221340517887977
0.00010959635349616208286
0.00010931253452121681173
0.00010903875547001976205
0.00010877622544556202959
0.00010851849306115496775
0.00010825669037685135073
0.00010798694480038948708
0.00010771232911066461202
0.0001074381626414645292
0.00010716898530586124825
0.00010690691217319233622
0.00010665087514962905179
0.00010639975490244373338
0.00010615390125887147271
0.00010591434462788179029
0.00010568001280332891764
0.00010544629036292446612
0.000105208833517824341
2.8287709626665656297e-07
2.7216106914349223497e-07
2.6194758495211258289e-07
2.523181163009833314e-07
2.4319507190320750496e-07
2.3464314225469492361e-07
2.263858534393267365e-07
2.1875662318510310286e-07
2.1153351853879367935e-07
2.0503841746446746266e-07
1.9875803278145904033e-07
1.0122328586463111228e-06
9.5823385728010965338e-07
9.1942462305413090919e-07
8.973312615556831244e-07
8.8905767110025594825e-07
8.8820474352969869652e-07
8.9213675113509647437e-07
9.0854835437755660239e-07
9.2036926740517992093e-07
9.2245216629164114686e-07
9.2027071461157109274e-07
9.094610396234717854e-07
8.9256178367767559403e-07
8.843550509072657277e-07
8.8253503454889963605e-07
8.8373634039837379174e-07
8.9358371940460490406e-07
9.0947806004399273943e-07
9.1817232542277874652e-07
9.2122831384564081491e-07
9.2113370968624602782e-07
9.1950303777300528541e-07
9.1261456357626409496e-07
8.9177290457746645548e-07
8.7038689544271570626e-07
8.5693354166036162101e-07
8.5140784092652399658e-07
8.5079583869547780071e-07
8.5538878751425009269e-07
8.8082677343097462557e-07
9.3404061239955657301e-07
9.6769102551324989083e-07
9.8134316375131018784e-07
9.8304997092795291824e-07
9.8043013874289513951e-07
9.6829793366705912016e-07
4.2697673187687310008e-07
4.1322796769338713846e-07
3.9939838891667220306e-07
3.8580847384592005651e-07
3.7211764072142536116e-07
3.5876192105165376119e-07
3.4543914644646754666e-07
3.324429452991081059e-07
3.1972077319704580901e-07
3.0739734350172388241e-07
2.9544203379133928034e-07
2.8417404575241830019e-07
2.7332797710695807301e-07
2.6311669757762540872e-07
2.5338176449232329217e-07
2.4429722795723752873e-07
2.355001491208006053e-07
2.2746633641387137036e-07
2.1985510799398159303e-07
2.130915789786636848e-07
2.0657140349894902919e-07
1.0397900814948774093e-06
9.8455241961622975551e-07
9.4570365108131824705e-07
9.2446977082982338697e-07