/*--------------------------------*- C++ -*----------------------------------*\
  =========                 |
  \\      /  F ield         | OpenFOAM: The Open Source CFD Toolbox
   \\    /   O peration     | Website:  https://openfoam.org
    \\  /    A nd           | Version:  12
     \\/     M anipulation  |
\*---------------------------------------------------------------------------*/
FoamFile
{
    format      ascii;
    class       volScalarField;
    location    "0.011";
    object      p;
}
// * * * * * * * * * * * * * * * * * * * * * * * * * * * * * * * * * * * * * //

dimensions      [1 -1 -2 0 0 0 0];

internalField   nonuniform List<scalar> 
106891
(
100733.46310467412695
100740.7241757773445
100745.59541327244369
100747.99694994013407
100748.09131545964919
100746.28400051304197
100743.04303910900489
100738.98955949617084
100734.7088690817618
100730.76008236898633
100727.29246986562794
101070.38526530365925
101078.57002142521378
101089.84089269582182
101099.83264910499565
101104.86783999718318
101103.44065651159326
101097.63892791060789
101091.80780287263042
101090.63339430613269
101095.28720626932045
101102.1768351689534
101103.97864679276245
101094.59319895016961
101072.97006083071756
101044.75764832185814
101019.58068285330955
101005.41112679729122
101004.48976615740685
101012.94305129862914
101023.87908267723105
101032.23323563444137
101037.35131467759493
101041.67377254643361
101046.8695137136383
101051.50908172944037
101051.14234188634146
101041.53368006000528
101021.72979819972534
100995.09494992367399
100967.65551180882903
100944.41582156263757
100927.7178948901128
100918.42018802957318
100915.55246589600574
100917.47735883062705
100922.42255034198752
100926.90361774263147
100927.42758152267197
100718.31516790135356
100712.87025500062737
100709.96652381970489
100709.77802817405609
100712.17448796173267
100716.71606600905943
100722.70152558424161
100729.49853939420427
100736.68685903820733
100743.96073453246208
100750.98223931886605
100757.19167034837301
100761.93859011452878
100764.67996930908703
100765.16267697612057
100763.41928223562718
100759.67732661424088
100754.41166542527208
100748.39854544051923
100742.15805322154483
101074.23031580389943
101074.97296334522252
101074.48480022486183
101072.34426638355944
101068.9424007889902
101065.8642894391669
101065.61604188149795
101070.2299287563219
101079.16132950226893
101088.02580821474839
101089.92096719394613
101079.49353801003599
101056.50152166622865
101027.11256023020542
101001.62011245756003
100988.5463863449113
100989.80221551435534
101000.57096637907671
101012.90219333584537
101021.1880725753872
101024.88406578706054
101027.33072213751439
101031.43040091785952
101036.32603427606227
101037.86403975335998
101031.32043305122352
101014.92094402103976
100991.04057769438077
100964.90690314724634
100941.95159376361698
100925.40743518562522
100917.30455033149337
100917.32882014101779
100924.4549142767064
100935.61440874780237
100946.74017631485185
100754.41388447086501
100750.57309800494113
100747.59768504818203
100745.48836893109547
100744.37496698298492
100744.3930250863923
100745.58239915787999
100747.89820016310841
100751.36373481646297
100756.04743658995721
100761.87004196787893
100768.37393861442979
100774.64459219507989
100779.55411220405949
100782.12278749789402
100781.82901911740191
100778.6252324396919
100772.76300809977693
100764.94669142297062
100755.96133272007864
101064.56682274442574
101050.87446200948034
101037.66004002302361
101028.27238760414184
101024.89472936248058
101027.68555127926811
101035.70978834379639
101047.24092921706324
101059.28544315192266
101067.21360911623924
101065.99500893402728
101052.89990167198994
101029.81202257426048
101002.99184744007653
100981.28808759131061
100971.56104558285733
100974.93482411216246
100986.6759329111519
100998.83565841439122
101005.79203614644939
101007.31097121495986
101006.88579208354349
101008.38290110017988
101011.95964418322546
101014.22591172631655
101010.94322161654418
100999.69722723482118
100981.67850794184778
100960.76080052884936
100941.42109459017229
100927.63443208954413
100921.8985170001979
100925.01899095959379
100936.60099932931189
100953.46982004148595
100970.59788820511312
100785.14244185794087
100781.86670192662859
100778.09516723910929
100773.93980198825011
100769.87236156607105
100766.55315318042994
100764.59221249417169
100764.4368315506581
100766.36178920653765
100770.37747200322337
100776.08755261059559
100782.59496841319196
100788.5841923195112
100792.63614567874174
100793.66091255217907
100791.24989397451282
100785.55820693225542
100777.21079684296274
100766.92492574616335
101017.38003172358731
100991.64705424792191
100976.27407742924697
100974.69564673364221
100985.16403424026794
101003.04774656533846
101021.87388531987381
101035.88246076009818
101040.384856272256
101033.25112075844663
101015.82664081313123
100993.00288384759915
100971.36282464055694
100957.05680551467231
100953.36527150475013
100959.69020054046996
100971.25135044888884
100981.70450650036219
100986.35874809250527
100985.26787181483814
100981.73234952538041
100979.33805554191349
100980.39664571387402
100982.91780237009516
100983.38838001369732
100979.01680382441555
100969.55686284262629
100956.92626390224905
100944.06613844598178
100934.72184092183306
100931.82319423717854
100937.75130170476041
100952.23583980006515
100972.65540405477805
100815.31577454003855
100812.04548048817378
100807.70493063163303
100802.17807969810383
100795.52466595670558
100788.24228206579573
100781.26169992920768
100775.64338902165764
100772.20185257149569
100771.31556320971868
100772.9429146397888
100776.70252463199722
100781.87766939270659
100787.40913130919216
100791.96605314440967
100794.19519998849137
100793.17188216574141
100788.59450782575004
100780.89779992359399
100770.8864233820932
100978.34643835762108
100942.85383158971672
100923.85915016576473
100924.89108180376934
100942.8719934552646
100969.28558384664939
100993.94260951918841
101008.31750453544373
101007.83313175830699
100993.64088285510661
100971.25173741127946
100948.49517740574083
100932.37617166528071
100926.47561880445573
100930.42447710302076
100940.96068413564353
100953.05066515502403
100961.77187578004668
100964.28508468472864
100960.80126660261885
100954.24165197116963
100948.5279857654823
100946.66204717711662
100949.27586095819424
100953.82012866537843
100957.33035584256868
100957.2433431919635
100953.29761303077976
100947.75254659444909
100943.42410178612045
100943.46189274471544
100950.91835123818601
100966.50029499008087
100828.50038909695286
100822.08475509815617
100814.41488725275849
100805.74263562458509
100796.45291819449631
100787.19172762513335
100778.86203034911887
100772.39907357767515
100768.4702568147477
100767.25351508424501
100768.41555085845175
100771.25452364022203
100774.88777095564001
100778.38149635626178
100780.78847831687017
100781.27112229150953
100779.14756790551473
100774.17227701410593
100766.58543009351706
100900.34379325683403
100880.93062061841192
100884.78251614427427
100907.31836458276666
100938.06049229955534
100964.6848355975817
100977.26367411953106
100971.95864810977946
100951.69899696813081
100924.91545609939203
100901.4217080129747
100888.78042213535809
100888.98077508439019
100899.25220432197966
100914.27903797166073
100928.15936348147807
100936.83339266457187
100938.83647095560445
100934.54813345609
100926.62944211669674
100919.25495673567639
100916.12484307448904
100919.53053812737926
100928.26001457533857
100938.53227997415524
100946.26120278652525
100949.3748864709487
100949.14782356156502
100948.76906967823743
100951.45426108063839
100959.79617067375511
100973.66099144118198
100832.91128579416545
100823.73778867418878
100813.29340583986777
100802.20304877594754
100791.12518667698896
100780.66020621241478
100771.32701884266862
100763.56621434887347
100757.71264484578569
100753.94609156809747
100752.23615784590947
100752.2989395691402
100753.61344940369599
100755.54420577584824
100757.44111323509424
100758.75998933560913
100758.96951136382995
100757.63070873399556
100754.45462209665857
100855.58758563119045
100861.14713140677486
100883.89872192326584
100912.54316769343859
100935.5160696926614
100943.9853084297356
100935.11990670191881
100912.2546888825018
100883.64501923719945
100859.34852933244838
100847.0353618580848
100848.57911164840334
100860.95377851190278
100878.16990365392121
100893.7830992279778
100903.98955332498008
100907.6274690287828
100905.28201972438546
100899.10662960767513
100893.13223368264153
100892.19391491328133
100898.43470887227159
100910.72361183684552
100924.82225637105876
100936.14859413677186
100942.41545886192762
100944.8089148397703
100946.26929250909598
100950.23926614609081
100957.52008641678549
100812.50038749982195
100799.21148925326997
100785.70415884049726
100772.81009393591376
100761.22219568531727
100751.43225753150182
100743.67836875368084
100737.94465611661144
100734.01576244452735
100731.58247009314073
100730.34749345752061
100730.05594904239115
100730.49128886134713
100731.4418644974503
100732.74518177159189
100734.17824478819966
100735.46678111449
100736.29532498680055
100855.69385337264976
100873.87599874968873
100894.836709373747
100909.57951939590566
100912.48989464675833
100902.31940542031953
100881.00245799322147
100854.37336043824325
100829.98913314894889
100815.2527466553729
100813.27334443133441
100821.88089698902331
100836.13537739866297
100850.98721833893796
100862.31053775270993
100868.69395424198592
100870.79647590788954
100870.83533750472998
100871.62800387578318
100877.11883183238388
100887.70281945604074
100901.73149729431316
100915.60183481416607
100925.27283266413724
100929.72343051873031
100930.75943040224956
100931.75084460500511
100934.73921516713744
100791.49248631736555
100776.05598421634932
100760.67464449220279
100746.48747210671718
100734.37689611493261
100724.87609034958587
100718.13769157523348
100713.95800578259514
100711.84908558730967
100711.11468462688208
100711.00950366885809
100710.97327746008523
100710.78337100704084
100710.53536887945666
100710.59843203469063
100711.38660063598945
100713.15997284336481
100715.96986448661482
100872.85486337941256
100884.32056984707015
100890.99102827149909
100890.12505866981519
100880.86129100993276
100864.08416098440648
100841.85419368045405
100819.10393628734164
100801.59943724062759
100792.85071376120322
100793.01755264839449
100799.18838570853404
100807.57954085853999
100816.52843490848318
100825.54791180846223
100834.8927494216623
100844.78423630655743
100856.64966038920102
100870.28802583008655
100884.84648423107865
100898.00484883484023
100906.78537527201115
100910.25810126318538
100909.33500908293354
100906.47305626000161
100904.73251416868879
100905.02176539231732
100747.0345815315377
100732.38444610776787
100719.04189206898445
100708.12870421787375
100700.36665021636873
100695.94054914191656
100694.4826856401196
100695.17063272069208
100696.94337202451425
100698.73362092045136
100699.6822991433728
100699.39683320697804
100698.04591764058569
100696.31480681982066
100695.18091906247719
100695.59238810726674
100698.28698495782737
100866.79742794146296
100872.1944169907365
100878.76100159820635
100883.44329910290253
100883.93818911610288
100878.14559415905387
100865.87851019366644
100848.71909297385719
100829.83508944795176
100811.8533306580357
100797.49704392449348
100787.48833650995221
100781.41139991463569
100779.90869637588912
100783.85777900151152
100793.47528553217126
100807.99448475110694
100826.44236777551123
100846.43129928872804
100865.12122105994786
100880.20045320963254
100889.78524744641618
100892.87080952913675
100889.88868231566448
100883.11349207117746
100875.50696656096261
100869.40403145695745
100704.41782556756516
100696.24486304691527
100689.82031051964441
100685.80390868912218
100684.46241868891229
100685.54329561063787
100688.27676405226521
100691.54032651033776
100694.13152826066653
100695.0671160267957
100693.89976299105911
100690.88212820672197
100686.96110152025358
100683.54422609807807
100682.05484721234825
100683.72544466274849
100857.47922449521138
100865.05612592112448
100875.47370198571298
100885.88071929375292
100891.71369175960717
100889.40245218096243
100880.05691237456631
100866.87232982488058
100853.03176273265854
100839.910399579152
100826.47684084041975
100811.84069958281179
100797.59130226810521
100787.65302079483808
100785.43857791666233
100791.80868390570686
100805.1471373958193
100822.18724223079334
100839.57038702160935
100854.3430775396846
100865.74235169454187
100872.47359228497953
100873.57129127415828
100869.04332892344974
100860.27009353111498
100849.75315143082116
100839.74532050732523
100831.79821826380794
100681.55558697276865
100681.54364331073884
100682.20937489476637
100683.54477808346564
100685.35412396778702
100687.21866202543606
100688.53650399597245
100688.67507718810521
100687.1717219271668
100683.94429496287194
100679.39398077969963
100674.41662810630805
100670.27341840745066
100668.21475222262961
100669.42298202312668
100854.85003564867657
100872.15584302859497
100889.20602467052231
100899.33592892838351
100899.55820455422509
100892.03281637608598
100882.61390856679645
100874.47731257310079
100867.33300099636836
100858.09668045215949
100844.47683814636548
100828.48955014812236
100814.88081034457718
100808.16176474957319
100809.42605660150002
100816.38660985298338
100825.23211106394592
100833.5479207051394
100841.02402992323914
100847.33909646450775
100852.14986882254016
100853.64864607015625
100850.62259634980001
100843.20780806496623
100832.72887947730487
100821.30784059295547
100811.73955101790489
100677.30213276714494
100681.54247735027457
100684.33261011487048
100685.56191567308269
100685.23049124763929
100683.39324431960995
100680.16316894719785
100675.73361357086105
100670.4344993661507
100664.77018317606417
100659.45237179164542
100655.3978603395517
100653.48897033596586
100654.61558126707678
100869.55159186886158
100891.90476780741301
100904.25720481072494
100906.03905771112477
100900.39821448393923
100894.80951090292365
100893.02913259466004
100892.95492319003097
100889.93765740243543
100880.99316007601738
100867.52276094519766
100853.82429881341523
100843.86013643187471
100838.45315079037391
100835.29206325572159
100831.94014325068565
100828.14487741570338
100825.74818136339309
100826.33328926299873
100829.42182501606294
100832.67423634964507
100833.35803326615132
100829.83652191773581
100821.99762584603741
100812.14947400822712
100803.58045499595755
100680.32475037894619
100683.39175590394007
100683.06667755111994
100679.82588163143373
100674.44593183773395
100667.77249822054
100660.5762761234364
100653.51794145270833
100647.15481226349948
100641.99713968888682
100638.54915021859051
100637.1678682565398
100638.28798419843952
100892.26623925790773
100904.8993443641084
100906.52430118672783
100903.12709178499063
100901.57744708938117
100905.78687862116203
100912.75093751295935
100916.38981327375222
100913.42681729918695
100904.73734304570826
100893.4288303857029
100882.15676819067448
100870.85380476029241
100857.63274342965451
100841.97001907975937
100825.89862813649233
100813.3292882872629
100807.4480460811028
100808.22087174654007
100813.08730288108927
100818.05152411767631
100819.7050158658094
100816.8531666087365
100811.07695702198544
100805.80731152651424
100679.20727026664827
100677.01493340467277
100671.07777395784797
100662.65511526554474
100653.13921412327909
100643.79506963060703
100635.59319631429389
100629.10935170094308
100624.55919032666134
100621.95232003224373
100621.12848455536005
100622.14727419038536
100902.55376272837748
100903.63031585454883
100902.04995956571656
100904.3838496421522
100912.91534476890229
100924.75922666212136
100934.21284534200095
100937.22012933029328
100933.52897759516782
100925.28010606719181
100913.8347722589242
100898.82353939871246
100878.56176359186065
100853.67513005982619
100827.94682990692672
100806.67586360717542
100794.35037799924612
100792.25906180245511
100797.94840002851561
100806.55337025309564
100813.44348121427174
100816.44457807962317
100816.13882567967812
100815.5735363298154
100900.59790355512814
100900.1938174728275
100904.56332036177628
100915.22172992168635
100929.50307179304946
100942.53376317933726
100949.97887278771668
100950.31148556026164
100944.57778989999497
100933.81992194714257
100917.4825297423813
100894.64116144271975
100865.9115165664989
100834.99717934617365
100807.89395767483802
100790.2810911568813
100784.64440262009157
100789.45490768374293
100799.88369985752797
100810.68659600392857
100818.73715509058093
100823.76050981449953
100828.29980971029727
100903.93095996706688
100914.65894583456975
100929.3898845500953
100943.71603974427853
100953.26708482019603
100955.66473267588299
100951.2714859652333
100941.51556053667446
100926.50551708870626
100905.31904570493498
100877.87143145446316
100846.75284327837289
100817.44635759855737
100796.31367122662778
100787.10517184062337
100789.37135775356728
100799.18978217302356
100811.33107762991858
100822.17486458923668
100830.98771809964092
100839.80932636499347
100950.30691188730998
100952.94210290121555
100948.72265444885124
100939.84805579669774
100927.57282728351129
100911.12362698232755
100888.76553172324202
100861.33493266202277
100833.27527710708091
100810.894328449358
100798.76371618683334
100797.80637202685466
100804.97518116600986
100815.53358641998784
100826.08546435412427
100835.97608240957197
100847.08194470794115
100923.63446938725247
100912.8126851565321
100897.53675455522898
100876.5522264529427
100852.71270681657188
100831.44866662677669
100817.7573972306418
100813.47526735781867
100816.67388506066345
100823.31511830973614
100830.67850932346482
100838.63922574160097
100849.34387885501201
100911.43667467296473
100903.38930121898011
100890.04650777910138
100872.40476016688626
100854.54405902810686
100841.13419434739626
100834.22014014190063
100832.75575961270079
100834.10655801949906
100836.35785288519401
100840.07750335345918
100847.71349819241732
101150.03639106261835
101143.96013312753348
101150.2372293745284
101158.99343490453612
101162.28747293738707
101159.59617752638587
101157.57540258116205
101163.78495992372336
101179.78416078220471
101200.45019161231176
101218.19255405796866
101227.84763514444057
101229.23044532233325
101226.16935354624002
101223.59798023695475
101226.54860071324219
101236.885585850192
101251.85991176760581
101266.19018062103714
101273.50540345552145
101186.89076004043454
101161.2372634896019
101151.87358928073081
101156.69502821667993
101164.77553422226629
101166.76056807950954
101161.25950902831391
101155.81414243644394
101159.38265240534383
101174.96209492675553
101196.45007998378424
101214.98108945283457
101224.0806055386056
101224.27302598755341
101221.45549082949583
101221.69106159936928
101229.43000303521694
101244.1224439839134
101261.22035458353639
101274.91349474043818
101280.24987835394859
101276.347190207729
101261.06001563101017
101235.79996097687399
101200.60970579634886
101171.18008222339267
101158.69190352107398
101162.14543737354688
101169.79975682855002
101170.67724298455869
101162.66381133865798
101153.87465490042814
101155.03220325072471
101170.10674497610307
101192.86568822372647
101212.15973251641844
101220.87825449899537
101220.06968463535304
101217.09971676205168
101219.9830776459421
101232.00526507539325
101250.73730480021914
101269.98210887839377
101282.76400772274064
101286.19034729125269
101281.09065713180462
101271.0980970148812
101260.60765075715608
101280.69041321169061
101276.58850972549408
101250.40141477223369
101212.31256148585817
101179.33212876197649
101164.1624347170582
101166.58535845989536
101174.25332696587429
101174.11098972393665
101163.74932014294609
101151.8236586421699
101150.8001847195701
101165.5829866421991
101189.61969927222526
101209.88895302102901
101218.3347952436161
101216.32199016028608
101213.1140506471711
101218.14679827088548
101234.09203137435543
101256.72906241531018
101277.56176364829298
101289.67139183150721
101291.28364640234213
101285.10681714596285
101275.6033490918926
101265.76939543323533
101257.90103217997239
101273.54815361800138
101292.6398392690171
101290.02760025895259
101262.71776043889986
101221.97218171898567
101185.79183332312095
101168.38575219515769
101170.01777782608406
101177.8278059847944
101177.08768110482197
101164.60379338359053
101149.84723165775358
101146.75216490855382
101161.44795878615696
101186.77341172592423
101208.21460431572632
101216.22189664942562
101213.08054258055927
101209.48432422311453
101216.17848793578742
101235.93721386737889
101261.95558450464159
101284.19442637467
101295.60719604912447
101295.57224311982282
101288.45049618557096
101279.23540644157038
101270.24875689335749
101262.02566647680942
101254.84765562982648
101250.93637041035981
101280.8875742090022
101302.42841314403631
101301.12874621630181
101272.83706684787467
101229.51918600317731
101190.56797574469238
101171.2694241037243
101172.51133301790105
101180.82919326667616
101179.82062575059535
101165.31229484372307
101147.97110652730044
101143.05642226614873
101157.74018067390716
101184.4855338135385
101207.01473347192223
101214.64578505518148
101210.1573994285136
101206.09224321425427
101214.39370850658452
101237.24789766520553
101266.44349225793849
101289.82147898864059
101300.64000593064702
101299.11178104199644
101291.15876876840775
101282.21837009000592
101273.90256893649348
101265.24965840044024
101256.41455864552699
101250.71541290308232
101253.62419070400938
101286.49398067592119
101310.58250608512026
101309.8352497824817
101280.64843494772504
101234.98702693654923
101193.73143279450596
101172.99468282330781
101174.22256514661422
101183.12311541190138
101181.99314392276574
101165.84387523151236
101146.28388849219482
101139.86868380807573
101154.70112126211461
101182.65552413296246
101206.31850474666862
101213.55906502452854
101207.827754541373
101203.33800293889362
101212.78709494681971
101238.20029983451241
101269.89221519081912
101294.66497081941634
101304.64817940197827
101301.79964628907328
101293.16228717990452
101284.35743922059191
101276.67953600140754
101267.69096441897273
101257.27142408433428
101249.62351265619509
101251.35824364541622
101500.8836987043469
101513.16878764312423
101516.67568549097632
101504.5590706976509
101474.00773066036345
101440.60567593455198
101255.28586320187605
101290.49580274921027
101315.96005525920191
101315.83690779922472
101286.03481282632856
101238.53060332557652
101195.50553588903858
101173.8987138185621
101175.24462279064755
101184.69152549059072
101183.5460597283236
101166.24143837660085
101144.96712941955775
101137.48293539531005
101152.48886694665998
101181.50486287016247
101205.90840565689723
101212.93876488745445
101206.1998855296406
101201.14414211851545
101211.46502295658865
101238.74329685349949
101272.33826269865676
101297.89218312581943
101307.49293303025479
101303.69590961401991
101294.38014264489175
101285.82656025890901
101278.57898319444212
101269.30880087785772
101257.66764300940849
101248.54719477375329
101249.5796307620476
101263.31945374353381
101478.59737100345956
101503.87763334995543
101516.19658751072711
101519.43811503463075
101506.01269761746516
101473.8298615841195
101439.78378215096018
101256.19932657352183
101292.64802134869387
101318.83300196743221
101318.97442379356653
101288.69627866474912
101240.08428321024985
101196.0540079621278
101174.12495824994403
101175.66497203690233
101185.55033683268994
101184.33943010130315
101166.41262165668013
101144.14100688954932
101136.12755781027954
101151.27941097503935
101180.98756918001163
101205.82902256354282
101212.6640033628064
101205.24775920833054
101199.96638743221411
101210.69556515770091
101239.03379900693835
101273.90121468214784
101299.69603261064913
101309.03181045729434
101304.62300599987793
101294.90591712853347
101286.57250452316657
101279.4393923554162
101270.06851610090234
101257.69590918450558
101247.73429588753788
101248.47826232771331
101262.7597314502782
101281.39651131132268
100690.55427096007043
100681.01376713502395
100671.69195454462897
100662.40638795605628
100653.02807979087811
100643.80372209036432
100635.32419174158713
100628.39309232200321
100623.75023765618971
100621.91959494646289
100622.58377254889638
101083.12987260225054
101082.29344643450167
101077.16839209124737
101071.62548308580881
101069.4461611907027
101072.01278992187872
101077.38033614143205
101083.13148744103091
101088.20854570352822
101092.67035921943898
101096.81152899644803
101099.24973796540871
101097.49034235079307
101089.96694074636616
101078.63461786958214
101067.72523875143088
101059.96689463753137
101054.05321262894722
101044.70161993405782
101026.97478767404391
101000.48728880588897
100971.26040550832113
100948.94572582594992
100940.81717912582099
100949.07965648590471
100969.29239936039085
100992.52574154826289
101009.02181729603035
101011.8146776980866
100998.59287323961325
100972.19220196834067
100939.52146474279289
100909.18243433610769
100887.86787153962359
100879.10682919823739
100881.92468500819814
100742.70426470949315
100755.76582236911054
100764.04704450926511
100767.14483694672526
100765.39883761541569
100759.6550766134169
100751.12525853057741
100740.9558199205203
100729.91664087008394
100718.35034973525035
100706.36499479948543
100694.1559897257539
100682.03792239676113
100670.41653071263863
100659.64450353372376
100650.06861553866474
100642.2384010093665
100636.78809757620911
100634.16627488467202
100634.61335098244308
100637.53263847890776
101041.19254434548202
101041.69446260070254
101046.03958745719865
101055.62946866954735
101069.49650544246833
101084.32554403897666
101095.0282181713701
101098.24391683023714
101094.92078693477379
101088.56228881198331
101082.22048572584754
101076.18200795978191
101068.3709724485816
101056.68589733373665
101041.99142273401958
101028.29891315546411
101019.27026154022315
101015.31445955928939
101012.7311527869897
101006.35148190453765
100993.65100128760969
100977.32813271913619
100963.18767599723651
100957.06464636577584
100961.35036578083236
100973.92073076214001
100989.55472115687735
101000.92641003307654
101001.73346327363106
100989.17315676767612
100964.91558827651897
100934.87836478825193
100907.13395899762691
100889.07956800131069
100883.85608758752642
100890.50111732113874
100754.46521371912968
100766.95874724285386
100775.24443790409714
100779.11063965887297
100778.80370771349408
100774.88803790607199
100768.109119092318
100759.30029825035308
100749.12111644609831
100737.93170019825629
100725.84158731957723
100712.96138682954188
100699.6831605508487
100686.72146193261142
100674.96009908997803
100665.12534951888665
100657.68145241586899
100652.96007576184638
100651.11291378588066
100652.1399444246199
100655.3707244482066
101004.18501637403097
101018.14396006621246
101041.83591826261545
101069.85330541076837
101093.81316640818841
101106.20034688578744
101104.32301136106253
101091.21508161335078
101073.49009830005525
101056.43889361355104
101042.22043471259531
101029.17451817322581
101014.66742493085621
100998.35737928769959
100983.33432553858438
100973.76055904485111
100971.80066853624885
100975.89929807346198
100981.422236519531
100983.7880735937797
100981.22404734313022
100975.33572349895258
100969.56637850085099
100966.97787524927116
100969.28568176865519
100974.96075102924078
100980.04064451684826
100979.51217142341193
100969.64329753919446
100950.43823878909461
100926.18180491805833
100904.11105300165946
100891.0569530918292
100890.31669023471477
100772.87948033107386
100779.7337153172848
100783.12825276138028
100783.495051365986
100781.37287616037065
100777.21767252820428
100771.36697163427016
100764.06930040298903
100755.42851881141542
100745.44943573203636
100734.18737388211593
100721.96368933170743
100709.47464582783869
100697.71413443594065
100687.69684652501019
100680.08712107077008
100675.0783784329833
100672.50912398478249
100672.19476231979206
100673.65885771904141
100973.22663003655907
100995.65407760479138
101029.36046828811232
101064.5240770625096
101090.57375276270614
101100.2459927272721
101092.38537136353261
101071.0495563615259
101044.39973591010494
101019.52592838573037
100999.80348879814846
100984.26932729424152
100969.84216292270867
100954.6353553115332
100940.56322439906944
100931.52155176624365
100930.6606533787708
100938.55672107568535
100952.0830912685924
100966.03704809595365
100975.05203890368284
100976.43041194758553
100971.07564257051854
100962.79450019398064
100955.6408702343615
100951.91102906230662
100951.02359232679009
100949.37768628458434
100942.93256306865078
100930.36785002656688
100914.06125210125174
100899.54594757829909
100892.50308654679975
100896.26695866545197
100773.694901378738
100777.43026651022956
100779.0344379824237
100779.00411236660148
100777.94911041755404
100776.23812502426154
100773.86695504574163
100770.59125258155109
100766.12785197971971
100760.26018641346309
100752.87715202424442
100744.02070940613339
100733.98849749942019
100723.41129930999887
100713.21134953266301
100704.36711168705369
100697.55283249859349
100692.8803394229617
100690.12180158506089
100688.79544504407386
100977.37110527644109
101011.59465850901324
101043.89751625408826
101065.08718632360979
101069.76364203260164
101057.56667810525687
101032.78027893679973
101003.08621446038887
100975.50980947590142
100954.03999688709155
100938.66974787822983
100927.11679298290983
100916.1158552402776
100905.3282187579025
100897.81843987558386
100897.0664415309584
100904.82303118903656
100920.13632948530721
100938.62424313869269
100954.0701129250665
100960.77442648728902
100958.12155803783389
100948.27689129802457
100936.30907982580538
100926.74593329538766
100921.1338396359497
100918.07704216193815
100914.15210764287622
100907.30761472466111
100898.71626643635682
100892.0153381581913
100891.14274443905742
100773.09030519660155
100771.72441003234417
100769.94941114170069
100768.35941281246778
100767.46416241663974
100767.41114330779237
100767.83570907625835
100767.98136405463447
100767.01374029723229
100764.28697619421291
100759.49501570178836
100752.68032607653004
100744.17530329701549
100734.5625482594769