/*--------------------------------*- C++ -*----------------------------------*\
  =========                 |
  \\      /  F ield         | OpenFOAM: The Open Source CFD Toolbox
   \\    /   O peration     | Website:  https://openfoam.org
    \\  /    A nd           | Version:  12
     \\/     M anipulation  |
\*---------------------------------------------------------------------------*/
FoamFile
{
    format      ascii;
    class       volScalarField;
    location    "0.011";
    object      p_0;
}
// * * * * * * * * * * * * * * * * * * * * * * * * * * * * * * * * * * * * * //

dimensions      [1 -1 -2 0 0 0 0];

internalField   nonuniform List<scalar> 
106891
(
100734.01352247757313
100741.14676880709885
100745.8754508789134
100748.13459348634933
100748.09485221665818
100746.17403868157999
100742.85093103766849
100738.74537777471414
100734.4373450451676
100730.46742133030784
100726.96113854691794
101070.49898886230949
101078.87312130197824
101090.1787279175478
101100.04165024892427
101104.87734772532713
101103.28209776920266
101097.4603570105246
101091.79417009130702
101090.91070240126282
101095.80087808181997
101102.68847133817326
101104.19318439372
101094.34461711137556
101072.34364682015439
101044.06190193470684
101019.15750779905648
101005.45586395380087
101004.95875905152934
101013.59865793983045
101024.48868768832472
101032.7044432113471
101037.74960148293758
101042.10629626215086
101047.33858007736853
101051.87009098559793
101051.19108663567749
101041.13955728760629
101020.93139920821704
100994.07691476253967
100966.62278029756271
100943.51374764488719
100926.97575281653553
100917.80406373977894
100915.03607571141038
100917.031573898028
100922.021781470321
100926.51066847141192
100927.03883984082495
100717.93900821972056
100712.6549975664675
100709.92255380986899
100709.89298599904578
100712.42456415634661
100717.07677978873835
100723.15164911320608
100730.01100352611684
100737.23121969500789
100744.50459212793794
100751.49504751017957
100757.64405912949587
100762.297725525641
100764.91413751685468
100765.2482421574241
100763.35680587618845
100759.48958574561402
100754.13032143883174
100748.05338337713329
100741.76524733523547
101074.19047708745347
101074.85978019733739
101074.28396584658185
101072.09731556753104
101068.71842680596455
101065.78046019982139
101065.78273365669884
101070.69381051360688
101079.80516554698988
101088.60138082790945
101090.13457248776103
101079.20373784312687
101055.80177205253858
101026.33069110625365
101001.14071113348473
100988.57710949219472
100990.29430805142329
101001.26373922073981
101013.52624305276549
101021.64208831965516
101025.26432228035992
101027.78211482272309
101031.98382969640079
101036.84560330896056
101038.12059883629263
101031.14951974448923
101014.31397165128146
100990.14148312037287
100963.91817417315906
100941.02884618937969
100924.6405736990273
100916.72013054142008
100916.95148176504881
100924.23185771917633
100935.50596891409077
100946.66425437996804
100754.10019454160647
100750.32235954602947
100747.418081940501
100745.37587787568918
100744.32468513913045
100744.40969189854513
100745.68387113527569
100748.10692233365262
100751.69110809148697
100756.48403238184983
100762.38344768213574
100768.91452877224947
100775.15174506923358
100779.96349340183951
100782.37594604855985
100781.88750801324204
100778.48786330089206
100772.4639937596512
100764.53722655848833
100755.48896908851748
101063.99979833398538
101050.17767157850903
101036.99675372269121
101027.79766679671593
101024.69767309428426
101027.80411721482233
101036.12371435965179
101047.86982713155157
101059.95448967796983
101067.69983687414788
101066.10252644005232
101052.56689177385124
101029.16442723589716
101002.31689330827794
100980.90862615287188
100971.6544539083261
100975.44970111230214
100987.36678714698064
100999.45182545758144
101006.23030411110085
101007.67027182830498
101007.32213872364082
101008.94712518306915
101012.55416003601567
101014.64786730478227
101011.01359252040857
100999.36630429349316
100981.04372492562106
100959.97668979708396
100940.63334389407828
100926.96783650670841
100921.44153415180335
100924.80806204838154
100936.63299412708147
100953.66868993792741
100970.84272570225585
100784.83933626576618
100781.52980212724651
100777.73739980394021
100773.58033795026131
100769.54079905277467
100766.29309113095223
100764.45637215192255
100764.46992186960415
100766.58044743929349
100770.75996397508425
100776.57826686334738
100783.11828712091665
100789.05720117944293
100792.97937965943129
100793.80967160635919
100791.16958167833218
100785.25958782473754
100776.74930394775583
100766.37696641244111
101016.07847917295294
100990.55170065931452
100975.6347711928247
100974.60659407722414
100985.557477122813
101003.73763836201397
101022.63554355854285
101036.48267412540736
101040.66206500228145
101033.13794683211017
101015.41464833538339
100992.47443370969268
100970.94708583092142
100956.95064460250433
100953.63587780451053
100960.26015805697534
100971.93406810087617
100982.30652992967225
100986.8029512699577
100985.61758057372936
100982.13252000029024
100979.85455554396322
100981.00430347629299
100983.46716291799385
100983.7181911051739
100979.04066957136092
100969.29280393793306
100956.46611748677969
100943.53084564907476
100934.24550626263954
100931.52611126383999
100937.70324161816097
100952.47136208051234
100973.0856562066765
100815.08978982669942
100811.71622727454815
100807.26664701761911
100801.64822134673886
100794.94105005430174
100787.65516172544449
100780.72863054681511
100775.22553294265526
100771.95589824787749
100771.27835079902434
100773.11450726359908
100777.0388228512893
100782.29992985824356
100787.82532195439853
100792.2919499316049
100794.36739435062918
100793.1512998725666
100788.36894006084185
100780.48758459341479
100770.34415595881001
100976.55388890660834
100941.45109268775559
100923.15135695743083
100924.954824675282
100943.53002637226018
100970.20462593255797
100994.76305030124786
101008.77803307292925
101007.83446776868368
100993.26279299451562
100970.71775669534691
100948.07942623844428
100932.25678523100214
100926.71659625730535
100930.97876055914094
100941.68662368273363
100953.80266005608428
100962.41631225663878
100964.78147454449208
100961.18689451816317
100954.61223509014235
100948.99238562151731
100947.25127394228184
100949.92525314880186
100954.39683651157247
100957.71920466498705
100957.37269444711274
100953.19347591868427
100947.50923836280708
100943.15533758616948
100943.31670782010769
100951.00222226693586
100966.84094210641342
100828.165746477418
100821.60714856139384
100813.80725544816232
100805.05010679370025
100795.74360682931729
100786.53799969526881
100778.32414693843748
100772.01825434317288
100768.26903868177033
100767.23550223604252
100768.56062695338915
100771.51444315744448
100775.19165622998844
100778.65263324978878
100780.96365758658794
100781.31279834160523
100779.04307320209045
100773.92743018371402
100766.21809580917761
100898.85128593313857
100880.27174715425645
100884.98049523639202
100908.12599432900606
100939.07471429243742
100965.46580498950789
100977.54423628981749
100971.68745237242547
100951.06443559621403
100924.23800997495709
100901.02699279556691
100888.86081047657353
100889.50853523329715
100900.09350294194883
100915.24735196708934
100929.09666616268805
100937.6374498623336
100939.46848825542838
100935.02732335698965
100927.03815827533253
100919.70965285613784
100916.71653152884392
100920.27722117766098
100929.04818880421226
100939.20497809776862
100946.69402446095773
100949.54582241487515
100949.11828806766425
100948.6830244474404
100951.43673802902049
100959.95165851477941
100973.97856265990413
100832.54935291224683
100823.23907207458979
100812.67845148615015
100801.5113005782332
100790.41601652564714
100780.00442981965898
100770.78892198615358
100763.18592592561617
100757.4995565454883
100753.88549232849618
100752.30072955146898
100752.45582316740183
100753.82621399819618
100755.77353857683192
100757.64834944234462
100758.91343950321607
100759.04865924161277
100757.62541212588258
100754.3581333145703
100855.06585809358512
100861.42869440400682
100884.69080444610154
100913.43855322290619
100936.12373117879906
100944.07311075499456
100934.65263135450368
100911.44900255255925
100882.83221749105724
100858.8718668306683
100847.09402975188277
100849.18497128845775
100861.95243122673128
100879.3408138876257
100894.94197297339269
100905.02755375849665
100908.49034185842902
100905.95087886125839
100899.64297191867081
100893.69479279722145
100892.89592416917731
100899.29520282382146
100911.64769899551175
100925.63568431210297
100936.71281685162103
100942.68834374241123
100944.88335215167899
100946.27008554931672
100950.28228961749119
100957.64156508719316
100812.00810921206721
100798.62876670375408
100785.0889657210646
100772.22352644667262
100760.72105301756528
100751.06199675642711
100743.46443127543898
100737.88605285680387
100734.0861986328382
100731.74180893223092
100730.55655729290447
100730.28637612346211
100730.72877924963541
100731.68253087118501
100732.98801539713168
100734.41811709267495
100735.69116768092499
100736.47929381771246
100855.9788857758831
100874.49501931108534
100895.43644255932304
100909.89935834260541
100912.38266377197579
100901.78931860275043
100880.16817466117209
100853.48054022068391
100829.3389114150923
100815.10297307847941
100813.68396493856562
100822.75307912145217
100837.30336615296255
100852.25195980403805
100863.53071026374528
100869.78284018141858
100871.74164078771719
100871.68438912506099
100872.48375360004138
100878.0565542315162
100888.69463195373828
100902.68304045029799
100916.35519976576325
100925.72653736548091
100929.90402526561229
100930.77992298906611
100931.73915439574921
100934.75395254572504
100791.05513353344577
100775.55113108237856
100760.17933774470293
100746.08019697407144
100734.12094593353686
100724.80758071712626
100718.25857871960034
100714.23743104418099
100712.2322493200918
100711.53619626598083
100711.41243041587586
100711.32622184774664
100711.08581878016412
100710.81219721227535
100710.88665638526436
100711.71683883098012
100713.54105954269471
100716.38095436943695
100873.19873204229225
100884.61139391470351
100891.07178488618229
100889.93498750499566
100880.36983603375847
100863.32423638294858
100840.94770276358759
100818.29363747354364
100801.11850921978476
100792.84699090504728
100793.48911977000535
100800.00528311390372
100808.62650772595953
100817.72848503457499
100826.83499025063065
100836.20512653487094
100846.09071154872072
100857.94506585939962
100871.52730656581116
100885.9521429057495
100898.85800280960393
100907.30437827583228
100910.44518359242647
100909.28276889202243
100906.33201689954149
100904.59278003717191
100904.89057780466101
100746.69459724632907
100732.08393336672452
100718.86600824804918
100708.14717859421216
100700.61481936370546
100696.40862090267183
100695.11729216757521
100695.8889552304463
100697.65463447033835
100699.36123499661335
100700.18242449323589
100699.76954877770913
100698.33218548943114
100696.580740227364
100695.49645393488754
100696.00952409063757
100698.81825257524906
100866.9338208494155
100872.42175221197249
100879.00476291411906
100883.58990981505485
100883.88352592014417
100877.82284145739686
100865.27356638855417
100847.93863664020319
100829.02297639560129
100811.16416700943955
100797.06939298324869
100787.38133400115476
100781.64763203516486
100780.51083062491671
100784.82389407673327
100794.75574479448551
100809.51810256380122
100828.08772566731204
100848.04299336342956
100866.55046272551408
100881.31026017444674
100890.48172736825654
100893.14184251120605
100889.78856226625794
100882.78451968613081
100875.09972766667488
100869.01115052028035
100704.47362339407846
100696.4156857408525
100690.15513688743522
100686.32492869212001
100685.15515690241591
100686.35519033308083
100689.12666846999491
100692.3381685201457
100694.80067489632347
100695.56473547658243
100694.22989060368855
100691.09540676008328
100687.14037464212743
100683.7804323030432
100682.42279741450329
100684.26295510670752
100857.78185417616623
100865.48475419911847
100876.01081808262097
100886.35027039468696
100891.93489172680711
100889.29127126996173
100879.68956189762685
100866.35795482106914
100852.49194339865062
100839.39375882421155
100825.96633109584218
100811.38963469161536
100797.35724605055293
100787.79679327170015
100786.04692987461749
100792.86427394756174
100806.51732572558103
100823.70797262935957
100841.05659317380923
100855.65195617676363
100866.7622476574179
100873.10051197183202
100873.74896784825251
100868.80849481566111
100859.74146789775114
100849.07367995033565
100839.04335035616532
100831.15523478758405
100682.11499897115573
100682.1639400889253
100682.88595546367287
100684.25669014963205
100686.06349507598497
100687.87562797369901
100689.08966884444817
100689.08572993698181
100687.42742543370696
100684.06638902788109
100679.43590311518346
100674.4541255900549
100670.38874048755679
100668.47812851684284
100669.8753322345583
100855.64668089733459
100873.06745974275691
100890.01053453440545
100899.82250595121877
100899.65727085917024
100891.9067626370379
100882.44664109908626
100874.32816373597598
100867.13852746896737
100857.76015109209402
100844.01067747459456
100828.07669959909981
100814.74842902459204
100808.44948493575794
100810.12378170817101
100817.37106430099811
100826.35300806882151
100834.68825746892253
100842.08495782753744
100848.22869269506191
100852.74547809528303
100853.83652712416369
100850.37983994248498
100842.60244514229998
100831.88076122757047
100820.39031888243335
100810.91336167922418
100678.13416583942308
100682.29276679018221
100684.97781060666603
100686.08384906052379
100685.61569608052378
100683.635912376325
100680.26922858787293
100675.72323440834589
100670.34335180798371
100664.64860938832862
100659.36188248766121
100655.40364108313224
100653.6480293009663
100654.96230827517866
100870.81261740924674
100892.96754538975074
100904.91758763331745
100906.33497219304263
100900.55347722677107
100895.03960674272093
100893.34918848732195
100893.20120064930234
100889.94429955289525
100880.74140718679701
100867.1614878216642
100853.57362483628094
100843.86489513303968
100838.71985339734238
100835.74169532636006
100832.49949067532725
100828.78718427124841
100826.47164235725359
100827.06022482416302
100829.99808709905483
100832.93363823917753
100833.20416996553831
100829.26787007800885
100821.1232950391568
100811.15718581997498
100802.68265538352716
100681.09596875667921
100683.93170470336918
100683.37780818708416
100679.93430697461008
100674.39173044532072
100667.60159037607082
100660.33621019584825
100653.25508456640819
100646.9144633267133
100641.82389507415064
100638.48353468549612
100637.24227117400733
100638.52309665220673
100893.42639509438595
100905.63419004513707
100906.98757922984078
100903.55450460065913
100902.18762112670811
100906.55082994251279
100913.43728614332213
100916.78475771160447
100913.48447356375982
100904.56947798960027
100893.20330902609567
100881.98090194350516
100870.74659496803361
100857.5683472372184
100841.96809447930718
100826.03734373878979
100813.66817148726841
100807.95277096692007
100808.74490643964964
100813.42951376429119
100818.04837320068327
100819.29156536831579
100816.11108664075437
100810.17594170947268
100804.96769262233283
100679.63969288396765
100677.15314901543024
100670.9748751027073
100662.38298874467728
100652.77523591951467
100643.41073444503127
100635.24442333425395
100628.8325309556094
100624.37413867376745
100621.86883849637525
100621.15448135933548
100622.29332625494862
100903.27583412452077
100904.19017807830824
100902.70446907127916
100905.28230609699676
100913.99377589067444
100925.78945440871757
100934.95173272126704
100937.57632111867133
100933.57421497486939
100925.14857799255697
100913.60315037851979
100898.49944887917081
100878.15614455660398
100853.25879134665593
100827.66224321890331
100806.64837540537701
100794.60630677244626
100792.69233772184816
100798.35073837409436
100806.71592524486186
100813.25502416816016
100815.93080346770876
100815.44125877418264
100814.90096472308505
100901.18911392323207
100900.95507296263531
100905.60126847814536
100916.45124033758475
100930.71053079720878
100943.49419946750277
100950.57400492409943
100950.55922755463689
100944.56781266696635
100933.62507369516243
100917.11368814822345
100894.10607871036336
100865.29543167228985
100834.44318072580791
100807.57311482913792
100790.28328517111368
100784.92756963624561
100789.84730915098044
100800.17157001238957
100810.7192392332945
100818.48836783185834
100823.33450039985473
100827.87952084644348
100904.95572817938228
100915.8893386493728
100930.62971125588228
100944.76825969737547
100953.99382373316621
100956.04698838452168
100951.38966648642963
100941.44061744121427
100926.25419424526626
100904.87990661490767
100877.26810445795127
100846.10477118655399
100816.93345789072919
100796.09289182048815
100787.20263073030219
100789.67509088589577
100799.51466343212815
100811.51425857566937
100822.15686450556677
100830.83722612516431
100839.67131578577391
100951.07214356241457
100953.38971182529349
100948.94234856824914
100939.93547749462596
100927.54569283024466
100910.92088819517812
100888.33317815909686
100860.73303715046495
100832.68646139533666
100810.50679210585076
100798.67397957858338
100797.96980575485213
100805.24199178534036
100815.75187119348266
100826.1953478022624
100836.02699088738882
100847.18286070233444
100923.84758255233464
100912.89397869135428
100897.353496539552
100876.10995834491041
100852.14940377470339
100830.97262383291672
100817.50473112548934
100813.46419719496043
100816.79938781622332
100823.44954833164229
100830.78048435755773
100838.76741939899512
100849.58929717107094
100911.7543534032593
100903.46616119661485
100889.81784294480167
100871.9498941948259
100854.0542367859598
100840.76991767527943
100834.02736612585431
100832.68297544849338
100834.07231442535704
100836.34705906057206
100840.15946351950697
100847.97281634241517
101148.85974992306728
101143.36535170226125
101149.94060054548027
101158.59839733994158
101161.58657987159677
101158.66497089473705
101156.68147352800588
101163.14564863484702
101179.40017521767004
101200.1877932628413
101217.90599845483666
101227.52009833615739
101228.97199563642789
101226.10744622728089
101223.8242156390188
101227.06720666318142
101237.54588431087905
101252.42045127568417
101266.39189336213167
101273.1694185352826
101185.0397945765144
101159.85439452381979
101151.11765910728718
101156.27985021530185
101164.26759248945746
101165.90733266450115
101160.145997396452
101154.75486254481075
101158.64416750312375
101174.56000076899363
101196.19037543454033
101214.67740307684289
101223.70687678742979
101223.97773816423432
101221.44395070281462
101222.05538018826337
101230.1191351194866
101244.88991109094059
101261.79029031800746
101275.03414774827252
101279.81668764307688
101275.44619770377176
101259.67943995849055
101233.84996906277956
101198.59026352355431
101169.61409549026575
101157.78078074577206
101161.6226146787958
101169.19306560861878
101169.69534168372047
101161.38416802808933
101152.66183025806095
101154.20404189058172
101169.7022747527808
101192.62545735745516
101211.8608081745333
101220.46168059007323
101219.74103525215469
101217.12709154920594
101220.46875032800017
101232.84222504873469
101251.61975476736552
101270.56408499646932
101282.80467215375393
101285.66476673424768
101280.1327639939409
101269.9245054837811
101259.44352508972224
101280.12626641386305
101275.20409365638625
101248.35168492555385
101210.1319104298309
101177.60173784024664
101163.12539997787098
101165.98637862407486
101173.56496627564775
101173.00442217236559
101162.32155133842025
101150.47472702401865
101149.90468577618594
101165.1792283498944
101189.42270263856335
101209.58837479898648
101217.89381999724719
101215.96434697999211
101213.15988141119306
101218.75093839020701
101235.06071559771954
101257.71751928677259
101278.13575103676703
101289.64257823248045
101290.67343035209342
101284.1056720988272
101274.41233212492079
101264.56258929717296
101256.82559488930565
101273.67396235986962
101292.18359215596865
101288.6339300062682
101260.57884556704084
101219.66104409920808
101183.92418682899734
101167.24837130159722
101169.35404182120692
101177.07944170784322
101175.88234109723999
101163.04583730861486
101148.37914269408793
101145.79822736690403
101161.0602946648869
101186.62378170287411
101207.92556347040227
101215.75175666969153
101212.68374324982869
101209.55939070227032
101216.86852824737434
101237.05145907949191
101263.00862212627544
101284.77102008409565
101295.51356574473903
101294.89526046783431
101287.41251795252902
101278.04068586842914
101269.01849690038944
101260.85784866112226
101253.90755038145289
101251.2962329928705
101281.12991687301837
101302.03677850666281
101299.73285066857352
101270.61448969626508
101227.08494303136831
101188.57911712651548
101170.04702765135153
101171.80902955523925
101180.05292735130934
101178.53456843001186
101163.63681110888137
101146.40129884767521
101142.05781261448283
101157.37231146551494
101184.38643223213148
101206.75129138838383
101214.12999544848572
101209.73722057470877
101206.17746637231903
101215.17120895988774
101238.47266901636613
101267.55977808054013
101290.39978819037788
101300.488435665
101298.37348243678571
101290.09579134346859
101281.02285497984849
101272.64933228569862
101264.01413182163378
101255.37149575351214
101250.16643484917586
101254.08709599039867
101286.8562365086691
101310.22257857827935
101308.42963463246997
101278.3568453805492
101232.45306168447132
101191.65263253159355
101171.71636187235708
101173.50178279608372
101182.32055683284125
101180.64455026305222
101164.07029882479401
101144.63181216298835
101138.8337678755197
101154.36390392787871
101182.60285154961457
101206.06832289877639
101213.02050409244839
101207.36658286319289
101203.43017204204807
101213.63645581819583
101239.5005641124153
101271.08612365154841
101295.22429048080812
101304.44248453692126
101301.01525798765942
101292.07866701837338
101283.16295201014145
101275.42162823608669
101266.39659047494933
101256.13907325918262
101248.99814172837068
101251.53960473168991
101501.23746278505132
101513.15436200657859
101516.21993853920139
101503.51129311788827
101472.60896226260229
101439.4162718024163
101255.83655470622762
101290.93278359957912
101315.64324487603153
101314.43584721496154
101283.69271126695094
101235.9177960013767
101193.36631956789643
101172.58474505355116
101174.51458660981734
101183.87310569745023
101182.15744154866843
101164.39566020174243
101143.25417827957426
101136.42872641669237
101152.17132642732759
101181.49351723636209
101205.67187579537858
101212.37234462225751
101205.71101448152331
101201.24412004486658
101212.35681430916884
101240.11261332526919
101273.57188356854022
101298.4543033058435
101307.25326816704182
101302.87197587602714
101293.28072710853303
101284.64403826479975
101277.31588114712213
101267.97406868613325
101256.47112872420985
101247.86673131214047
101249.75321026716847
101264.29850576096214
101479.56432415280142
101504.27129942578904
101516.16299198340857
101518.95902353215206
101504.90004877473984
101472.37832473033632
101438.59959227027139
101256.81276360842458
101293.10724321362795
101318.54363902106707
101317.56754860932415
101286.32501780122402
101237.42303641707986
101193.88571118911204
101172.79692373267608
101174.93880057570641
101184.72581376768358
101182.92835075680341
101164.5270053318236
101142.39484365486715
101135.0626285985054
101150.98038505708973
101180.99748413535417
101205.59926623204956
101212.08149761232198
101204.73638639376441
101200.06990174960811
101211.60547456778295
101240.45106012893666
101275.15185306430794
101300.2550039764028
101308.77172510900709
101303.77099817685666
101293.80628721417452
101285.39411455279333
101278.17447653360432
101268.71622847057006
101256.46285775005526
101247.02525646194408
101248.65259815735044
101263.7654874160944
101282.71732215763768
100689.77349949213385
100680.2039488125738
100670.8522211471136
100661.55423823195451
100652.19225609174464
100643.0178818438435
100634.62399720826943
100627.80778318920056
100623.30045773580787
100621.61718636011938
100622.42347144796804
101083.09564900227997
101082.27558857318945
101077.25582629717246
101071.8881784297555
101069.89792140001373
101072.55934472783701
101077.89194323269476
101083.53745746989443
101088.53384440179798
101092.97230850213964
101097.13294677693921
101099.54537512118986
101097.68191851186566
101090.03855207565357
101078.676717625538
101067.84108110520174
101060.1567537754745
101054.16176457148686
101044.49682431771362
101026.33565760107012
100999.54078923548514
100970.30914716474945
100948.34944897597597
100940.77771296117862
100949.57122213685943
100970.07321358588524
100993.25006582797505
101009.3888627406559
101011.66715532322996
100997.94557463009551
100971.21875326770532
100938.47562466598174
100908.32025966299989
100887.3345167007792
100878.9236457763036
100881.97754231763247
100743.64622462827538
100756.50273702239792
100764.50337170284183
100767.30069672857644
100765.28191309915564
100759.31706726973061
100750.61700505076442
100740.3217048766237
100729.19012697471771
100717.55880366398196
100705.52665190577682
100693.28491595591186
100681.15501153896912
100669.5581642275356
100658.86502186447615
100649.41938780948112
100641.75000265374547
100636.46739634404366
100633.99884449415549
100634.56855811196147
100637.57146243797615
101041.11796926129318
101041.97156220606121
101046.68785017564369
101056.57498683659651
101070.57061746805266
101085.27520275951247
101095.63069475063821
101098.44792895269347
101094.86227159691043
101088.43538313214958
101082.15246896103781
101076.16936708593857
101068.3344818490441
101056.57259022760263
101041.86707681269036
101028.29188168334076
101019.44003053144843
101015.57726970028307
101012.8986798600381
101006.2659423956502
100993.29323450097581
100976.86088237680087
100962.84890397531854
100957.04111912990629
100961.65817770369176
100974.44450452992169
100990.08310690333019
101001.2211495473166
101001.62970167199092
100988.64646703055769
100964.08323173956887
100933.96882008269313
100906.40282641751401
100888.6900020960602
100883.84387678037456
100890.73117971846659
100755.30815600203641
100767.64698291823152
100775.70370848577295
100779.31610806446406
100778.77271647921589
100774.66174374369439
100767.72852524070186
100758.79250813562248
100748.50150916245184
100737.21269822961767
100725.0450089830556
100712.11926695521106
100698.83619179741072
100685.91751301007753
100674.25473200647684
100664.57693642179947
100657.33022135299689
100652.8091550545505
100651.12849630134588
100652.26343691851071
100655.53519500406401
101004.77148986457905
101019.30790262397204
101043.36916685689357
101071.38309675522032
101094.94516749736795
101106.68895086510747
101104.18001780290797
101090.68413868188509
101072.89179342896387
101055.98624182784988
101041.94199316712911
101028.97975428428617
101014.46343311027158
100998.15413859236287
100983.25244398834184
100973.92486928026483
100972.21809087904694
100976.43120302319585
100981.87500471014937
100984.02633541893738
100981.24353877374961
100975.2178248322889
100969.44815381200169
100966.98883841492352
100969.46768772088399
100975.24696401177789
100980.28213119441352
100979.54449879575986
100969.36829953512643
100949.89442379612592
100925.54488552563998
100903.62515161257761
100890.90945791706326
100890.51286978575808
100773.36435974939377
100780.07649675667926
100783.30573031899985
100783.51000155851943
100781.24782360519748
100776.98026825224224
100771.03358431585366
100763.64110349344264
100754.90095651321462
100744.82814689092629
100733.49780768150231
100721.24709619676287
100708.78070844034664
100697.0937525001209
100687.1984429036529
100679.7515669077402
100674.92316652803856
100672.51412006732426
100672.3043981748342
100673.79946841837955
100974.08661733243207
100997.20090562656696
101031.19253192919132
101066.12294709368143
101091.54691678464587
101100.41785406586132
101091.84916714501742
101070.1173431725183
101043.44621219244436
101018.82730880165764
100999.41576280184381
100984.07913441673736
100969.69216798945854
100954.48719680971408
100940.49756973938202
100931.67079615265538
100931.11915202232194
100939.28676230032579
100952.90770346531644
100966.73083749857324
100975.4501894252171
100976.480414285601
100970.88286231756501
100962.5535933374631
100955.52409662496939
100952.00044263404561
100951.25306749243464
100949.58319943473907
100942.9630385068449
100930.19203124909836
100913.78674372538808
100899.38410811008362
100892.61348501089378
100896.67163364948647
100773.89400178272626
100777.56559191961423
100779.10545792593621
100779.01460496701475
100777.90804626802856
100776.15700095701322
100773.75083787785843
100770.4302908932732
100765.89872167549038
100759.93992583024374
100752.46142217089073
100743.53119903476909
100733.46420390368439
100722.8952907724597
100712.74054538510973
100703.96976153942524
100697.24985041562468
100692.68095910144621
100690.01542749821965
100688.74896383052692
100978.94197156750306
101013.23051811158075
101045.14845178186079
101065.64650002635608
101069.54653691171552
101056.73371149144077
101031.65594131464604
101002.02897603140445
100974.76975217022118
100953.69742269119888
100938.61887352305348
100927.17745406582253
100916.14293602746329
100905.35540855166619
100897.98124427013681
100897.47189588585752
100905.51911130514054
100921.03498284275702
100939.50633238321461
100954.67327896750066
100960.98996814514976
100957.9860019286134
100947.96638084419828
100936.07099395086698
100926.73830610538425
100921.36563375302649
100918.41624602743832
100914.43506612314377
100907.45973675011192
100898.79886942110898
100892.16473555717675
100891.47388143722492
100772.98814266997215
100771.64441154696397
100769.9162053183536
100768.37938519236923
100767.52999313670443
100767.50959155285091
100767.94787511481263
100768.07834176359756
100767.05542757290823
100764.23116110374394
100759.31484885005921
100752.37651352051762
100743.77494443296746