/*--------------------------------*- C++ -*----------------------------------*\
  =========                 |
  \\      /  F ield         | OpenFOAM: The Open Source CFD Toolbox
   \\    /   O peration     | Website:  https://openfoam.org
    \\  /    A nd           | Version:  12
     \\/     M anipulation  |
\*---------------------------------------------------------------------------*/
FoamFile
{
    format      ascii;
    class       volScalarField;
    location    "0.011";
    object      pMean;
}
// * * * * * * * * * * * * * * * * * * * * * * * * * * * * * * * * * * * * * //

dimensions      [1 -1 -2 0 0 0 0];

internalField   nonuniform List<scalar> 
106891
(
99398.846416523985681
99399.187631425869768
99399.556099132125382
99399.953082414605888
99400.379923318163492
99400.837779038396548
99401.327856482865172
99401.850899444136303
99402.407038795543485
99402.995020189773641
99403.607500234458712
99454.946432577038649
99454.73607645535958
99454.524358115944779
99454.311301812485908
99454.097725631232606
99453.884630251079216
99453.672935111651896
99453.46277336361527
99453.253179766645189
99453.042420099489391
99452.82890160473471
99452.612609258751036
99452.395105865769438
99452.178961051627994
99451.966419824500917
99451.757612583242008
99451.550615928528714
99451.342444746551337
99451.130329414634616
99450.91308308558655
99450.691201056455611
99450.465616715024225
99450.23676021049323
99450.004367846922833
99449.768259039032273
99449.52914244501153
99449.288798938825494
99449.049589563233894
99448.813589219920686
99448.581781257627881
99448.353967308750725
99448.129414963230374
99447.907401680073235
99447.687586162617663
99447.469752840348519
99447.253801326529356
99447.039648404213949
99446.827288933665841
99399.60030453123909
99399.785718984567211
99399.991432972514303
99400.217835842719069
99400.46535636279441
99400.734486928166007
99401.025793867942411
99401.339901344384998
99401.677459647602518
99402.03917328568059
99402.425816648406908
99402.838300953939324
99403.277577562825172
99403.744780258712126
99404.240987598066567
99404.767379735480063
99405.324790173748625
99405.913377133168979
99406.532147892256035
99407.174215762410313
99454.733628832254908
99454.519163503005984
99454.305846276198281
99454.094148044125177
99453.884211016251356
99453.675907596887555
99453.46853912169172
99453.260583234921796
99453.050023804986267
99452.8355999783671
99452.617992379236966
99452.399270649679238
99452.182245686883107
99451.968999123710091
99451.759727848591865
99451.552506223757518
99451.344386135519017
99451.132459257307346
99450.915469411091181
99450.693841801272356
99450.468618425453315
99450.240164306174847
99450.008104346139589
99449.771957516335533
99449.531959399610059
99449.289487302507041
99449.046994863936561
99448.806934980195365
99448.570748509664554
99448.338765449865605
99448.110739400421153
99447.886107699276181
99447.664321728429059
99447.444559482974
99447.226225434016669
99447.008914836653275
99402.400915052945493
99402.630181349275517
99402.879373980453238
99403.14904889347963
99403.439791769094882
99403.752217127519543
99404.086903752555372
99404.444364334645797
99404.825038344744826
99405.229344510284136
99405.657707157879486
99406.110666932188906
99406.588844571568188
99407.093067878944566
99407.624216356038232
99408.183360696100863
99408.771442252473207
99409.388749700825429
99410.034659098397242
99410.702753240475431
99454.74358705135819
99454.526148709162953
99454.31253526279761
99454.102920701552648
99453.8963052516483
99453.691177803921164
99453.485753283690428
99453.27821750252042
99453.067004727141466
99452.851671528143925
99452.63325049210107
99452.413921974395635
99452.196512159745907
99451.98315887337958
99451.773990345260245
99451.566832131851697
99451.358618149068207
99451.146690297988243
99450.929783935644082
99450.708144305812311
99450.482943238792359
99450.254778581191204
99450.02317009329272
99449.78743133507669
99449.547431273895199
99449.304093231578008
99449.05950589835993
99448.81616386922542
99448.575882919496507
99448.339755208246061
99448.108071718001156
99447.880406387077528
99447.655908549611922
99447.433524164080154
99447.212003770517185
99446.990387485464453
99405.494406280078692
99405.783601699440624
99406.093016220867867
99406.42335495185398
99406.775298721055151
99407.149442802634439
99407.546251071398729
99407.966011725759017
99408.408892935520271
99408.875010725794709
99409.364569278390263
99409.877897692480474
99410.415560625071521
99410.978234794543823
99411.566801727152779
99412.182155612754286
99412.824593840734451
99413.493849880396738
99414.184067971553304
99454.529208229811047
99454.316373774403473
99454.109396730855224
99453.905858034879202
99453.702752610988682
99453.497498535187333
99453.288428189480328
99453.074943207786418
99452.857974568833015
99452.639421694679186
99452.421809107399895
99452.207022212111042
99451.995912015583599
99451.78782878362108
99451.580637660998036
99451.371793849117239
99451.159105863844161
99450.941468502700445
99450.719225964101497
99450.49346127572062
99450.264867302394123
99450.033107077775639
99449.797759858120116
99449.558372123297886
99449.315313505765516
99449.070039482496213
99448.824698170006741
99448.581212646051426
99448.340990212454926
99448.104775819141651
99447.872644093920826
99447.643840355871362
99447.417300195957068
99447.191435728222132
99408.061776386064594
99408.368802046505152
99408.694880875700619
99409.040830428377376
99409.407396046546637
99409.795229675233713
99410.204879536860972
99410.636751985992305
99411.091108516193344
99411.568060685240198
99412.067563305507065
99412.589552794728661
99413.134052817200427
99413.701352610602044
99414.291962481831433
99414.906609489262337
99415.546085863970802
99416.210519052227028
99416.89972807293816
99417.608205331358477
99454.536279579886468
99454.323537558026146
99454.118348374046036
99453.91664545481035
99453.714249356577056
99453.508015202052775
99453.2965727084229
99453.080425207634107
99452.861639695125632
99452.642884385655634
99452.426724483084399
99452.214525626768591
99452.006013890786562
99451.799526900445926
99451.592747139860876
99451.383318091699039
99451.169624435555306
99450.950927693469566
99450.727726288809208
99450.500816012237919
99450.27068220662477
99450.037550316890702
99449.801306629509781
99449.561694330943283
99449.318742287607165
99449.07318017257785
99448.826359952188795
99448.580139302677708
99448.336108607865754
99448.095443031459581
99447.858582732049399
99447.624964396454743
99447.393364455652772
99411.246577435813379
99411.606864290166413
99411.986373706255108
99412.385970974064548
99412.80638377845753
99413.248112590590608
99413.711440621933434
99414.19644061816507
99414.703041143715382
99415.23110341829306
99415.780554158205632
99416.351402392800082
99416.943838759281789
99417.558220214792527
99418.195044217878603
99418.854936864474439
99419.537864408819587
99420.24368554695684
99420.967230945389019
99454.346917908129399
99454.140827343566343
99453.938081875283387
99453.733783136951388
99453.524329843872692
99453.308731122684549
99453.088632549130125
99452.86718367926369
99452.64791850844631
99452.433221641302225
99452.223594870083616
99452.017619909427594
99451.812881510457373
99451.606878990904079
99451.39737651978794
99451.183023969191709
99450.963257726558368
99450.738463387082447
99450.509562557286699
99450.277668267430272
99450.043440083682071
99449.806623340627993
99449.56648075193516
99449.322493953630328
99449.075151973767788
99448.825602703625918
99448.575756964637549
99448.327454131882405
99448.082059775901143
99447.839992445660755
99447.601058188869501
99447.364303359092446
99414.11320159387833
99414.505257131619146
99414.915974404080771
99415.346028528540046
99415.795995115084224
99416.266318582784152
99416.757256023207447
99417.268854555368307
99417.801025562148425
99418.353624857743853
99418.926531030781916
99419.519684456812683
99420.133196269744076
99420.767314505908871
99421.422350350374472
99422.098792151111411
99422.796420531289186
99423.515064646184328
99424.249856930386159
99454.175508537824498
99453.967931314356974
99453.75841102040431
99453.544104754444561
99453.324447041071835
99453.101114358534687
99452.877156835253118
99452.656247470746166
99452.440757490869146
99452.231327964866068
99452.026412320250529
99451.823034656263189
99451.618050467470312
99451.409189189987956
99451.195158939095563
99450.975464194707456
99450.750416179012973
99450.520616236171918
99450.286908491238137
99450.05013036330638
99449.81063064749469
99449.568154706561472
99449.322048822665238
99449.072304487621295
99448.81984260759782
99448.566365045393468
99448.314009804977104
99448.064327539192163
99447.817951648350572
99447.574651667920989
99417.380628157246974
99417.819636406420614
99418.27745031088125
99418.754465496022021
99419.250813933496829
99419.766428746675956
99420.301159646580345
99420.854855979341664
99421.427402043424081
99422.018817690128344
99422.629260946268914
99423.258973325486295
99423.908246955950744
99424.577271142028621
99425.266332680141204
99425.974930122494698
99426.702840943413321
99427.445563255110756
99454.000173384600203
99453.782516501640202
99453.560687673874781
99453.334906836389564
99453.106926966371248
99452.879452860128367
99452.655337087519001
99452.43663976470998
99452.224236221212777
99452.017134473411716
99451.812916607203078
99451.608573221776169
99451.401437294916832
99451.189734470943222
99450.972445625564433
99450.749050403974252
99450.519759323127801
99450.285239640652435
99450.046347407755093
99449.803379429737106
99449.556160623178585
99449.304639072404825
99449.049296496217721
99448.791770687195822
99448.534042877712636
99448.277952328178799
99448.024700849651708
99447.77465385463438
99420.214488418670953
99420.678815790597582
99421.160978334621177
99421.661347883331473
99422.180055666831322
99422.71697739623778
99423.271805964439409
99423.844202615568065
99424.433906570717227
99425.040830136436853
99425.665110345784342
99426.307119398537907
99426.967360116788768
99427.646121650206624
99428.343729553103913
99429.05953186066472
99429.793156810686924
99430.540179257732234
99453.821246774692554
99453.592757753765909
99453.361721998342546
99453.129494283566601
99452.897903768302058
99452.668952500127489
99452.444734482560307
99452.226449021574808
99452.014018985355506
99451.805601081912755
99451.598584475781536
99451.390141249925364
99451.178196231921902
99450.961374202102888
99450.738600677039358
99450.509403771531652
99450.273743677898892
99450.03194903639087
99449.784225375551614
99449.530851846429869
99449.272691517922794
99449.011457774206065
99448.749213350427453
99448.488055324065499
99448.229593479540199
99447.974487444065744
99447.722749224834843
99423.482351273894892
99423.986238074954599
99424.507057160008117
99425.044693267671391
99425.598836682009278
99426.169103884370998
99426.755150615426828
99427.356821076784399
99427.974229033206939
99428.607695615151897
99429.257657612703042
99429.924677642338793
99430.609178974307724
99431.311654555524001
99432.031577004963765
99432.768630623308127
99433.51869323484425
99454.08790307729214
99453.855795993178617
99453.622347676457139
99453.387175231298897
99453.150817488771281
99452.914437272396754
99452.679638713932945
99452.448206722299801
99452.221294552538893
99451.9992647045583
99451.781638145257602
99451.567042598879198
99451.353869894621312
99451.140127987076994
99450.92380058276467
99450.70284055704542
99450.475430425751256
99450.240154494546005
99449.996455554617569
99449.745018910936778
99449.487202764299582
99449.224532801992609
99448.958883067549323
99448.692485846375348
99448.427764393753023
99448.166234444273869
99447.908777635268052
99426.725105222212733
99427.261933143614442
99427.813888846998452
99428.380806995206513
99428.962425406338298
99429.55850863805972
99430.168938720671576
99430.793812002360937
99431.433487154572504
99432.088526939187432
99432.759621030068956
99433.447236971260281
99434.151869335590163
99434.873034849995747
99435.610457844901248
99436.360504770156695
99454.130677134220605
99453.897035998452338
99453.661489533478743
99453.423270855550072
99453.18291647505248
99452.942050455108983
99452.702431912839529
99452.465241233017878
99452.231010176677955
99451.999822927740752
99451.771561125904555
99451.546161287114955
99451.323380047353567
99451.102179993977188
99450.880598350253422
99450.655875209078658
99450.425421201507561
99450.187613264613901
99449.941830990326707
99449.688378379840287
99449.428412452965858
99449.163444818768767
99448.895541635123664
99448.627241572117782
99448.361068225058261
99448.098862645812915
99447.841714634239906
99447.589977755051223
99429.530982233482064
99430.090668439763249
99430.663829776036437
99431.250497350090882
99431.850722248229431
99432.464668450586032
99433.09264700532367
99433.735110092427931
99434.392596347039216
99435.065688412083546
99435.754757830465678
99436.460217821004335
99437.181608642844367
99437.918610239968984
99438.668089801620226
99453.928108876978513
99453.692672980905627
99453.453455617578584
99453.211084150942042
99452.96722399823193
99452.724067497998476
99452.482675158244092
99452.242972964202636
99452.00461197673576
99451.767623852079851
99451.532628963541356
99451.300402978769853
99451.070735721994424
99450.841985674924217
99450.611539911842556
99450.376925569245941
99450.136676404770697
99449.890048245608341
99449.636853913601954
99449.37766932696104
99449.113591882880428
99448.846175278536975
99448.577704516079393
99448.310662582851364
99448.047516824968625
99447.789937011795701
99447.538397264710511
99431.879910997726256
99432.455898829488433
99433.044590465331567
99433.64639387196803
99434.261740381713025
99434.891076341751614
99435.534879058846855
99436.193584373584599
99436.867609549706685
99437.557138680989738
99438.262390318821417
99438.98286117229145
99439.718217485569767
99440.465670390374726
99453.726460596473771
99453.485985617095139
99453.241859712798032
99452.996622583668795
99452.752166918216972
99452.508649132534629
99452.265065976738697
99452.02056021723547
99451.775417732380447
99451.530944950703997
99451.288461345495307
99451.048455275755259
99450.810134380299132
99450.571711369848344
99450.331300139019731
99450.087678730997141
99449.840151226162561
99449.588153907476226
99449.331212873468758
99449.06946186091227
99448.804054005304351
99448.536944340885384
99448.270516311371466
99448.007185923575889
99447.748950489694835
99447.496888541892986
99434.05823019942909
99434.647684656592901
99435.249830169574125
99435.865365600635414
99436.494901640777243
99437.138944960155641
99437.797843326727161
99438.4718488373328
99439.160972084020614
99439.865277503486141
99440.584195441246266
99441.317352504542214
99442.062292633432662
99453.497072725294856
99453.252659526784555
99453.007251840739627
99452.762214637245052
99452.517383552665706
99452.271184826095123
99452.022315325943055
99451.771014559300966
99451.519020205494598
99451.268263844816829
99451.019640790793346
99450.772669435318676
99450.526227654045215
99450.27929506493092
99450.031332905258751
99449.781897703956929
99449.530192756777979
99449.275220516807167
99449.016512052417966
99448.754142057354329
99448.489385216525989
99448.224542194395326
99447.962225167531869
99447.704580373552744
99447.452727073672577
99436.079930029372917
99436.682318713472341
99437.29789828468347
99437.927342143957503
99438.571165632805787
99439.229655236151302
99439.90294153020659
99440.590883877492161
99441.29337272515113
99442.009800663930946
99442.739828663339722
99443.481280218271422
99453.263411587089649
99453.018527236985392
99452.773755055881338
99452.528227383081685
99452.280166246084264
99452.02817575915833
99451.772416657127906
99451.514639483139035
99451.257003022110439
99451.000831104625831
99450.746314257325139
99450.492939343283069
99450.240164343747892
99449.987866901050438
99449.735925831337227
99449.483665495252353
99449.229884551430587
99448.973484441958135
99448.714145377482055
99448.45248941789032
99448.190144138774485
99447.929419367865194
99447.672412253406947
99447.420456716354238
99453.002846390285413
99452.758153433402185
99452.512652925302973
99452.264509148313664
99452.012080267435522
99451.755173380151973
99451.494994081032928
99451.233364884566981
99450.971961187024135
99450.711540627336944
99450.45217927460908
99450.193908088331227
99449.937111591862049
99449.68216630583629
99449.428849831369007
99449.176110039334162
99448.92237701684644
99448.666604281461332
99448.408736950295861
99448.149675587497768
99447.891231987683568
99447.635303277595085
99447.383286000535008
99452.496921853206004
99452.248287591311964
99451.995269116639975
99451.737395054209628
99451.475757365275058
99451.212248628929956
99450.948536796611734
99450.685402863004128
99450.423147801135201
99450.161911145405611
99449.902071272299509
99449.644299939100165
99449.388880296173738
99449.135199352967902
99448.881822605719208
99448.627679217286641
99448.372467751803924
99448.116547222773079
99447.861026112121181
99447.607333724328782
99447.356236924344557
99451.452468933537602
99451.188834757514996
99450.924323321596603
99450.659934851631988
99450.395941033726558
99450.132448342526914
99449.869843757594936
99449.609093484046753
99449.351045577102923
99449.09570318722399
99448.84225721276016
99448.589627456007292
99448.336891528320848
99448.08370972823468
99447.830717771823402
99447.579016910196515
99447.32914717363019
99450.373977051203838
99450.110280086941202
99449.846045788523043
99449.582434309370001
99449.321053771767765
99449.06292008854507
99448.807791689425358
99448.554627666424494
99448.302504895356833
99448.051107714141835
99447.800655127633945
99447.551588771413662
99447.304016177818994
99450.076644662723993
99449.812096055859001
99449.547457002918236
99449.284554525409476
99449.024800239974866
99448.76858457623166
99448.515174717293121
99448.263633154463605
99448.013549655472161
99447.76496596384095
99447.517995456524659
99447.272323896875605
99468.636137571535073
99468.43940592087165
99468.24284367726068
99468.043574476716458
99467.842877054979908
99467.644231666228734
99467.450463986271643
99467.262000564442133
99467.077036308968673
99466.893335599641432
99466.709457023360301
99466.525386677967617
99466.341576712220558
99466.157606550113996
99465.97223907719308
99465.78370640630601
99465.589886185174691
99465.389378110674443
99465.183003020254546
99464.973903164063813
99468.808875845759758
99468.604808067786507
99468.408092472323915
99468.212390845263144
99468.014216174808098
99467.814531189244008
99467.616950794501463
99467.424743617957574
99467.238322572928155
99467.05552920763148
99466.87359328653838
99466.691193100909004
99466.508609791577328
99466.326523082287167
99466.144611183044617
99465.961096220300533
99465.773438164804247
99465.579161173314787
99465.377305400368641
99465.169315716761048
99464.958840912338928
99464.750459341259557
99469.234429912830819
99469.001783628409612
99468.783027143581421
99468.577503216452897
99468.380215702272835
99468.184682144245016
99467.987045341986232
99467.788081763792434
99467.591607014241163
99467.400965431908844
99467.216575383994495
99467.035964279741165
99466.855975029233377
99466.675116590078687
99466.493832442560233
99466.313164331862936
99466.132818996513379
99465.950564104758087
99465.763264531662571
99465.568415144938626
99465.365394880558597
99465.156274005232262
99464.945277585386066
99464.736789875227259
99464.534102683392121
99464.339078396355035
99469.460106557206018
99469.214643285464263
99468.978839530333062
99468.757632093547727
99468.550955581857124
99468.353690647229087
99468.158735750825144
99467.961649973090971
99467.763314423224074
99467.567820431635482
99467.378731558099389
99467.196384545139153
99467.017821786765126
99466.839302405234776
99466.659284900713828
99466.478938741842285
99466.299753857310861
99466.121195007566712
99465.940378498999053
99465.753528668792569
99465.557974337367341
99465.353488222972373
99465.142946507228771
99464.931015925511019
99464.722193800364039
99464.519558401603717
99464.324681184240035
99464.137689534094534
99469.694106730385101
99469.444584309254424
99469.198067052391707
99468.96112586032541
99468.738768359806272
99468.53107508821995
99468.332979018858168
99468.13738940989424
99467.940030514204409
99467.741857421235181
99467.54731214432104
99467.359917842026334
99467.179682628135197
99467.003117914951872
99466.825981808258803
99466.646783289383166
99466.467032396947616
99466.288585323214647
99466.111150641809218
99465.931617472335347
99465.74565531880944
99465.550062379290466
99465.344789439972374
99465.133258196743554
99464.920659026072826
99464.711525563747273
99464.50869707178208
99464.313581298250938
99464.126315250410698
99463.946118091145763
99469.934797733963933
99469.68584321642993
99469.434924205153948
99469.186180553355371
99468.946841591226985
99468.722618709958624
99468.513894064744818
99468.31578959034232
99468.120972476172028
99467.924486996998894
99467.727079007279826
99467.533356090192683
99467.347156992225791
99467.168480935739353
99466.993405540502863
99466.817267579448526
99466.638401705000433
99466.458884270614362
99466.281301801631344
99466.105108560135704
99465.926643972721649
99465.740987459139433
99465.544744740720489
99465.338196751006762
99465.125419964359025
99464.912126861629076
99464.702925725039677
99464.50040174399328
99464.305592142482055
99464.11861927168502
99463.938884310948197
99463.76497644680785
99469.935824715939816
99469.686282199152629
99469.434289704382536
99469.184286510950187
99468.943830218864605
99468.718864853493869
99468.509903968879371
99468.311889260730823
99468.117156133172102
99467.920549252201454
99467.722954373137327
99467.529363114299485
99467.343801266091759
99467.166153626589221
99466.992219926469261
99466.816847430818598
99466.638279243532452
99466.458843120242818
99466.281464930900256
99466.105804736595019
99465.928035456759972
99465.742794670411968
99465.546427680295892
99465.339253341240692
99465.125792722232291
99464.912107909389306
99464.702743852642016
99464.50008729477122
99464.305063269406673
99464.117803519911831
99463.938024178394699
99463.764553917222656
99463.593687321030302
99484.114963914107648
99483.791516098135617
99483.464351390532102
99483.135096138663357
99482.808349856029963
99482.488185007823631
99469.936883909293101
99469.687041805664194
99469.434208299950114
99469.182976744821644
99468.941255539306439
99468.715302787240944
99468.505881941498956
99468.307873869271134
99468.113337190981838
99467.916812478812062
99467.719228084519273
99467.525775125424843
99467.340692416124512
99467.163842357971589
99466.990695757165668
99466.815741758400691
99466.637165684529464
99466.457692172916722
99466.280580538499635
99466.105487959590391
99465.928329500588006
99465.743366812879685
99465.546761085584876
99465.338913283922011
99465.124767741333926
99464.910666705807671
99464.701153703397722
99464.498440704468521
99464.303306658068323
99464.115918935087393
99463.936166154730017
99463.763111084437696
99463.592943286013906
99463.419180656463141
99484.432231873361161
99484.113132866928936
99483.789071627674275
99483.46132714363921
99483.131704354367685
99482.805097568882047
99482.485490298728109
99469.942645878545591
99469.692600250054966
99469.439309030451113
99469.187461836001603
99468.945220007837634
99468.718938163263374
99468.509515854530036
99468.311705664047622
99468.117313320835819
99467.920743109250907
99467.723067082639318
99467.529567920573754
99467.344638215465238
99467.168165226568817
99466.995402428365196
99466.820614744196064
99466.642042968422174
99466.462544250680367
99466.285482982726535
99466.110590501863044
99465.93368682381697
99465.748853605313343
99465.552078755717957
99465.343879357082187
99465.129447401879588
99464.915208772858023
99464.705661752042943
99464.502925164168118
99464.307735286391107
99464.12023260256683
99463.94044968659
99463.767622344748816
99463.597780636453535
99463.424267733833403
99463.24114583064511
99396.125759417802328
99396.458780146756908
99396.821525445659063
99397.215078662440646
99397.640566912246868
99398.098856281649205
99398.590785831431276
99399.116710417772993
99399.676374518952798
99400.268195025084424
99400.884310371402535
99453.6763353197166
99453.467757032762165
99453.25850082616671
99453.048057815729408
99452.83557046786882
99452.620498536693049
99452.402987291294266
99452.183906794161885
99451.964208837773185
99451.744441963630379
99451.524544804371544
99451.303810500947293
99451.081948346880381
99450.859207058048923
99450.635741772086476
99450.411208484947565
99450.18476602168812
99449.955486928476603
99449.723432655533543
99449.490588745175046
99449.259669676699559
99449.032827416303917
99448.810696992775775
99448.591868347866694
99448.373614344876842
99448.152903990092454
99447.927868414597469
99447.698237849748693
99447.465397245439817
99447.231780921953032
99446.999994651167071
99446.771763869983261
99446.547398825467099
99446.325764052075101
99446.105002709882683
99445.883215787864174
99396.898407177126501
99397.048129476243048
99397.214470159931807
99397.398939480641275
99397.603098087231047
99397.828420010555419
99398.076250256941421
99398.347822269264725
99398.644270841788966
99398.966636172757717
99399.315902815098525
99399.693022603678401
99400.099015204017633
99400.534808179989341
99401.001294822010095
99401.499088812226546
99402.028690841529169
99402.590216473836335
99403.18315956738661
99403.806009084757534
99404.451423164777225
99453.689476846266189
99453.486274927461636
99453.281120632818784
99453.072069136600476
99452.857705874499516
99452.637719313599519
99452.413575600920012
99452.187654421635671
99451.962466869546915
99451.739335373917129
99451.518052000072203
99451.297394773064298
99451.076472897795611
99450.855161931540351
99450.633647606082377
99450.411802232207265
99450.188890329038259
99449.963694910198683
99449.735663712592213
99449.505742760418798
99449.275716197516886
99449.047349096566904
99448.821726798487362
99448.598472814497654
99448.375834340549773
99448.151522125263
99447.924052224916522
99447.693015241806279
99447.459333131599124
99447.224866568634752
99446.99190471143811
99446.762121888095862
99446.535876405585441
99446.312178058520658
99446.089138733761501
99445.864610735676251
99399.642323875290458
99399.839614556112792
99400.053393007270643
99400.285012346634176
99400.535878660099115
99400.807324681765749
99401.100541556574171
99401.416611018212279
99401.756553134153364
99402.121350414119661
99402.511988186248345
99402.929405620816397
99403.374510949666728
99403.8481021833868
99404.350909993678215
99404.883410898575676
99405.445908990703174
99406.038382949293009
99406.660115824633976
99407.309685743995942
99407.980150796065573
99453.517477145942394
99453.314298679193598
99453.104446792844101
99452.886363805722794
99452.66070415636932
99452.430252192527405
99452.198696136925719
99451.96941047985456
99451.744157560300664
99451.522652330459096
99451.303201512026135
99451.084144258551532
99450.864856965097715
99450.645463106193347
99450.426146562051144
99450.206416373490356
99449.985079993653926
99449.760981492945575
99449.533892637424287
99449.304616569948848
99449.074410561443074
99448.844571723340778
99448.615992287930567
99448.388539504958317
99448.161137435672572
99447.932370566544705
99447.701378945042961
99447.468128504624474
99447.233835075705429
99447.000385126200854
99446.769335319244419
99446.541133922612062
99446.314881971280556
99446.088729923954816
99402.652403412459535
99402.911027013760759
99403.187315396906342
99403.48244411421183
99403.797534125595121
99404.133590756668127
99404.491484042082448
99404.872023089410504
99405.276045342005091
99405.704465977280051
99406.158192535513081
99406.638079267038847
99407.144826480478514
99407.679069695586804
99408.241263956180774
99408.831679771625204
99409.450332013802836
99410.096439904460567
99410.768716426755418
99411.460647313782829
99453.54071763905813
99453.33636059872515
99453.123370930188685
99452.900485975536867
99452.669584757037228
99452.434474572641193
99452.199738160285051
99451.969105560521712
99451.744185132731218
99451.524390135411522
99451.307426126455539
99451.090971743964474
99450.874047241086373
99450.656818744333577
99450.439547857269645
99450.221935195717379
99450.003002071578521
99449.781305765005527
99449.555760916977306
99449.326379861842724
99449.094119143395801
99448.860537452579592
99448.627645544082043
99448.396389313609689
99448.166565867184545
99447.93704357475508
99447.70663461467484
99447.474466697065509
99447.240802055457607
99447.00698228222609
99446.774443328307825
99446.543890751447179
99446.314724489056971
99446.085356921990751
99405.4770182769862
99405.777369956937036
99406.095321462009451
99406.43173178959114
99406.787429548872751
99407.163169305000338
99407.559652435811586
99407.977554105731542
99408.417552028447972
99408.880353338594432
99409.366678996157134
99409.877302050837898
99410.412924836055026
99410.974162759695901
99411.561469737556763
99412.175130971576436
99412.815298463363433
99413.481297816048027
99414.172159453606582
99414.881777130372939
99453.359076416047174
99453.140742216652143
99452.913163827979588
99452.678901619292446
99452.442015528518823
99452.20697563169233
99451.977290996437659
99451.754191522413748
99451.536800631292863
99451.322745038705762
99451.109160218737088
99450.89431300915021
99450.677791852605878
99450.460369651787914
99450.242404564589378
99450.023530142774689
99449.802779189005378
99449.578786891754135
99449.350579141901108
99449.118175032068393
99448.883018528824323
99448.647274716859101
99448.41276814682351
99448.180335473720334
99447.949427525352803
99447.718636407211307
99447.486714920116356
99447.253210509283235
99447.018879924275097
99446.784829948854167
99446.551807704934618
99446.319512511123321
99408.64555387031578
99409.001236180673004
99409.375208767160075
99409.767988505685935
99410.180052564901416
99410.611822529725032
99411.063679252561997
99411.536016448371811
99412.02933298505377
99412.544243147625821
99413.081458781802212
99413.641697894971003
99414.2256582545524