/*--------------------------------*- C++ -*----------------------------------*\
  =========                 |
  \\      /  F ield         | OpenFOAM: The Open Source CFD Toolbox
   \\    /   O peration     | Website:  https://openfoam.org
    \\  /    A nd           | Version:  12
     \\/     M anipulation  |
\*---------------------------------------------------------------------------*/
FoamFile
{
    format      ascii;
    class       volScalarField;
    location    "0.011";
    object      pPrime2Mean;
}
// * * * * * * * * * * * * * * * * * * * * * * * * * * * * * * * * * * * * * //

dimensions      [2 -2 -4 0 0 0 0];

internalField   nonuniform List<scalar> 
106891
(
775059.88098335266113
774360.29602432250977
773647.15946006774902
772922.68752479553223
772193.89616203308105
771467.11050796508789
770750.59068298339844
770045.21757316589355
769353.32032585144043
768672.25781059265137
767994.49607467651367
1173690.3430233001709
1172194.5919322967529
1170697.5183944702148
1169197.5250778198242
1167697.1717891693115
1166198.8879470825195
1164702.0180644989014
1163201.5622043609619
1161691.7414512634277
1160170.1131286621094
1158637.3640193939209
1157096.9647159576416
1155556.1435241699219
1154025.6095123291016
1152512.3754978179932
1151012.8222198486328
1149514.9453277587891
1148006.2199611663818
1146480.1180286407471
1144940.5958042144775
1143399.1913433074951
1141865.0010757446289
1140338.3342018127441
1138813.6379737854004
1137287.6373081207275
1135763.4591102600098
1134248.5730953216553
1132749.5290775299072
1131268.4932231903076
1129802.7781314849854
1128345.6029605865479
1126890.3774089813232
1125435.8950214385986
1123987.0383281707764
1122548.4991493225098
1121121.0112285614014
1119701.7390727996826
1118287.8562068939209
780672.02668380737305
779902.59474754333496
779146.38980674743652
778403.1035327911377
777673.30964851379395
776957.63479995727539
776255.20303916931152
775562.30525016784668
774872.10911178588867
774176.19165229797363
773467.01127815246582
772741.21750259399414
771999.86759567260742
771249.34188079833984
770496.01910400390625
769748.63270568847656
769009.51249313354492
768282.45674514770508
767566.76534271240234
766856.13314437866211
1172199.1509914398193
1170693.5500564575195
1169194.9908638000488
1167703.5099906921387
1166219.0602951049805
1164738.7844295501709
1163255.7971611022949
1161762.8839130401611
1160256.8670673370361
1158739.3411502838135
1157215.2078762054443
1155692.6531543731689
1154182.8509273529053
1152692.0716400146484
1151214.9201240539551
1149737.644157409668
1148247.4880847930908
1146739.1908779144287
1145218.3336791992188
1143696.0563983917236
1142180.2188148498535
1140670.1304817199707
1139160.1458568572998
1137647.0005321502686
1136132.6089534759521
1134622.3525123596191
1133121.7081508636475
1131633.4220027923584
1130156.2315101623535
1128684.4363765716553
1127211.2428493499756
1125733.6741371154785
1124255.7514152526855
1122784.3849754333496
1121324.428731918335
1119875.2835731506348
779987.14659309387207
779193.21570777893066
778408.89902496337891
777634.43006706237793
776872.10879707336426
776124.92850875854492
775394.16812705993652
774677.34194946289062
773967.69862747192383
773256.09424781799316
772533.88871574401855
771796.3265209197998
771042.95301246643066
770278.42049980163574
769507.75197982788086
768738.80454444885254
767974.37476539611816
767219.09885406494141
766473.98294830322266
765733.96261978149414
1172339.2025337219238
1170809.8761520385742
1169296.9834213256836
1167798.1562938690186
1166310.5094223022461
1164829.1552772521973
1163346.0861034393311
1161854.4071788787842
1160352.7466907501221
1158844.8224811553955
1157335.559061050415
1155831.8474636077881
1154343.094051361084
1152874.4875717163086
1151420.0002708435059
1149965.0909042358398
1148496.9519309997559
1147012.0307540893555
1145516.3546123504639
1144019.2426490783691
1142526.7320594787598
1141037.6446094512939
1139546.7235412597656
1138050.3368225097656
1136548.2968635559082
1135043.5175037384033
1133540.156042098999
1132041.0939922332764
1130546.4142150878906
1129053.8560638427734
1127558.6682777404785
1126056.793327331543
1124549.7903099060059
1123045.3276309967041
1121550.6817970275879
1120067.0294818878174
778496.5288028717041
777686.63027000427246
776885.93361473083496
776095.98673439025879
775319.43559646606445
774557.87489700317383
773809.98421859741211
773070.75870132446289
772332.67457580566406
771588.05870056152344
770832.13038063049316
770063.66890144348145
769285.94253540039062
768502.56055641174316
767719.95138931274414
766940.42378997802734
766168.40421485900879
765405.66651916503906
764647.538818359375
1171117.1432838439941
1169576.9217853546143
1168054.2367553710938
1166544.5519161224365
1165042.4543037414551
1163540.5798969268799
1162033.5006790161133
1160522.3512687683105
1159013.3501110076904
1157512.280855178833
1156024.9814167022705
1154556.5853404998779
1153108.3482246398926
1151673.5811405181885
1150239.1707954406738
1148794.2081813812256
1147336.0512428283691
1145869.2251453399658
1144400.1490154266357
1142932.5665664672852
1141465.4327507019043
1139993.7192287445068
1138513.374942779541
1137022.6972007751465
1135523.5406150817871
1134018.5287246704102
1132509.0872974395752
1130995.9771575927734
1129479.8234443664551
1127958.7090644836426
1126429.4337844848633
1124891.8022403717041
1123352.6698112487793
1121820.3722019195557
778736.75595474243164
777881.5223274230957
777040.16336631774902
776211.61361122131348
775395.79570770263672
774593.12053871154785
773803.50173377990723
773025.35129737854004
772254.93451309204102
771486.87236404418945
770715.47505569458008
769936.99605751037598
769150.1350154876709
768357.12571716308594
767560.43401527404785
766765.31332015991211
765973.67005729675293
765189.33729362487793
764414.23976135253906
763643.45343017578125
1171633.7197818756104
1170057.382661819458
1168501.0085201263428
1166957.2032203674316
1165420.1392269134521
1163884.3061904907227
1162347.7669982910156
1160814.9208679199219
1159294.8711681365967
1157795.5606727600098
1156320.9833564758301
1154870.8405380249023
1153441.315185546875
1152024.8202953338623
1150610.8600273132324
1149190.3470821380615
1147760.6023044586182
1146323.7565307617188
1144883.1897258758545
1143439.8193988800049
1141991.2888603210449
1140532.5351314544678
1139058.9634990692139
1137571.0705432891846
1136072.7850551605225
1134566.5533256530762
1133051.1312122344971
1131525.3488101959229
1129989.7981929779053
1128444.7659854888916
1126888.1117515563965
1125319.2961254119873
1123744.6055889129639
777445.8040657043457
776566.88870811462402
775704.18036651611328
774857.58893585205078
774026.24147987365723
773208.43512725830078
772401.70173072814941
771602.71151733398438
770807.48483657836914
770012.02296829223633
769213.63733673095703
768411.04539108276367
767605.3857479095459
766797.63446807861328
765991.42313766479492
765187.94527816772461
764390.38117408752441
763600.73371887207031
762813.74361038208008
1170744.8482418060303
1169148.1260147094727
1167562.8606052398682
1165982.8624076843262
1164404.3271770477295
1162827.676212310791
1161260.5329246520996
1159715.3758068084717
1158203.8090038299561
1156729.9952487945557
1155289.7631683349609
1153873.7550258636475
1152471.5318031311035
1151073.5778369903564
1149672.5966606140137
1148266.9132518768311
1146857.9275531768799
1145445.8561363220215
1144026.7304344177246
1142595.1797523498535
1141146.7238502502441
1139679.3840370178223
1138196.3537921905518
1136702.7673721313477
1135200.5023803710938
1133685.3800067901611
1132153.2398452758789
1130603.5510559082031
1129037.7864685058594
1127455.9551486968994
1125859.6557884216309
1124255.2132091522217
777238.3994026184082
776327.13103294372559
775432.48709869384766
774554.42823219299316
773691.87873077392578
772843.32578086853027
772007.12009429931641
771181.02089309692383
770361.89690208435059
769546.10545921325684
768730.92405891418457
767914.94997215270996
767098.72243118286133
766282.3121280670166
765467.63269996643066
764654.33796691894531
763843.82532119750977
763037.33456230163574
762228.84999465942383
1169832.4979953765869
1168196.1457138061523
1166565.1145324707031
1164938.8076038360596
1163319.5998401641846
1161714.7015171051025
1160135.7156753540039
1158595.4353141784668
1157100.6484565734863
1155649.1637954711914
1154230.7262859344482
1152833.0202045440674
1151446.0710391998291
1150063.435510635376
1148682.3876705169678
1147301.028190612793
1145914.4452209472656
1144514.2790756225586
1143094.5803070068359
1141654.721586227417
1140197.8565120697021
1138728.2861461639404
1137248.458137512207
1135756.5368461608887
1134246.6331520080566
1132713.3479862213135
1131156.7065448760986
1129579.6236553192139
1127984.5210876464844
1126374.1124725341797
776322.28975486755371
775400.45763778686523
774494.7191333770752
773604.84749794006348
772729.81389999389648
771867.94876861572266
771016.84598350524902
770173.4413948059082
769334.46376991271973
768497.73197555541992
767662.31004524230957
766828.97502326965332
765997.85668754577637
765170.22049331665039
764344.99730491638184
763521.91826248168945
762700.74762344360352
761873.77556610107422
1168857.7267246246338
1167164.1565971374512
1165482.3263664245605
1163817.2305088043213
1162174.0355167388916
1160558.9736366271973
1158980.799633026123
1157447.9236469268799
1155963.0129890441895
1154520.3821105957031
1153110.2112846374512
1151722.8297290802002
1150350.0441017150879
1148985.2269515991211
1147622.1672382354736
1146251.0929794311523
1144861.0771770477295
1143447.0056667327881
1142012.3858833312988
1140563.5008888244629
1139103.8707103729248
1137632.8227405548096
1136145.8468685150146
1134637.7418155670166
1133105.0420379638672
1131547.9678382873535
1129969.2988719940186
1128371.8118267059326
776572.97323036193848
775625.98247337341309
774694.70192909240723
773779.96186828613281
772880.99936103820801
771995.45128631591797
771119.68247413635254
770249.72809410095215
769382.29898643493652
768515.94095993041992
767650.88771820068359
766789.0257453918457
765931.52100944519043
765079.86886787414551
764233.00959205627441
763389.42558479309082
762547.95162200927734
761700.31980323791504
1167911.6509056091309
1166171.8040676116943
1164457.6369762420654
1162771.893684387207
1161116.2144527435303
1159496.3401012420654
1157921.1414051055908
1156395.3994388580322
1154917.4703998565674
1153481.5996990203857
1152080.6184329986572
1150706.1938438415527
1149350.7909736633301
1148004.9223136901855
1146653.6214752197266
1145280.9011383056641
1143878.7045307159424
1142450.5156669616699
1141003.9148273468018
1139542.5377426147461
1138065.4632129669189
1136570.2972602844238
1135055.4585914611816
1133521.4108505249023
1131968.9695434570312
1130397.4459419250488
1128806.2733783721924
776148.05680656433105
775192.10155868530273
774252.0170726776123
773326.97677421569824
772413.47786712646484
771506.60981941223145
770601.87676811218262
769696.54611015319824
768790.54288101196289
767885.42599487304688
766984.05574798583984
766088.52966690063477
765200.90341758728027
764320.83143615722656
763446.58926582336426
762576.7031307220459
761702.68415451049805
1170574.2190017700195
1168767.8075771331787
1166983.7955207824707
1165227.399019241333
1163503.364595413208
1161815.043155670166
1160167.5069980621338
1158566.5090274810791
1157013.3430843353271
1155505.370304107666
1154039.0142860412598
1152610.6206531524658
1151217.5243186950684
1149855.774019241333
1148516.2997283935547
1147181.9871807098389
1145832.388011932373
1144452.6373691558838
1143039.2262020111084
1141597.5103034973145
1140133.6860942840576
1138650.2061042785645
1137147.9489593505859
1135628.825325012207
1134095.6487350463867
1132548.2222633361816
1130983.2467861175537
775988.49812316894531
775023.59575080871582
774068.60604667663574
773119.74480247497559
772172.84322166442871
771224.92283821105957
770274.81219482421875
769323.15591430664062
768371.41415596008301
767422.01768493652344
766477.12876892089844
765539.51456642150879
764610.70195579528809
763690.33157348632812
762777.94161415100098
761865.45331764221191
1171155.0583267211914
1169343.2806835174561
1167552.9769439697266
1165784.086799621582
1164041.3939380645752
1162333.4246444702148
1160668.7241897583008
1159052.6725444793701
1157483.7095527648926
1155953.4625492095947
1154453.7814502716064
1152983.932559967041
1151549.5256214141846
1150154.4423923492432
1148793.4061126708984
1147449.1808681488037
1146099.2301197052002
1144725.5249252319336
1143320.0155868530273
1141883.2880153656006
1140419.7590293884277
1138933.2148780822754
1137427.2663631439209
1135905.5677433013916
1134370.2087783813477
1132819.7217693328857
1131250.7477016448975
1129661.2837142944336
775742.99575805664062
774756.22417640686035
773771.36021995544434
772785.58724212646484
771797.31798362731934
770806.3160457611084
769813.40611839294434
768819.62520408630371
767826.81415748596191
766836.97440910339355
765853.10587692260742
764877.6215763092041
763910.93477058410645
762953.20929336547852
761997.1982421875
1169959.2027721405029
1168176.192195892334
1166409.6347618103027
1164663.1768970489502
1162947.1746292114258
1161273.3909320831299
1159646.6619758605957
1158061.7445640563965
1156506.3499946594238
1154970.5046997070312
1153455.2129440307617
1151971.3280906677246
1150528.2350311279297
1149124.3242988586426
1147745.3460216522217
1146370.7159843444824
1144982.5012817382812
1143570.3379688262939
1142130.9727230072021
1140665.3696269989014
1139176.2623424530029
1137666.5858917236328
1136138.6857719421387
1134592.7832813262939
1133028.3342380523682
1131445.193416595459
1129844.2119178771973
775644.74571800231934
774625.54433822631836
773605.47691917419434
772583.5844841003418
771559.69572830200195
770534.32820892333984
769508.0606803894043
768482.1595458984375
767458.04716300964355
766438.32200622558594
765425.59450912475586
764420.552978515625
763423.81628608703613
762428.48128890991211
1168936.4809188842773
1167171.6690139770508
1165420.4917335510254
1163697.1107387542725
1162014.7761707305908
1160375.3147525787354
1158769.0514221191406
1157181.5116119384766
1155603.0644187927246
1154036.3220138549805
1152494.1934642791748
1150989.2927074432373
1149524.2981872558594
1148090.2789611816406
1146671.4046497344971
1145251.9486141204834
1143820.5733680725098
1142370.6795024871826
1140898.7437877655029
1139403.3728446960449
1137884.9531936645508
1136344.5257225036621
1134782.642692565918
1133199.9610252380371
1131598.4353427886963
1129981.7977542877197
775640.44955825805664
774585.93067741394043
773530.74957656860352
772474.46380615234375
771417.16286087036133
770359.20844078063965
769301.56588554382324
768245.15340614318848
767191.97841644287109
766144.28680610656738
765102.90001106262207
764069.09419822692871
763036.69293403625488
1168035.1982650756836
1166281.2066249847412
1164553.6135749816895
1162863.7824325561523
1161210.451566696167
1159581.1833076477051
1157961.2306079864502
1156342.1595916748047
1154727.3660163879395
1153129.9135074615479
1151563.5624027252197
1150033.9598865509033
1148537.4726715087891
1147064.0605068206787
1145601.8191833496094
1144140.2571105957031
1142670.7401504516602
1141185.9898471832275
1139680.9117603302002
1138151.6808280944824
1136597.7254428863525
1135021.0052680969238
1133423.9359302520752
1131808.9960899353027
1130179.6050701141357
775734.23336029052734
774649.26086616516113
773563.44549369812012
772476.61575889587402
771389.1489143371582
770301.76453590393066
769214.7284049987793
768129.16107368469238
767046.82608985900879
765969.01234817504883
764898.05303955078125
763828.64962577819824
1167266.5401916503906
1165531.5207862854004
1163830.8501129150391
1162160.5599231719971
1160506.6786079406738
1158855.3448543548584
1157199.8060874938965
1155543.6925830841064
1153898.9736328125
1152278.9014835357666
1150691.3119602203369
1149136.2836532592773
1147608.5922832489014
1146101.1740589141846
1144605.6414241790771
1143112.3928909301758
1141611.2033252716064
1140093.2810802459717
1138552.6892051696777
1136987.3079795837402
1135399.3025054931641
1133791.8941993713379
1132166.9398040771484
1130526.952507019043
1166579.3375701904297
1164861.4891452789307
1163172.2695198059082
1161497.5478553771973
1159822.189079284668
1158138.9344482421875
1156450.7222557067871
1154768.3229675292969
1153104.4525489807129
1151467.4266471862793
1149859.6279430389404
1148280.0499725341797
1146726.1158275604248
1145192.6661167144775
1143670.9018783569336
1142149.7131538391113
1140618.0387725830078
1139068.0261363983154
1137496.1349353790283
1135902.651554107666
1134289.2331295013428
1132656.7475051879883
1131007.6007537841797
1164288.8668575286865
1162589.7005214691162
1160889.174560546875
1159178.3258323669434
1157459.2326679229736
1155742.6230888366699
1154041.0116424560547
1152362.7763404846191
1150711.3739967346191
1149086.973726272583
1147488.558406829834
1145914.2253284454346
1144358.0738182067871
1142810.190128326416
1141259.6680393218994
1139697.9845714569092
1138119.7182483673096
1136521.7210426330566
1134902.2434272766113
1133261.7366142272949
1131603.4367389678955
1158534.1347007751465
1156782.7271270751953
1155045.1161441802979
1153330.4288730621338
1151640.6711864471436
1149974.3031406402588
1148331.1709766387939
1146713.146785736084
1145118.7304191589355
1143540.697193145752
1141969.3364696502686
1140395.1296482086182
1138808.9015789031982
1137202.7847576141357
1135572.6886672973633
1133920.0558815002441
1132250.6416797637939
1152605.3930950164795
1150903.5610370635986
1149219.1126747131348
1147556.5190906524658
1145919.9564437866211
1144307.4461441040039
1142710.523796081543
1141117.5177898406982
1139516.5599708557129
1137897.6891345977783
1136255.8523769378662
1134592.5166282653809
1132914.5447673797607
1151828.230920791626
1150110.7143440246582
1148413.0514240264893
1146742.470495223999
1145099.5027484893799
1143476.4133911132812
1141861.0220756530762
1140241.0383148193359
1138606.6983699798584
1136953.217077255249
1135282.1418075561523
1133599.439359664917
1310835.5264015197754
1309479.4379215240479
1308142.2678985595703
1306794.8907661437988
1305430.0545768737793
1304053.5370445251465
1302669.7097778320312
1301273.5068836212158
1299852.2584457397461
1298394.2617416381836
1296894.7996520996094
1295356.8497772216797
1293787.5137557983398
1292193.9384708404541
1290581.8404273986816
1288955.7695693969727
1287318.4561405181885
1285671.4598808288574
1284017.3383979797363
1282363.3231239318848
1313503.4038372039795
1312085.8886222839355
1310732.0166988372803
1309397.4903793334961
1308051.0062313079834
1306684.8703269958496
1305306.1508636474609
1303920.5008068084717
1302521.4350090026855
1301093.1033134460449
1299620.6483135223389
1298099.9013156890869
1296537.0796947479248
1294944.031909942627
1293331.1195182800293
1291703.7358989715576
1290063.4420146942139
1288409.9601287841797
1286744.6311511993408
1285072.055570602417
1283401.9085960388184
1281750.5921401977539
1317810.1803760528564
1316192.9461269378662
1314676.1968841552734
1313257.1849880218506
1311903.9383068084717
1310570.1442928314209
1309222.5346851348877
1307853.4704570770264
1306471.0395908355713
1305081.5191230773926
1303677.6780109405518
1302240.7382335662842
1300753.4204521179199
1299211.0549125671387
1297622.638650894165
1296004.8871898651123
1294371.9690742492676
1292728.9976615905762
1291074.4763202667236
1289405.7131214141846
1287723.7432537078857
1286035.4174671173096
1284353.5021648406982
1282695.2066688537598
1281079.3361911773682
1279520.5196762084961
1320596.049036026001
1318890.2878437042236
1317265.9884166717529
1315743.1351337432861
1314320.7293930053711
1312965.955738067627
1311630.3821830749512
1310279.2199954986572
1308904.5316467285156
1307515.9027538299561
1306121.0784454345703
1304711.7666034698486
1303266.1833515167236
1301764.5523891448975
1300202.0989665985107
1298591.1630535125732
1296952.5544757843018
1295303.2221622467041
1293648.0307445526123
1291982.4120426177979
1290301.1848430633545
1288604.6736755371094
1286901.9768848419189
1285208.2392902374268
1283542.4601593017578
1281923.4304943084717
1280364.3722400665283
1278869.1170406341553
1323321.3372287750244
1321551.4717655181885
1319839.8210906982422
1318208.4249591827393
1316679.7774963378906
1315253.8209609985352
1313897.4445838928223
1312560.3998146057129
1311205.9716758728027
1309825.875316619873
1308430.9222030639648
1307029.9814968109131
1305614.3811855316162
1304160.0315837860107
1302644.688892364502
1301063.2902679443359
1299430.6250381469727
1297771.7189464569092
1296106.6327056884766
1294440.1149406433105
1292765.2204761505127
1291073.3155078887939
1289364.7080535888672
1287650.6294841766357
1285949.0251903533936
1284279.4847412109375
1282659.4180221557617
1281100.4853820800781
1279605.8943004608154
1278171.1353664398193
1325948.939826965332
1324130.0160961151123
1322359.3710060119629
1320643.0525989532471
1319004.934986114502
1317470.0222091674805
1316039.8322601318359
1314680.4343967437744
1313339.8935451507568
1311980.3465690612793
1310593.4226627349854
1309191.5002326965332
1307784.8097629547119
1306364.2446956634521
1304903.5410652160645
1303377.9781532287598
1301781.8758125305176
1300132.1648483276367
1298457.6188812255859
1296780.6177959442139
1295105.941442489624
1293423.8414363861084
1291723.5360851287842
1290004.9922733306885
1288281.0570011138916
1286571.6227188110352
1284897.3726997375488
1283275.5582942962646
1281716.0383491516113
1280221.381685256958
1278787.9206047058105
1277407.2666454315186
1326584.2251071929932
1324768.0919895172119
1322995.3925609588623
1321274.1414279937744
1319630.3568725585938
1318090.9766731262207
1316658.0389347076416
1315296.7913780212402
1313954.2032470703125
1312591.071252822876
1311198.9494323730469
1309791.2193393707275
1308379.3097915649414
1306953.6944160461426
1305486.3565406799316
1303950.7842235565186
1302341.1927375793457
1300676.6381301879883
1298988.9950542449951
1297302.2677211761475
1295620.6609001159668
1293932.804048538208
1292226.1952247619629
1290500.243953704834
1288769.5075130462646
1287055.6601734161377
1285379.5037631988525
1283757.3620452880859
1282198.1563873291016
1280703.9797878265381
1279272.0218105316162
1277894.7181072235107
1276561.8970355987549
1420944.2274379730225
1418294.8202266693115
1415640.58713722229
1413017.4519996643066
1410461.3201885223389
1408001.4229831695557
1327024.7913780212402
1325210.7615146636963
1323436.8250503540039
1321712.2621574401855
1320064.1309623718262
1318520.660120010376
1317084.7362289428711
1315721.0357933044434
1314375.5526180267334
1313008.3136024475098
1311611.1178588867188
1310198.2943477630615
1308782.3219261169434
1307353.5699596405029
1305882.6103954315186
1304341.4315338134766
1302723.984582901001
1301050.4740905761719
1299354.657922744751
1297661.8241901397705
1295976.1010971069336
1294284.7753086090088
1292574.0543212890625
1290843.0254821777344
1289107.3661708831787
1287389.7868633270264
1285711.4258842468262
1284088.3522243499756
1282528.5871639251709
1281034.034610748291
1279602.5704975128174
1278227.5580158233643
1276898.6921634674072
1275604.5516910552979
1423955.9471187591553
1421335.579288482666
1418668.5195713043213
1415997.6805191040039
1413359.820276260376
1410792.1914100646973
1408323.8516578674316
1327256.0891189575195
1325442.5849876403809
1323667.6083698272705
1321940.8747272491455
1320290.4147644042969
1318745.1845722198486
1317308.2909202575684
1315943.8724060058594
1314597.3775024414062
1313228.2379627227783
1311828.4687080383301
1310412.9136772155762
1308994.5264282226562
1307563.5979957580566
1306090.0215187072754
1304544.9612922668457
1302922.3271751403809
1301243.2862777709961
1299542.9028396606445
1297846.9570121765137
1296158.9533843994141
1294465.7739067077637
1292752.892749786377
1291019.3401374816895
1289281.3932247161865
1287562.3144092559814
1285883.5120716094971
1284260.4354381561279
1282700.7471446990967
1281206.3851127624512
1279775.4131755828857
1278401.6773014068604
1277074.7148151397705
1275782.2915210723877
1274510.685525894165
766609.20589065551758
765847.84558296203613
765092.71479797363281
764347.57729148864746
763616.08429908752441
762897.3928394317627
762191.55124855041504
761492.78095626831055
760799.34071731567383
760108.07548332214355
759412.54687309265137
1166886.4135055541992
1165367.0615062713623
1163851.4885845184326
1162331.0248756408691
1160796.8806343078613
1159246.1308364868164
1157681.9817085266113
1156110.8057880401611
1154537.5976638793945
1152963.7096672058105
1151388.0855178833008
1149810.8813667297363
1148234.2450485229492
1146659.946361541748
1145088.6898670196533
1143519.6359310150146
1141949.3857269287109
1140374.5264759063721
1138797.7955741882324
1137232.2052783966064
1135694.5271167755127
1134195.0859432220459
1132731.5108833312988
1131290.8277549743652
1129858.3274841308594
1128424.1965408325195
1126985.2199039459229
1125540.5537872314453
1124090.2475891113281
1122636.6529808044434
1121185.0591011047363
1119740.419527053833
1118304.0000438690186
1116872.8449687957764
1115441.1657085418701
1114001.5072555541992
773815.81893348693848
772972.55328750610352
772131.78713989257812
771296.89879035949707
770471.62033271789551
769658.115234375
768855.98059844970703
768062.72356414794922
767275.20311546325684
766491.06678199768066
765709.71284866333008
764932.18977737426758
764161.11728668212891
763398.59500122070312
762646.73163032531738
761903.95806503295898
761170.32878875732422
760441.31303787231445
759716.76995658874512
758995.07814598083496
758270.9415340423584
1167146.2588481903076
1165636.8908023834229
1164129.5467090606689
1162606.4305191040039
1161055.8106651306152
1159479.659086227417
1157891.553050994873
1156305.8523693084717
1154730.0463123321533
1153162.5610618591309
1151598.3206729888916
1150036.2577495574951
1148480.5516510009766
1146935.4706935882568
1145402.0363578796387
1143877.0713291168213
1142352.8673305511475
1140821.1011238098145
1139280.5343761444092
1137741.2443466186523
1136219.4179134368896
1134727.0465145111084
1133264.0352878570557
1131818.5753688812256
1130376.5334758758545
1128929.6460380554199
1127476.5913677215576
1126017.3744354248047
1124551.6662349700928
1123080.4905090332031
1121607.9153575897217
1120138.5254096984863
1118673.9109745025635
1117211.5408096313477
1115745.3982791900635
1114267.6378917694092
773128.06007385253906
772267.4177188873291
771408.63940620422363
770554.91462516784668
769710.14922142028809
768876.96795845031738
768055.65183258056641
767244.41122627258301
766440.58147621154785
765641.73946380615234
764846.64486503601074
764055.23197937011719
763268.65919876098633
762487.63860130310059
761713.28830718994141
760944.3028621673584
760181.83977890014648
759423.34563255310059
758670.37832260131836
757922.41764831542969
757174.35161590576172
1166091.2757415771484
1164586.2326221466064
1163053.5711650848389
1161479.8502330780029
1159875.3662185668945
1158266.1116333007812
1156674.6920394897461
1155108.4272880554199
1153559.6318950653076
1152017.1361980438232
1150478.5390300750732
1148950.8853206634521
1147441.6659469604492
1145951.5834217071533
1144473.8739414215088
1142996.3582344055176
1141506.7101039886475
1140000.1868629455566
1138484.2320919036865
1136975.2491722106934
1135486.9570331573486
1134020.7517948150635
1132566.0737056732178
1131109.576847076416
1129644.3338871002197
1128170.2106628417969
1126689.1481704711914
1125201.4830017089844
1123708.1934623718262
1122211.7610702514648
1120714.5626201629639
1119216.7492771148682
1117715.5038795471191
1116205.8413600921631
771575.66141128540039
770698.48899841308594
769826.74033355712891
768964.70174598693848
768115.44524383544922
767279.62568855285645
766455.54611778259277
765640.2142162322998
764830.39357948303223
764023.55197906494141
763218.15856552124023
762414.06181716918945
761611.52742576599121
760812.14018249511719
760016.19620323181152
759226.83527565002441
758443.79400825500488
757669.93987846374512
756904.99855804443359
756142.83736419677734
1166607.994255065918
1165093.5682144165039
1163544.4950771331787
1161949.66233253479
1160327.7290534973145
1158712.7266731262207
1157130.9020214080811
1155587.1196250915527
1154068.1786766052246
1152558.4439735412598
1151053.6189079284668
1149561.7600841522217
1148092.3122291564941
1146646.0949687957764
1145213.229419708252
1143777.9267444610596
1142325.5975894927979
1140849.965461730957
1139357.5848045349121
1137864.7603530883789
1136385.42897605896
1134920.3017730712891
1133458.7092132568359
1131987.9526805877686
1130503.0501194000244
1129006.3593330383301
1127502.4301776885986
1125993.4670143127441
1124479.41042137146
1122959.1882476806641
1121431.5742664337158
1119895.6808643341064
1118350.4659805297852
1116794.3133945465088
770933.50391578674316
770035.90119361877441
769145.78600311279297
768268.23648071289062
767406.5732479095459
766561.07857131958008
765729.13483047485352
764906.3818244934082
764088.02511405944824
763270.03929710388184
762449.75840950012207
761626.46244812011719
760800.5736026763916
759974.58641815185547
759150.8912467956543
758335.15764617919922
757529.91300582885742
756739.43953323364258
755963.54652404785156
755194.30441093444824
1165588.3905868530273
1164011.7347450256348
1162398.0486545562744
1160769.8983020782471
1159160.922779083252
1157594.732738494873
1156073.8825531005859
1154583.756893157959
1153107.812198638916
1151640.6449375152588
1150188.4255485534668
1148759.2648372650146
1147352.1365451812744
1145956.121488571167
1144554.214527130127
1143130.9016590118408
1141680.9450931549072
1140212.6627655029297
1138742.4736747741699
1137281.2401180267334
1135825.8877906799316
1134363.4779834747314
1132882.2673435211182
1131380.5149917602539
1129864.3200225830078
1128341.1207866668701
1126814.2541007995605
1125281.1754283905029
1123737.134126663208
1122178.7496032714844
1120606.2407054901123
1119021.7849617004395
769490.26017570495605
768580.04622459411621
767686.07543182373047
766812.05078506469727
765957.5902099609375
765118.55815315246582
764288.61237716674805
763461.15392303466797
762630.99308013916016
761795.16684722900391
760953.38619804382324
760107.05633163452148