/*--------------------------------*- C++ -*----------------------------------*\
  =========                 |
  \\      /  F ield         | OpenFOAM: The Open Source CFD Toolbox
   \\    /   O peration     | Website:  https://openfoam.org
    \\  /    A nd           | Version:  12
     \\/     M anipulation  |
\*---------------------------------------------------------------------------*/
FoamFile
{
    format      ascii;
    class       volScalarField;
    location    "0.011";
    object      T;
}
// * * * * * * * * * * * * * * * * * * * * * * * * * * * * * * * * * * * * * //

dimensions      [0 0 0 1 0 0 0];

internalField   nonuniform List<scalar> 
106891
(
300.63053971859091007
300.6370516319213948
300.64155704292477367
300.64364268911674571
300.64409541671454917
300.64238548292928499
300.64003546534144107
300.63630650838285874
300.63317649006870624
300.62957529466808637
300.62678418441907979
301.75665471843734622
301.73438894802484356
301.73308150040622877
301.74949291621595648
301.77450171668931489
301.79689869957729798
301.80833094148857754
301.80582236118368655
301.79239485988966862
301.77405510586208948
301.75719129037190669
301.74670267707642779
301.74704428210810647
301.76265049848746003
301.79750238584028921
301.85258179405514056
301.92269358234233323
301.99615686184131391
302.05827355376652577
302.09721963998538286
302.10984120381186813
302.10331770086418146
302.09148425173970054
302.08771765591171743
302.09903881993386676
302.12338599140946371
302.15169596890950743
302.17230557098775989
302.17557615754577682
302.15694770198598462
302.11742999224549067
302.06377659810323166
302.00838794578180568
301.96563540481332666
301.94843455130904886
301.96457022370282175
302.01267085783058519
302.08321919847475101
300.610397527484281
300.60711119250993306
300.60588347795192021
300.60682227996130678
300.60986955972902024
300.61459761052930162
300.62042806826752894
300.62682353772765964
300.63341021460979618
300.63999104085365843
300.64620272703933779
300.65179379645547897
300.65584837181779676
300.65854223200977913
300.65881922264475179
300.65776616336495408
300.65433444065712365
300.65030413645808949
300.64503419879690682
300.6397063429104719
301.72086619258226392
301.71400282216922051
301.72640877524617053
301.75141201032857907
301.77887427260435516
301.79918426604996284
301.80659719150958153
301.80046692967533772
301.78422092777617536
301.76326310090689731
301.74365571265730068
301.73224236192527314
301.7363171543999556
301.76223805296115188
301.81270751968116883
301.88305575616629994
301.96033787397777814
302.0274995816658361
302.07032807074745051
302.08434908474265512
302.07686373047499728
302.06325611822194332
302.05909454961869187
302.07289409479693632
302.10341759485868351
302.14122022793424094
302.17339927606661831
302.18837557920147674
302.17935912199737913
302.14597962849694568
302.0942410428083349
302.03688818181802844
301.98951667904316309
301.96749844326552648
301.97994385051129029
302.02706562729179041
300.64412402518746603
300.6420573522402151
300.6406198476952909
300.63976140082263555
300.63964341034778727
300.64032097889253237
300.64185784151760572
300.64421867851609704
300.64741624399920283
300.65160424309215159
300.65662344023428432
300.66234635323166913
300.66761675870350246
300.67207599596940781
300.67409881150956608
300.67420781723961909
300.67118010342403522
300.66647436158240225
300.65967806027072129
300.6517316376529152
301.69596905854916713
301.69048659018238823
301.70511484437571426
301.73305378116094744
301.76364631226044821
301.78594345878144622
301.79312850714450178
301.78458835359464274
301.76520903489864622
301.74292023234568205
301.72643591009682495
301.72384713498234987
301.74140857972929552
301.78158364856432172
301.84197647730621838
301.91410153619722223
301.98431666667562467
302.03801254218001304
302.06485826407975992
302.06435597724600939
302.04691690609746502
302.02906792438994898
302.02631775574457151
302.04583520960807164
302.08428868790934985
302.1300490638965357
302.16790415378318357
302.18489167589200406
302.17426745018030942
302.13731274053520792
302.08358687740678761
302.02856084980470541
301.9897086173789944
301.98207636337480153
302.01233640118533685
302.07663356637573315
300.67142155675975346
300.66950715948240713
300.66703033650316002
300.66413866062634952
300.66117333717772908
300.65874288905848744
300.65737244903408509
300.65743780294189946
300.65928647779651328
300.66280421787342902
300.66793474266250996
300.67351887787691567
300.67898158974475109
300.68239481204483354
300.68367226459179165
300.6813995683722851
300.67677475960937272
300.66968019484454544
300.66045010624986844
301.64698871486052667
301.64574777219115731
301.668667551603221
301.7055340075399954
301.74139375170091171
301.76350804248107806
301.76547291417767838
301.74971148395633236
301.72519899665797993
301.70442890351785081
301.69954617836151556
301.71904620651241657
301.76498044505876805
301.83231803927083092
301.90985081330939011
301.98311531650244888
302.03765085780230493
302.06366188387670491
302.05970055281255782
302.03464758230961706
302.00423773897233559
301.98517429138212265
301.98976291142287209
302.01974787419283075
302.06683899392385229
302.11574295271481105
302.14989112835775131
302.15708408065376034
302.13401075817057517
302.08876135152894449
302.03815710785374904
302.00323179323146405
302.00105939291069035
302.0394484986990733
300.69503537741445598
300.69338230583548466
300.69067976453789015
300.68678668366885631
300.681821325412443
300.67616099508370553
300.67066885334816106
300.66626070288083383
300.66362600108305969
300.6632114246856986
300.66481842149175918
300.66841809499265992
300.67298996073697026
300.67812661217658388
300.68205587322302108
300.6843474079189491
300.68329058550875743
300.67950459782417738
300.67307747817358177
300.6639069421674435
301.59028718199880359
301.57265164808433155
301.59090018757467533
301.63760861738580843
301.6965719332516187
301.74833299449591095
301.77746458695031606
301.77754495538334822
301.75263727955478998
301.71602608342044505
301.68513345302022799
301.67601871095689603
301.69809857273202169
301.75101481860986041
301.82503592355021738
301.9042935530314935
301.97110816680770995
302.01133743248414021
302.01911382782861892
301.99911249691155035
301.96536267212678695
301.93652450616764327
301.92938747409795042
301.95272319271180095
302.00337441624918711
302.06837641253082438
302.12879674089867876
302.16707162028893663
302.17352908507211851
302.14921792960541325
302.10661861032650677
302.06614169699827244
302.04815742333590833
300.70650753550637546
300.70206341045104637
300.69634894818494786
300.68965906079364458
300.68228827156610805
300.67487754736225725
300.66821338469759439
300.6630898774144498
300.66020565505613149
300.65950740188759482
300.6610115398713674
300.66369351807577459
300.66725319094490487
300.67033310949369707
300.67275048158518302
300.67301500741069731
300.67124188431631637
300.66722972602264008
300.66006004987747247
301.54533626556678882
301.57702826137568763
301.63407358033765604
301.69955449727751784
301.75396753428452712
301.78159707022109615
301.77561322590935333
301.74090879721688907
301.69252801848040235
301.65120073457393346
301.63590637715304865
301.65746113561266384
301.71398541061574861
301.79225739945815121
301.87268637864133325
301.93562743801294346
301.96821357142431452
301.96815498293466362
301.94354610868475675
301.91073614691470084
301.88907377424646938
301.89407434112246165
301.93253820394244258
301.99905325579584314
302.07797997723076833
302.14915289558433642
302.19500607432007655
302.20668871794720189
302.18608309126557288
302.14482928301106313
302.10143429420946859
302.0747318009550213
300.71283326051144513
300.70569643175480223
300.6972832233325903
300.68822113217822789
300.67904842251465425
300.6703773564771609
300.66265846124571226
300.65626254261297845
300.65160276543616646
300.64860648714665103
300.64754490977213663
300.64775650695509057
300.64919742085976395
300.65085758799523319
300.65268737694003676
300.65364537782164689
300.65372501733537547
300.65285427034422128
300.64943417066808706
301.57668726325374564
301.63567795539813687
301.69680496340356513
301.74130767392949792
301.75698731990911483
301.74135146722204581
301.7028923726514904
301.65802965943976233
301.62615457342559466
301.62326991973930035
301.65604619837438349
301.71859921674462157
301.79534801074225925
301.86656945618778991
301.91506103229539804
301.93242230057620645
301.92067645524019781
301.89066308936497762
301.85883944560606551
301.84321118572592013
301.85795531429084804
301.90699403015730695
301.98245157034784825
302.06659792340263948
302.13851162314432486
302.18175154606001342
302.19003069764926295
302.16818974670655962
302.13046654056148554
302.09439771436558431
300.69632255860523173
300.68536904415373101
300.67414588795952568
300.66334172947705383
300.65364669618725202
300.64547680854639111
300.63902725267018923
300.63440824700802523
300.63120767311238524
300.62945697678219403
300.62851735609285697
300.62852986143008138
300.62893630117093835
300.62992886082906807
300.63101897216978386
300.63214854009072496
300.63367646945005163
300.63387412293263878
301.61091563341335586
301.67540283650174615
301.72342096673884271
301.7428700397813941
301.73201101461864937
301.69908832768129514
301.65824009962506125
301.62622576862918322
301.61710813013309007
301.63847872641446202
301.68760546815309453
301.75212958741610692
301.81522382063860732
301.86148964962603714
301.88110372542223558
301.87346542946943373
301.84691533964939936
301.8165177722972885
301.79963316766622938
301.81177747911340248
301.85835437010325677
301.93360889082885024
302.02140658683913443
302.1004019810209229
302.15295901953737712
302.17081391565324111
302.15749136729078828
302.12566355839572907
300.67789290628627441
300.66524235926027586
300.65255879804840333
300.64078695274639585
300.63076232631294715
300.6229238598102711
300.61739075286453726
300.61410977386242394
300.61245365833411824
300.61212256550447819
300.61214250426866101
300.61236367929484459
300.61230051046806011
300.61229551640826685
300.61252295424679915
300.61316124539786188
300.61522138331440601
300.61739968058327577
301.68636719400763013
301.73547588852574108
301.75654885578080666
301.74785630377959933
301.71606195422958763
301.67372462876380723
301.63520699287630578
301.61434814272774929
301.61993218390875882
301.65196994807206465
301.70175051218132012
301.75479308820240476
301.79641586361293548
301.81794262089908898
301.81827834359870621
301.80401071739856889
301.78715690435569741
301.78287715235057931
301.80280283025365407
301.85192199695484305
301.92553105597437479
302.01015733915158989
302.08889095798832614
302.14619535789518068
302.172989171923291
302.16960137675545184
302.14422444559829728
300.63883666473583389
300.62702624237624605
300.6162377372019705
300.60748762893751973
300.60136425195082666
300.59800678586907452
300.59720711233177326
300.59807379673532068
300.59997631568171528
300.60171208210329041
300.60285187710348964
300.60281164514549346
300.60191597567586541
300.60077582542311347
300.59981498494431662
300.6007054592661234
300.603056344877416
301.63693802228556251
301.69810349908760827
301.74064031447096568
301.7572163764580182
301.7484076354737681
301.72105545587311326
301.68685296771366211
301.65853131151300204
301.64637963016156164
301.65424070616523977
301.67976838740895573
301.71422709785861116
301.74625775657369786
301.76725819892385516
301.77355441669840275
301.76709487079517658
301.75489430181477246
301.74782034804138675
301.75642519904528172
301.78809938469316876
301.84462973853737822
301.9202425086281778
302.00253625535412993
302.07612192431236053
302.12781748193077647
302.15058111307064337
302.14551729182420559
300.60284352254018359
300.59656885792509229
300.59175789406202739
300.58894175975819962
300.58832748209107422
300.58977470953772126
300.592468565192803
300.5956654304706035
300.59810213962725811
300.5991891755652432
300.59835280197842167
300.59590109585178652
300.59285328025788431
300.58980036975532357
300.58886126007524808
300.5904175193832657
301.58316110269248611
301.6559324958852244
301.72037324461734897
301.76473892610613348
301.78183671648326936
301.77194181181772592
301.74448504629162926
301.71289316812072911
301.68940119381062459
301.6808422964361398
301.68678568115041116
301.70203970191789722
301.72038775456906023
301.73695960965551421
301.7483448043302019
301.75286546527576093
301.75164756643363262
301.74904341420642595
301.75234203076928452
301.76940067887107944
301.80693123359344554
301.86539930159153755
301.93846783651059695
302.01451694895229139
302.08017303793656083
302.12456568436340376
302.14234699528662986
302.1356540856763786
300.58311486028816262
300.5839622984971129
300.58532306817079416
300.58717276585542777
300.58939245682290675
300.59149896328983687
300.59313065599224046
300.59355923236125818
300.59258812868216637
300.58999837820465473
300.58616527415318842
300.58218825970976695
300.57844162977625047
300.57686117173750517
300.57809188861222083
301.66865144492817308
301.73504760618999399
301.78162584328174489
301.80059052845990664
301.79269967895737636
301.76734939274967928
301.73902808045784241
301.71898454325429384
301.71210148199099876
301.71608026560983262
301.72471108959285857
301.73267783550113563
301.737021232763027
301.73736492389377872
301.73493398014846889
301.73266854182202223
301.73527449371414377
301.74927351451486857
301.78102141742084541
301.83286991335779703
301.90216509384447363
301.9802000828939299
302.0554163174678024
302.11646886532201961
302.15495746940524668
302.16767491318086059
302.15801830604345923
300.58026193811701887
300.58447988005991647
300.58740292919969761
300.58895978193027076
300.58905965962048867
300.58785072510585223
300.58529386413931661
300.58171248192729763
300.57728437096074003
300.57242785802174012
300.56816132078046166
300.56452711174000569
300.56307867824335744
300.56441084981298673
301.76473680285556611
301.81008537189438812
301.82553135573772352
301.81531376245709453
301.79015499249226195
301.76547368651148417
301.75190665225926523
301.75139546826932246
301.75908336162706291
301.76755470952105043
301.77121437141511251
301.76776438400889901
301.75785502343836697
301.74388053898474027
301.72963681962932014
301.72121479518295928
301.7265718862906283
301.75300303276486602
301.80327896966531398
301.8733543244163684
301.95319671742930723
302.029933545144047
302.09177581191420359
302.13100549351833024
302.14661976192422799
302.1436887907776736
300.58369977458403355
300.58682019921269557
300.58697074279245953
300.58450445302725029
300.58014923262908269
300.57454203072376231
300.56847554617667129
300.56244826591995434
300.55691085721457512
300.55274007054146068
300.54965562232257525
300.54865108288652209
300.55010759196528625
301.79798833175510708
301.82200017534921699
301.82096586565086227
301.80648855830850152
301.79197030989359973
301.78698010933277374
301.79195284820048073
301.80082691086863633
301.80684762951688072
301.80560436919046197
301.79564914263573883
301.77798059501998296
301.7547954911115653
301.72980647113411123
301.70962631877284821
301.70299030544413199
301.71831739807748818
301.75990568563122451
301.82493921433871265
301.90432418028558459
301.98505433635182271
302.05429812545901314
302.1033444210472112
302.13005565783379325
302.13878067501786973
300.58311068404498201
300.58161623591456646
300.57678982233875331
300.56974039129011089
300.56161355047578354
300.55360377028392804
300.54650030783574266
300.54077209276709937
300.53702985397478642
300.53465173263339238
300.53405057644641829
300.53544806922411681
301.83171683023840615
301.84160560443103805
301.83725785902936423
301.82948444465534976
301.82521731501657314
301.8253016785513978
301.82583126928278716
301.82228685901742438
301.8124923553778558
301.7967768920391336
301.77633209627896349
301.75280964111698268
301.72844675940780235
301.70846654805586695
301.70072345426115135
301.71306711208478646
301.7502214334460291
301.81098322255490984
301.8878171306571403
301.96897457612800508
302.04248475580732247
302.09999229858533454
302.13855101981306461
302.16107463831326641
301.8402718814447212
301.8374957372419658
301.83186824564830886
301.82899865053769872
301.82979482960985251
301.8315462583635167
301.83023924925254278
301.82303903232860876
301.80905112599799622
301.78819917819458851
301.76076107911165991
301.7288287442719934
301.69763428122359983
301.67583966698589393
301.67329694172224208
301.69727280930987945
301.74891149599312712
301.82237380438249374
301.90637492595124058
301.98839171536957338
302.05881203569697391
302.11312318894414375
302.15255005514103459
301.84008575806035424
301.83868436728670304
301.84081618398511182
301.84395794595644702
301.84355210774543821
301.83539566548034827
301.81764097311656769
301.7907655632363344
301.7563954727850728
301.71753213489017753
301.67927215190263723
301.64912819655751264
301.63610548125916466
301.64811709852006061
301.68839232296068076
301.75382048744779695
301.83580541322237423
301.92301618768192384
302.0052971169308762
302.07623085477518998
302.13410354819836812
301.86625975171801883
301.84192374457506958
301.80673640843900785
301.76617998556662315
301.72675568798058521
301.69352605202550421
301.66924935903648475
301.65643712565241685
301.65846283973405662
301.67901031014457658
301.71983603841852073
301.77936752574373713
301.85220079508638946
301.93083600506452058
302.00839057204615301
302.08027281890070981
302.14461552787201981
301.70026170878895755
301.68726912328088474
301.68872579445184101
301.70116751313730674
301.72292840614341003
301.75440968216645388
301.79663623894816737
301.84920750554402957
301.90947943281895505
301.97335628858257905
302.03765727714403511
302.1008766987804961
302.16283000550964744
301.68799110135717001
301.69913559549485171
301.72037371156807239
301.74867558987705252
301.78337634238158671
301.82520634041793528
301.87407424395894395
301.92857062840806748
301.98662380205900035
302.04663127505887132
302.10821158765565997
302.17126951254903133
300.98698830427366602
301.00781955452538341
301.07886298068382303
301.18120338193500629
301.2888563509367259
301.38003888342967684
301.44416597747675723
301.48139402566590661
301.49765926441608599
301.50114870169670667
301.50047987198047394
301.50297870331900185
301.51250488014670736
301.52726068616772181
301.5393471656156521
301.53861390797300146
301.51554704476274082
301.46469749101328262
301.3885701653932756
301.29771679207925672
301.05044691702818227
300.99486632093339722
300.98197121294634826
301.02011691537944671
301.09936314730072127
301.19971837544210302
301.30028445388353475
301.38667995257122811
301.45141079156292108
301.49196949646676558
301.50877783969724533
301.50751665828300929
301.49798817432002807
301.4920477091053499
301.49791813343227886
301.51470711531896995
301.53341885023479563
301.53919048812457504
301.51786852233283298
301.46270200816275064
301.37769032973091043
301.27871107716094912
301.21796891295281284
301.16769083078099811
301.09779826581853968
301.03446795811220227
301.00303292768933261
301.01639549848511024
301.07091922905414094
301.15300503002600863
301.24654183270541807
301.33850927449384471
301.41909705339503489
301.47986195944235988
301.51417247451007597
301.52119236394787549
301.50942839654379668
301.49410809759694985
301.489936127772296
301.50321092604042406
301.52788704886717142
301.54859170052100126
301.54767546755459762
301.51276454117680714
301.44388992064432387
301.35330248974901224
301.26194682294652694
301.19288637728618596
301.32510045551913436
301.31064924354558343
301.26969868353978654
301.21888750214287711
301.18282219140058942
301.18158962979191529
301.22010345188056135
301.28643792142645452
301.36134433272258093
301.43015446055363782
301.48709496332753588
301.53329310301688793
301.56984559861905382
301.59481300668420545
301.60531800934148805
301.6035813856766481
301.59692454292900266
301.59418988353775148
301.59923687148835825
301.60726385043977871
301.60810442580287827
301.5916893779080965
301.55486851834183426
301.50432663003715561
301.45390690425421099
301.4189992704037877
301.41035107021707518
301.43230981064715479
301.56912319845565662
301.59298019321778384
301.61067487097932371
301.62048486338858311
301.62849496392334459
301.64341824662733416
301.67013946590554951
301.7036801570498028
301.73150814906512096
301.74313969693287163
301.73998401924666268
301.73389883949266732
301.73816715147324885
301.7564134522856989
301.77898995760534717
301.79024919034065988
301.78124326695927948
301.75667552952171491
301.73142379319153861
301.72157956009550617
301.73520134677505666
301.7689883570199072
301.81290061948163839
301.85614495194425899
301.89190189930383212
301.91828591052092179
301.93636343385333021
301.94799729784676856
301.95601546712720165
301.96404715058855572
301.91708968171440119
301.94446824858522405
301.96064146968546993
301.95723608765769086
301.9347014219082439
301.90548451277487629
301.88581357342258116
301.88641313060054472
301.90516818492346829
301.92862358339266393
301.94246740982941901
301.94417149146619295
301.94416089317530805
301.95595198543207971
301.98482869923816452
302.0225178508790691
302.05325557976152595
302.06707638694859952
302.06701852049576473
302.06568777702148054
302.07559706390384235
302.10053968426058191
302.1346226528366401
302.16781296323438255
302.19421516442912434
302.21353030029723641
302.2299648868274744
302.24678212723409843
302.26345058832600898
302.27702138092809037
302.28587661969902456
302.29210622669671693
301.98389690771801952
302.02247165894505088
302.05306796755115784
302.06278889871680349
302.04919396020170552
302.02288266370806014
302.00181591929839442
301.99959336603535576
302.01696497411234077
302.04098466020866454
302.05576095678623005
302.05648751190659596
302.05289458652862322
302.05928036242090684
302.08298066343297705
302.11760793640780776
302.14888178400997276
302.16696570316440784
302.17512803151254275
302.18550815429694012
302.20860486303530479
302.24556855319178794
302.28748720336272982
302.32257994429392056
302.34385611269908622
302.35300421623060174
302.35628067288007514
302.35886762641609948
302.36229810785607697
302.36484465466577376
302.36659947440909946
302.37113387156028921
302.38386871138743572
301.19733222465134759
301.22509400689352788
301.24404022323255958
301.24982687629295697
301.24096834065915118
301.23075753828777579
301.69983595589656034
301.74007837084855055
301.77196725953911027
301.7819602872524456
301.7664923927328573
301.73567928578279407
301.70839931074033302
301.69912358413625952
301.70917436792649369
301.72583363061170303
301.73308496494883002
301.72619604659348624
301.71569735017141056
301.71690855500804673
301.73733459914689092
301.76965278081701172
301.79779355123372397
301.81074473571732142
301.81158706371439848
301.81357946881314547
301.82843220451428579
301.85745016726792755
301.89149055480316974
301.91827816926013384
301.93110139300478068
301.93222487844741408
301.92843920649539768
301.92513176451484469
301.92273926363600367
301.91835760156300239
301.91166790285939214
301.90689667484372194
301.91063780651603565
301.92511397488590319
300.63647033141415932
300.66580492406376379
300.68374142049526654
300.69389556613953118
300.68998379963886691
300.67012781720814019
300.64854014560802398
300.76491826888599235
300.80009982860394757
300.82641532917108407
300.83024748786465352
300.80776893408676642
300.76929384176531812
300.73446768495358583
300.71836255196706134
300.72223082682677386
300.7331904033675869
300.73461165518403959
300.72161742017937058
300.70470159680132838
300.69976156764636244
300.71449348156170345
300.74163515922168699
300.76461467901799551
300.77213420322885895
300.76730276694547683
300.76409224085068672
300.7744301604411703
300.79981026102262831
300.83086504478785628
300.85425690260910869
300.86357753706090534
300.86102488134611121
300.85372816195643964
300.84741279294149763
300.84197859325638547
300.83454327943735507
300.82445702148811506
300.81629997514454544
300.81715184658304452
300.82947839585290239
300.84551380606086468
300.59149808891010025
300.58374941833704952
300.57634278196672994
300.56863720317994648
300.56122247298441152
300.55349444757314359
300.54685451379839378
300.54082981494605065
300.53767210456663861
300.53580690160333688
300.53640506803174048
301.72908474984365057
301.71646326491622858
301.72172924659224691
301.74175057299248692
301.76883033845365389
301.79269453158735814
301.80356829491228154
301.79722887640991758
301.77719154105722055
301.75316020059801758
301.73749290724532557
301.74013565474660936
301.76585087799833218
301.81375402019887133
301.87907091897238843
301.95359926711108756
302.02559939515174392
302.08145412276383013
302.10906889010755094
302.10348301694688189
302.07047974027733517
302.02633594288323593
301.99216853208548628
301.98495809318745842
302.01174029261818532
302.06633464445741311
302.13159753116059392
302.1855236178986388
302.20901010586032953
302.19218933888362244
302.13790054456825374
302.06107394729491489
301.98422710926837453
301.9300109633125544
301.91515025705234621
301.94524363908078612
300.62579049672615383
300.63883070887874283
300.64763161832877358
300.65187682747739473
300.65179914042482778
300.64817450689480438
300.64196388361580148
300.63420691392326489
300.62552286239241539
300.61623334680837161
300.60650857169326855
300.59639334559165036
300.58650903690403311
300.57670974602621072
300.56799686035645891
300.5598946374911975
300.55368306315682503
300.54888720182509587
300.54732899640811183
300.54741493483845716
300.54981339605268431
301.67585650882642767
301.66708196835492117
301.68518368221418768
301.72423150765416722
301.77136635677379672
301.81105460455802358
301.82990768128235004
301.82267767327135743
301.7951772047683221
301.7611333446405979
301.73631843629397054
301.73264243588920408
301.75505364074820136
301.80149688300377875
301.86535309602595589
301.93749101974498217
302.006588104421553
302.06043812663375547
302.08848801679079088
302.08601228081528234
302.05773810770352839
302.01821495058601386
301.98655839753257624
301.97956430745261969
302.00483514914640182
302.05767077462240877
302.12279647045028241
302.17859920795797279
302.20503729059288389
302.19099243875405136
302.13843290603881542
302.06243258775498362
301.98646600265465167
301.934999061420001
301.92497793485898683
301.96178029007069199
300.63697717957171562
300.6494710055180235
300.65822135189432629
300.66306922638437982
300.66416081091142587
300.66202505364532271
300.65721435076397938
300.65050647086661684
300.64242856739400622
300.63331865922714314
300.62337027234957532
300.61254120568548842
300.60154549996451578
300.59050550093780885
300.58086452854018944
300.57252084141680371
300.56658819576011865
300.56248088896188619
300.56153796360803199
300.56226020970126456
300.56489163688922872
301.61728308838735302
301.64191700917643857
301.69453125886741418
301.75943090685296966
301.81647722732566308
301.84860702886351191
301.84859899569380559
301.82133328286334972
301.78112977317374543
301.74482737773070085
301.72652269951731796
301.73332785051087512
301.76526180136806943
301.81723360084589558
301.88112016202825316
301.94649280007075731
302.0017279271223174
302.03632491956216199
302.0442567102115845
302.0275424393454955
301.99713119663084626
301.96974528493319667
301.96165523519925955
301.98228159449195118
302.03078613252677087
302.0948763140525557
302.15494090674218342
302.19062200134675322
302.18835469782089831
302.14718842768195373
302.07988196323896091
302.00914310161959975
301.9597494640891
301.95008631379499775
300.65434240850555625
300.66187103780265488
300.66630887093680258
300.6679643922045102
300.66734712917934758
300.66476223537353007
300.66057112579528621
300.65495233241432516
300.64802409946639727
300.63991108295510912
300.63050424259739657
300.62047340318946453
300.60992283616451459
300.60036331773483198
300.59197673538892559
300.58597108995871849
300.58176145981900618
300.58019122672226331
300.57994390586549116
300.58103671503170062
301.58582102250932166
301.62489090057079011
301.69198973576362732
301.76671108956657008
301.82672695231690341
301.85560768830430334
301.84834572146002074
301.81164866130831115
301.76179813884886016
301.71731699902642276
301.69309522022388137
301.69646606829684288
301.72672800098212065
301.77719722031423544
301.83855162453926368
301.90007840386664384
301.95127365441766187
301.98420355427867889
301.99520719300613791
301.98683176999384159
301.96754048834765172
301.9502125309285816
301.94814100420842351
301.97035510651505774
302.01711444392492467
302.07880641010893896
302.13841204002369523
302.17664349902076992
302.17960573901342514
302.14524795078978059
302.08487974904284101
302.02003897542152799
301.9748255274089388
301.96785561730979452
300.65567432653853075
300.66024179432736219
300.66286242688113362
300.66392289815308914
300.66400659688088126
300.66335131286137994
300.6620340548691388
300.65981041230872961
300.65646128797374104
300.65192578935671008
300.64592432669627442
300.6388777169676132
300.63054886549468847
300.62208885668951552
300.61364297761406306
300.60661793469182612
300.60095865620274935
300.59749547663807334
300.59526755828113664
300.59389643074212017
301.60869840382110851
301.68017167269306356
301.75795406911345253
301.81966088248123015
301.84904467209634049
301.84057783132055874
301.80047437371598562
301.74462029713123457
301.69223675472483137
301.66004660656608394
301.65770581187774724
301.68641350357495412
301.7389225392323624
301.8038985843236901
301.86933682166932158
301.92413147134817564
301.96029033289710242
301.97490644604954468
301.97018985801207691
301.95323022539196245
301.93455120295726601
301.92750424463048375
301.94180571260136503
301.98073357446531872
302.03797899196246135
302.09843077204828887
302.14348750477796557
302.15772292085773643
302.13617439079860105
302.08724400052938108
302.02989757623504374
301.98694278830191706
300.65610959044397532
300.6561455715465172
300.65570486630184632
300.65536417102606492
300.65548712090662775
300.65627561978277527
300.65736925166760329
300.65812574948228075
300.6579503160634772
300.65608195830981231
300.65263121609172003
300.64715489820611083