# Selection         : all
# Cells             : 1
# Volume            : 1.000000000000e+00
# Time              	volAverage(alpha.air1)
0                   	0.000000000000e+00
0.001               	9.256733138765e-158
0.002               	1.841674257948e-157
0.003               	1.393319392292e-21
0.004               	2.104289426234e-20
0.005               	1.315622263889e-19
0.006               	5.505324116815e-19
0.007               	1.811939814549e-18
0.008               	5.066199037701e-18
0.009               	1.257087955601e-17
0.01                	2.845280367860e-17
0.011               	5.984362305435e-17
0.012               	1.185153800131e-16
0.013               	2.231699642713e-16
0.014               	4.025668086065e-16
0.015               	6.997066323713e-16
0.016               	1.177325523703e-15
0.017               	1.924993117209e-15
0.018               	3.068151025025e-15
0.019               	4.779472952069e-15
0.02                	7.292975994409e-15
0.021               	1.092136339396e-14
0.022               	1.607713240349e-14
0.023               	2.329803679304e-14
0.024               	3.327755178443e-14
0.025               	4.690104970638e-14
0.026               	6.528845728744e-14
0.027               	8.984423010556e-14
0.028               	1.223155461482e-13
0.029               	1.648596885549e-13
0.03                	2.201216572635e-13
0.031               	2.913231203024e-13
0.032               	3.823638877090e-13
0.033               	4.979371643479e-13
0.034               	6.436599120874e-13
0.035               	8.262197267089e-13
0.036               	1.053539710413e-12
0.037               	1.334962896679e-12
0.038               	1.681457860378e-12
0.039               	2.105847222270e-12
0.04                	2.623060833183e-12
0.041               	3.250415499117e-12
0.042               	4.007923184081e-12
0.043               	4.918629702528e-12
0.044               	6.008985987651e-12
0.045               	7.309254095387e-12
0.046               	8.853950176628e-12
0.047               	1.068232672176e-11
0.048               	1.283889645205e-11
0.049               	1.537400030154e-11
0.05                	1.834442200081e-11
0.051               	2.181405184024e-11
0.052               	2.585460225508e-11
0.053               	3.054637793752e-11
0.054               	3.597910324236e-11
0.055               	4.225280971230e-11
0.056               	4.947878660668e-11
0.057               	5.778059737322e-11
0.058               	6.729516505650e-11
0.059               	7.817392968909e-11
0.06                	9.058408076179e-11
0.061               	1.047098679181e-10
0.062               	1.207539930652e-10
0.063               	1.389390871396e-10
0.064               	1.595092748098e-10
0.065               	1.827318304405e-10
0.066               	2.088989286882e-10
0.067               	2.383294931343e-10
0.068               	2.713711464092e-10
0.069               	3.084022652967e-10
0.07                	3.498341443532e-10
0.071               	3.961132716167e-10
0.072               	4.477237200259e-10
0.073               	5.051896582147e-10
0.074               	5.690779843959e-10
0.075               	6.400010871019e-10
0.076               	7.186197366047e-10
0.077               	8.056461108993e-10
0.078               	9.018469602045e-10
0.079               	1.008046914008e-09
0.08                	1.125131934769e-09
0.081               	1.254052922482e-09
0.082               	1.395829474411e-09
0.083               	1.551553804432e-09
0.084               	1.722394826523e-09
0.085               	1.909602407138e-09
0.086               	2.114511791305e-09
0.087               	2.338548207538e-09
0.088               	2.583231656804e-09
0.089               	2.850181891045e-09
0.09                	3.141123587008e-09
0.091               	3.457891721402e-09
0.092               	3.802437153720e-09
0.093               	4.176832423409e-09
0.094               	4.583277768416e-09
0.095               	5.024107372576e-09
0.096               	5.501795849709e-09
0.097               	6.018964972772e-09
0.098               	6.578390656934e-09
0.099               	7.183010205923e-09
0.1                 	7.835929831609e-09
0.101               	8.540432457340e-09
0.102               	9.299985816158e-09
0.103               	1.011825085566e-08
0.104               	1.099909046193e-08
0.105               	1.194657851546e-08
0.106               	1.296500929291e-08
0.107               	1.405890722872e-08
0.108               	1.523303705159e-08
0.109               	1.649241431100e-08
0.11                	1.784231630962e-08
0.111               	1.928829345756e-08
0.112               	2.083618106474e-08
0.113               	2.249211158769e-08
0.114               	2.426252734678e-08
0.115               	2.615419372965e-08
0.116               	2.817421289571e-08
0.117               	3.033003799590e-08
0.118               	3.262948792015e-08
0.119               	3.508076258351e-08
0.12                	3.769245875963e-08
0.121               	4.047358646741e-08
0.122               	4.343358591355e-08
0.123               	4.658234498997e-08
0.124               	4.993021732028e-08
0.125               	5.348804084498e-08
0.126               	5.726715692895e-08
0.127               	6.127942996882e-08
0.128               	6.553726747100e-08
0.129               	7.005364056369e-08
0.13                	7.484210489867e-08
0.131               	7.991682189074e-08
0.132               	8.529258023447e-08
0.133               	9.098481763023e-08
0.134               	9.700964264366e-08
0.135               	1.033838566160e-07
0.136               	1.101249755368e-07
0.137               	1.172512517854e-07
0.138               	1.247816956463e-07
0.139               	1.327360964993e-07
0.14                	1.411350435920e-07
0.141               	1.499999463024e-07
0.142               	1.593530538078e-07
0.143               	1.692174740910e-07
0.144               	1.796171922226e-07
0.145               	1.905770878834e-07
0.146               	2.021229521062e-07
0.147               	2.142815032436e-07
0.148               	2.270804021953e-07
0.149               	2.405482669538e-07
0.15                	2.547146865605e-07
0.151               	2.696102345886e-07
0.152               	2.852664822997e-07
0.153               	3.017160116445e-07
0.154               	3.189924282991e-07
0.155               	3.371303749423e-07
0.156               	3.561655449930e-07
0.157               	3.761346970270e-07
0.158               	3.970756700889e-07
0.159               	4.190274001072e-07
0.16                	4.420299375994e-07
0.161               	4.661244668336e-07
0.162               	4.913533265818e-07
0.163               	5.177600325722e-07
0.164               	5.453893017070e-07
0.165               	5.742870780810e-07
0.166               	6.045005607981e-07
0.167               	6.360782335469e-07
0.168               	6.690698958645e-07
0.169               	7.035266959836e-07
0.17                	7.395011651265e-07
0.171               	7.770472530793e-07
0.172               	8.162203648449e-07
0.173               	8.570773981332e-07
0.174               	8.996767814073e-07
0.175               	9.440785121423e-07
0.176               	9.903441948928e-07
0.177               	1.038537073336e-06
0.178               	1.088722077193e-06
0.179               	1.140965835283e-06
0.18                	1.195336702389e-06
0.181               	1.251904789147e-06
0.182               	1.310741992103e-06
0.183               	1.371922023920e-06
0.184               	1.435520443749e-06
0.185               	1.501614687740e-06
0.186               	1.570284099701e-06
0.187               	1.641609961886e-06
0.188               	1.715675525923e-06
0.189               	1.792566043857e-06
0.19                	1.872368799319e-06
0.191               	1.955173138802e-06
0.192               	2.041070503046e-06
0.193               	2.130154458524e-06
0.194               	2.222520729018e-06
0.195               	2.318267227286e-06
0.196               	2.417494086808e-06
0.197               	2.520303693610e-06
0.198               	2.626800718148e-06
0.199               	2.737092147266e-06
0.2                 	2.851287316196e-06
0.201               	2.969497940615e-06
0.202               	3.091838148742e-06
0.203               	3.218424513467e-06
0.204               	3.349376084510e-06
0.205               	3.484814420604e-06
0.206               	3.624863621687e-06
0.207               	3.769650361105e-06
0.208               	3.919303917814e-06
0.209               	4.073956208580e-06
0.21                	4.233741820159e-06
0.211               	4.398798041462e-06
0.212               	4.569264895687e-06
0.213               	4.745285172425e-06
0.214               	4.927004459718e-06
0.215               	5.114571176067e-06
0.216               	5.308136602392e-06
0.217               	5.507854913919e-06
0.218               	5.713883212006e-06
0.219               	5.926381555889e-06
0.22                	6.145512994338e-06
0.221               	6.371443597229e-06
0.222               	6.604342487015e-06
0.223               	6.844381870090e-06
0.224               	7.091737068037e-06
0.225               	7.346586548765e-06
0.226               	7.609111957506e-06
0.227               	7.879498147691e-06
0.228               	8.157933211670e-06
0.229               	8.444608511295e-06
0.23                	8.739718708343e-06
0.231               	9.043461794768e-06
0.232               	9.356039122801e-06
0.233               	9.677655434849e-06
0.234               	1.000851889323e-05
0.235               	1.034884110971e-05
0.236               	1.069883717484e-05
0.237               	1.105872568706e-05
0.238               	1.142872878167e-05
0.239               	1.180907215950e-05
0.24                	1.219998511536e-05
0.241               	1.260170056633e-05
0.242               	1.301445507973e-05
0.243               	1.343848890088e-05
0.244               	1.387404598058e-05
0.245               	1.432137400240e-05
0.246               	1.478072440961e-05
0.247               	1.525235243188e-05
0.248               	1.573651711172e-05
0.249               	1.623348133061e-05
0.25                	1.674351183483e-05
0.251               	1.726687926100e-05
0.252               	1.780385816131e-05
0.253               	1.835472702847e-05
0.254               	1.891976832027e-05
0.255               	1.949926848389e-05
0.256               	2.009351797985e-05
0.257               	2.070281130560e-05
0.258               	2.132744701879e-05
0.259               	2.196772776021e-05
0.26                	2.262396027634e-05
0.261               	2.329645544153e-05
0.262               	2.398552827989e-05
0.263               	2.469149798671e-05
0.264               	2.541468794956e-05
0.265               	2.615542576899e-05
0.266               	2.691404327885e-05
0.267               	2.769087656621e-05
0.268               	2.848626599088e-05
0.269               	2.930055620450e-05
0.27                	3.013409616929e-05
0.271               	3.098723917630e-05
0.272               	3.186034286330e-05
0.273               	3.275376923222e-05
0.274               	3.366788466613e-05
0.275               	3.460305994590e-05
0.276               	3.555967026623e-05
0.277               	3.653809525144e-05
0.278               	3.753871897064e-05
0.279               	3.856192995258e-05
0.28                	3.960812119995e-05
0.281               	4.067769020323e-05
0.282               	4.177103895415e-05
0.283               	4.288857395859e-05
0.284               	4.403070624903e-05
0.285               	4.519785139655e-05
0.286               	4.639042952231e-05
0.287               	4.760886530856e-05
0.288               	4.885358800920e-05
0.289               	5.012503145975e-05
0.29                	5.142363408691e-05
0.291               	5.274983891759e-05
0.292               	5.410409358742e-05
0.293               	5.548685034877e-05
0.294               	5.689856607828e-05
0.295               	5.833970228382e-05
0.296               	5.981072511100e-05
0.297               	6.131210534909e-05
0.298               	6.284431843647e-05
0.299               	6.440784446557e-05
0.3                 	6.600316818721e-05
0.301               	6.763077901448e-05
0.302               	6.929117102602e-05
0.303               	7.098484296888e-05
0.304               	7.271229826068e-05
0.305               	7.447404499140e-05
0.306               	7.627059592448e-05
0.307               	7.810246849750e-05
0.308               	7.997018482221e-05
0.309               	8.187427168412e-05
0.31                	8.381526054141e-05
0.311               	8.579368752345e-05
0.312               	8.781009342862e-05
0.313               	8.986502372167e-05
0.314               	9.195902853048e-05
0.315               	9.409266264228e-05
0.316               	9.626648549936e-05
0.317               	9.848106119411e-05
0.318               	1.007369584636e-04
0.319               	1.030347506836e-04
0.32                	1.053750158619e-04
0.321               	1.077583366314e-04
0.322               	1.101853002422e-04
0.323               	1.126564985534e-04
0.324               	1.151725280242e-04
0.325               	1.177339897050e-04
0.326               	1.203414892268e-04
0.327               	1.229956367910e-04
0.328               	1.256970471585e-04
0.329               	1.284463396377e-04
0.33                	1.312441380727e-04
0.331               	1.340910708302e-04
0.332               	1.369877707866e-04
0.333               	1.399348753136e-04
0.334               	1.429330262643e-04
0.335               	1.459828699578e-04
0.336               	1.490850571640e-04
0.337               	1.522402430871e-04
0.338               	1.554490873492e-04
0.339               	1.587122539732e-04
0.34                	1.620304113646e-04
0.341               	1.654042322936e-04
0.342               	1.688343938758e-04
0.343               	1.723215775534e-04
0.344               	1.758664690743e-04
0.345               	1.794697584725e-04
0.346               	1.831321400465e-04
0.347               	1.868543123376e-04
0.348               	1.906369781081e-04
0.349               	1.944808443182e-04
0.35                	1.983866221033e-04
0.351               	2.023550267494e-04
0.352               	2.063867776696e-04
0.353               	2.104825983787e-04
0.354               	2.146432164680e-04
0.355               	2.188693635795e-04
0.356               	2.231617753791e-04
0.357               	2.275211915300e-04
0.358               	2.319483556652e-04
0.359               	2.364440153590e-04
0.36                	2.410089220990e-04
0.361               	2.456438312571e-04
0.362               	2.503495020594e-04
0.363               	2.551266975567e-04
0.364               	2.599761845935e-04
0.365               	2.648987337774e-04
0.366               	2.698951194470e-04
0.367               	2.749661196403e-04
0.368               	2.801125160618e-04
0.369               	2.853350940497e-04
0.37                	2.906346425423e-04
0.371               	2.960119540439e-04
0.372               	3.014678245902e-04
0.373               	3.070030537138e-04
0.374               	3.126184444081e-04
0.375               	3.183148030920e-04
0.376               	3.240929395731e-04
0.377               	3.299536670110e-04
0.378               	3.358978018801e-04
0.379               	3.419261639315e-04
0.38                	3.480395761554e-04
0.381               	3.542388647417e-04
0.382               	3.605248590418e-04
0.383               	3.668983915281e-04
0.384               	3.733602977547e-04
0.385               	3.799114163169e-04
0.386               	3.865525888103e-04
0.387               	3.932846597893e-04
0.388               	4.001084767260e-04
0.389               	4.070248899676e-04
0.39                	4.140347526945e-04
0.391               	4.211389208767e-04
0.392               	4.283382532311e-04
0.393               	4.356336111776e-04
0.394               	4.430258587949e-04
0.395               	4.505158627765e-04
0.396               	4.581044923852e-04
0.397               	4.657926194085e-04
0.398               	4.735811181127e-04
0.399               	4.814708651972e-04
0.4                 	4.894627397477e-04
0.401               	4.975576231900e-04
0.402               	5.057563992430e-04
0.403               	5.140599538710e-04
0.404               	5.224691752361e-04
0.405               	5.309849536503e-04
0.406               	5.396081815270e-04
0.407               	5.483397533325e-04
0.408               	5.571805655365e-04
0.409               	5.661315165633e-04
0.41                	5.751935067417e-04
0.411               	5.843674382554e-04
0.412               	5.936542150925e-04
0.413               	6.030547429948e-04
0.414               	6.125699294075e-04
0.415               	6.222006834273e-04
0.416               	6.319479157518e-04
0.417               	6.418125386270e-04
0.418               	6.517954657959e-04
0.419               	6.618976124460e-04
0.42                	6.721198951569e-04
0.421               	6.824632318474e-04
0.422               	6.929285417229e-04
0.423               	7.035167452216e-04
0.424               	7.142287639614e-04
0.425               	7.250655206861e-04
0.426               	7.360279392116e-04
0.427               	7.471169443712e-04
0.428               	7.583334619619e-04
0.429               	7.696784186894e-04
0.43                	7.811527421136e-04
0.431               	7.927573605930e-04
0.432               	8.044932032304e-04
0.433               	8.163611998167e-04
0.434               	8.283622807757e-04
0.435               	8.404973771087e-04
0.436               	8.527674203376e-04
0.437               	8.651733424500e-04
0.438               	8.777160758421e-04
0.439               	8.903965532625e-04
0.44                	9.032157077560e-04
0.441               	9.161744726065e-04
0.442               	9.292737812802e-04
0.443               	9.425145673688e-04
0.444               	9.558977645324e-04
0.445               	9.694243064420e-04
0.446               	9.830951267227e-04
0.447               	9.969111588955e-04
0.448               	1.010873336320e-03
0.449               	1.024982592139e-03
0.45                	1.039239859214e-03
0.451               	1.053646070077e-03
0.452               	1.068202156864e-03
0.453               	1.082909051263e-03
0.454               	1.097767684453e-03
0.455               	1.112778987043e-03
0.456               	1.127943889022e-03
0.457               	1.143263319693e-03
0.458               	1.158738207619e-03
0.459               	1.174369480560e-03
0.46                	1.190158065421e-03
0.461               	1.206104888190e-03
0.462               	1.222210873878e-03
0.463               	1.238476946464e-03
0.464               	1.254904028833e-03
0.465               	1.271493042721e-03
0.466               	1.288244908654e-03
0.467               	1.305160545889e-03
0.468               	1.322240872359e-03
0.469               	1.339486804609e-03
0.47                	1.356899257744e-03
0.471               	1.374479145364e-03
0.472               	1.392227379511e-03
0.473               	1.410144870605e-03
0.474               	1.428232527391e-03
0.475               	1.446491256879e-03
0.476               	1.464921964282e-03
0.477               	1.483525552963e-03
0.478               	1.502302924373e-03
0.479               	1.521254977995e-03
0.48                	1.540382611284e-03
0.481               	1.559686719613e-03
0.482               	1.579168196207e-03
0.483               	1.598827932095e-03
0.484               	1.618666816044e-03
0.485               	1.638685734507e-03
0.486               	1.658885571561e-03
0.487               	1.679267208853e-03
0.488               	1.699831525539e-03
0.489               	1.720579398231e-03
0.49                	1.741511700936e-03
0.491               	1.762629305000e-03
0.492               	1.783933079053e-03
0.493               	1.805423888949e-03
0.494               	1.827102597712e-03
0.495               	1.848970065477e-03
0.496               	1.871027149437e-03
0.497               	1.893274703781e-03
0.498               	1.915713579645e-03
0.499               	1.938344625051e-03
0.5                 	1.961168684851e-03
0.501               	1.984186600676e-03
0.502               	2.007399210875e-03
0.503               	2.030807350462e-03
0.504               	2.054411851064e-03
0.505               	2.078213540859e-03
0.506               	2.102213244528e-03
0.507               	2.126411783196e-03
0.508               	2.150809974381e-03
0.509               	2.175408631936e-03
0.51                	2.200208565999e-03
0.511               	2.225210582935e-03
0.512               	2.250415485287e-03
0.513               	2.275824071719e-03
0.514               	2.301437136964e-03
0.515               	2.327255471773e-03
0.516               	2.353279862858e-03
0.517               	2.379511092844e-03
0.518               	2.405949940213e-03
0.519               	2.432597179257e-03
0.52                	2.459453580020e-03
0.521               	2.486519908252e-03
0.522               	2.513796925353e-03
0.523               	2.541285388325e-03
0.524               	2.568986049724e-03
0.525               	2.596899657600e-03
0.526               	2.625026955459e-03
0.527               	2.653368682203e-03
0.528               	2.681925572085e-03
0.529               	2.710698354661e-03
0.53                	2.739687754735e-03
0.531               	2.768894492319e-03
0.532               	2.798319282574e-03
0.533               	2.827962835771e-03
0.534               	2.857825857237e-03
0.535               	2.887909047311e-03
0.536               	2.918213101292e-03
0.537               	2.948738709400e-03
0.538               	2.979486556719e-03
0.539               	3.010457323158e-03
0.54                	3.041651683404e-03
0.541               	3.073070306872e-03
0.542               	3.104713857664e-03
0.543               	3.136582994520e-03
0.544               	3.168678370777e-03
0.545               	3.201000634322e-03
0.546               	3.233550427548e-03
0.547               	3.266328387310e-03
0.548               	3.299335144881e-03
0.549               	3.332571325912e-03
0.55                	3.366037550385e-03
0.551               	3.399734432571e-03
0.552               	3.433662580991e-03
0.553               	3.467822598371e-03
0.554               	3.502215081601e-03
0.555               	3.536840621694e-03
0.556               	3.571699803748e-03
0.557               	3.606793206901e-03
0.558               	3.642121404291e-03
0.559               	3.677684963022e-03
0.56                	3.713484444119e-03
0.561               	3.749520402491e-03
0.562               	3.785793386891e-03
0.563               	3.822303939880e-03
0.564               	3.859052597789e-03
0.565               	3.896039890679e-03
0.566               	3.933266342305e-03
0.567               	3.970732470081e-03
0.568               	4.008438785040e-03
0.569               	4.046385791802e-03
0.57                	4.084573988537e-03
0.571               	4.123003866927e-03
0.572               	4.161675912136e-03
0.573               	4.200590602769e-03
0.574               	4.239748410847e-03
0.575               	4.279149801765e-03
0.576               	4.318795234261e-03
0.577               	4.358685160387e-03
0.578               	4.398820025471e-03
0.579               	4.439200268090e-03
0.58                	4.479826320033e-03
0.581               	4.520698606273e-03
0.582               	4.561817544937e-03
0.583               	4.603183547273e-03
0.584               	4.644797017621e-03
0.585               	4.686658353384e-03
0.586               	4.728767944995e-03
0.587               	4.771126175897e-03
0.588               	4.813733422502e-03
0.589               	4.856590054174e-03
0.59                	4.899696433197e-03
0.591               	4.943052914745e-03
0.592               	4.986659846861e-03
0.593               	5.030517570426e-03
0.594               	5.074626419135e-03
0.595               	5.118986719472e-03
0.596               	5.163598790682e-03
0.597               	5.208462944749e-03
0.598               	5.253579486374e-03
0.599               	5.298948712944e-03
0.6                 	5.344570914514e-03
0.601               	5.390446373784e-03
0.602               	5.436575366074e-03
0.603               	5.482958159303e-03
0.604               	5.529595013967e-03
0.605               	5.576486183117e-03
0.606               	5.623631912342e-03
0.607               	5.671032439741e-03
0.608               	5.718687995911e-03
0.609               	5.766598803921e-03
0.61                	5.814765079299e-03
0.611               	5.863187030005e-03
0.612               	5.911864856421e-03
0.613               	5.960798751330e-03
0.614               	6.009988899894e-03
0.615               	6.059435479644e-03
0.616               	6.109138660460e-03
0.617               	6.159098604555e-03
0.618               	6.209315466459e-03
0.619               	6.259789393002e-03
0.62                	6.310520523305e-03
0.621               	6.361508988759e-03
0.622               	6.412754913012e-03
0.623               	6.464258411961e-03
0.624               	6.516019593730e-03
0.625               	6.568038558666e-03
0.626               	6.620315399318e-03
0.627               	6.672850200434e-03
0.628               	6.725643038941e-03
0.629               	6.778693983941e-03
0.63                	6.832003096695e-03
0.631               	6.885570430616e-03
0.632               	6.939396031258e-03
0.633               	6.993479936308e-03
0.634               	7.047822175574e-03
0.635               	7.102422770980e-03
0.636               	7.157281736554e-03
0.637               	7.212399078426e-03
0.638               	7.267774794814e-03
0.639               	7.323408876022e-03
0.64                	7.379301304432e-03
0.641               	7.435452054498e-03
0.642               	7.491861092740e-03
0.643               	7.548528377741e-03
0.644               	7.605453860138e-03
0.645               	7.662637482623e-03
0.646               	7.720079179934e-03
0.647               	7.777778878855e-03
0.648               	7.835736498213e-03
0.649               	7.893951948871e-03
0.65                	7.952425133733e-03
0.651               	8.011155947734e-03
0.652               	8.070144277846e-03
0.653               	8.129390003072e-03
0.654               	8.188892994447e-03
0.655               	8.248653115039e-03
0.656               	8.308670219946e-03
0.657               	8.368944156302e-03
0.658               	8.429474763272e-03
0.659               	8.490261872057e-03
0.66                	8.551305305895e-03
0.661               	8.612604880064e-03
0.662               	8.674160401882e-03
0.663               	8.735971670715e-03
0.664               	8.798038477974e-03
0.665               	8.860360607125e-03
0.666               	8.922937833688e-03
0.667               	8.985769925247e-03
0.668               	9.048856641449e-03
0.669               	9.112197734014e-03
0.67                	9.175792946740e-03
0.671               	9.239642015507e-03
0.672               	9.303744668286e-03
0.673               	9.368100625144e-03
0.674               	9.432709598254e-03
0.675               	9.497571291899e-03
0.676               	9.562685402484e-03
0.677               	9.628051618542e-03
0.678               	9.693669620742e-03
0.679               	9.759539081901e-03
0.68                	9.825659666994e-03
0.681               	9.892031033160e-03
0.682               	9.958652829715e-03
0.683               	1.002552469816e-02
0.684               	1.009264627220e-02
0.685               	1.016001717775e-02
0.686               	1.022763703294e-02
0.687               	1.029550544814e-02
0.688               	1.036362202597e-02
0.689               	1.043198636128e-02
0.69                	1.050059804125e-02
0.691               	1.056945664528e-02
0.692               	1.063856174513e-02
0.693               	1.070791290483e-02
0.694               	1.077750968076e-02
0.695               	1.084735162164e-02
0.696               	1.091743826856e-02
0.697               	1.098776915496e-02
0.698               	1.105834380670e-02
0.699               	1.112916174202e-02
0.7                 	1.120022247161e-02
0.701               	1.127152549859e-02
0.702               	1.134307031853e-02
0.703               	1.141485641949e-02
0.704               	1.148688328203e-02
0.705               	1.155915037919e-02
0.706               	1.163165717659e-02
0.707               	1.170440313235e-02
0.708               	1.177738769721e-02
0.709               	1.185061031445e-02
0.71                	1.192407042000e-02
0.711               	1.199776744240e-02
0.712               	1.207170080285e-02
0.713               	1.214586991520e-02
0.714               	1.222027418603e-02
0.715               	1.229491301459e-02
0.716               	1.236978579291e-02
0.717               	1.244489190573e-02
0.718               	1.252023073063e-02
0.719               	1.259580163793e-02
0.72                	1.267160399082e-02
0.721               	1.274763714533e-02
0.722               	1.282390045035e-02
0.723               	1.290039324768e-02
0.724               	1.297711487204e-02
0.725               	1.305406465108e-02
0.726               	1.313124190544e-02
0.727               	1.320864594875e-02
0.728               	1.328627608766e-02
0.729               	1.336413162185e-02
0.73                	1.344221184410e-02
0.731               	1.352051604027e-02
0.732               	1.359904348935e-02
0.733               	1.367779346348e-02
0.734               	1.375676522796e-02
0.735               	1.383595804134e-02
0.736               	1.391537115534e-02
0.737               	1.399500381501e-02
0.738               	1.407485525862e-02
0.739               	1.415492471780e-02
0.74                	1.423521141751e-02
0.741               	1.431571457609e-02
0.742               	1.439643340527e-02
0.743               	1.447736711021e-02
0.744               	1.455851488955e-02
0.745               	1.463987593539e-02