/*--------------------------------*- C++ -*----------------------------------*\
  =========                 |
  \\      /  F ield         | OpenFOAM: The Open Source CFD Toolbox
   \\    /   O peration     | Website:  https://openfoam.org
    \\  /    A nd           | Version:  12
     \\/     M anipulation  |
\*---------------------------------------------------------------------------*/
FoamFile
{
    format      ascii;
    class       volScalarField;
    location    "0.0067";
    object      alphat;
}
// * * * * * * * * * * * * * * * * * * * * * * * * * * * * * * * * * * * * * //

dimensions      [1 -1 -1 0 0 0 0];

internalField   nonuniform List<scalar> 
75962
(
6.0513482609933690336e-07
6.5553891402530207545e-07
7.4285639655398148963e-07
9.0953964697985794728e-07
1.0403508428035198114e-06
1.1011092805811583313e-06
1.1470516004217976037e-06
1.2446916926198056195e-06
1.4056844237298580904e-06
1.5116124500297339413e-06
1.582035674093167352e-06
1.6720385322045534316e-06
1.7971779957838140436e-06
1.9203959897996622319e-06
2.0015271573526913508e-06
2.0398263845505743084e-06
2.0699364142432899185e-06
2.1319885792757950412e-06
2.2891563399279950559e-06
2.4820528456985657181e-06
2.613775493620676315e-06
2.6833843647535590887e-06
2.7142898734089153234e-06
2.7392757178787306967e-06
2.7908278892822185425e-06
2.9313859010827610481e-06
3.1260104130588520483e-06
3.2759989903988055533e-06
3.3796016484015955292e-06
3.4680896728922675797e-06
3.5693833083194263808e-06
3.6824332587559652982e-06
3.7798732678745303072e-06
3.8361262730770371302e-06
3.8599336016424680396e-06
3.8843827195811968665e-06
3.9242803263464456372e-06
3.9695658190133440145e-06
4.005394566837979642e-06
4.0288454238481666956e-06
4.0502075408206474725e-06
4.0883521730394214883e-06
4.1732216536374598475e-06
4.3453645736386569789e-06
4.5566997791410369931e-06
4.7638780331260906722e-06
4.9256439269469008853e-06
5.0247986308234465232e-06
5.0739675532534970256e-06
5.0969383098698039578e-06
5.1144268272850483079e-06
5.1402473673188070201e-06
5.183859795762468979e-06
5.2491706039583049684e-06
5.3326731582514587041e-06
5.4225414195091224621e-06
5.5016956208706566743e-06
5.5554034074284177965e-06
5.5812135723040091513e-06
5.5952081370863901587e-06
5.6249401235288883164e-06
5.7132950897241406159e-06
5.9390855407156666935e-06
6.1650931314279009543e-06
6.3188610891792816807e-06
6.3957229161702529164e-06
6.4186777734444540715e-06
6.419358259034991138e-06
6.4188371519140578623e-06
6.4244947582310484651e-06
6.4421732472360121393e-06
6.4966385081858095011e-06
6.6165825419712913889e-06
6.7444261189423769306e-06
6.8612636101582128207e-06
6.9499946342408777141e-06
6.9992216608020377659e-06
7.01433356118102195e-06
7.0176929240917657643e-06
7.0296128399583831452e-06
7.0816151281146297317e-06
7.2613369193554311491e-06
7.4637419154060751202e-06
7.5841364735143933744e-06
7.6434356508684746272e-06
7.6721230448231812846e-06
7.6908391073676544405e-06
7.7064490168016493003e-06
7.7190331431376417627e-06
7.730364162416578368e-06
7.7512150299836726964e-06
7.8061450254868006962e-06
7.9583215092408738197e-06
8.1374727441725810929e-06
8.2654184973736535098e-06
8.3256573823680616041e-06
8.3377893004896847483e-06
8.3373725273050986996e-06
8.3477920424677261644e-06
8.4159633939183464067e-06
8.6315504101195468165e-06
8.8471795248882195229e-06
9.0002995777983053519e-06
9.1045886992929791879e-06
9.1714856761302460429e-06
9.2071670309124981757e-06
9.2179043692916058574e-06
9.2137702525506924009e-06
9.2075979432219357598e-06
9.2106095218880891409e-06
9.2566741767053482164e-06
9.3719952750183561815e-06
9.4435053930223310302e-06
9.4626756513786075553e-06
9.4544890770419856682e-06
9.4304864821287300014e-06
9.3662436283998347798e-06
9.3090617162428307771e-06
9.2845569415908931344e-06
9.2781650610811073775e-06
9.2929539264245597567e-06
9.4001580855675024488e-06
9.6797399912560459442e-06
9.8998683792930857177e-06
1.0020218830477502244e-05
1.0070852786429356813e-05
1.0106297036023574579e-05
1.0181081115219260431e-05
1.0376415900638132552e-05
1.0638907046386676731e-05
1.0851984719061764557e-05
1.0979884340800854459e-05
1.1024117995740165545e-05
1.1020338476480373975e-05
1.0986307248758263248e-05
1.0894048366701403964e-05
1.0845622579200055451e-05
1.083888649751172917e-05
1.0890250291135886043e-05
1.1130060183526089247e-05
1.1397283232835833766e-05
1.1525435668434641417e-05
1.1559850322066848749e-05
1.1555270068263364972e-05
1.1547190557896366375e-05
1.1545156538277956098e-05
1.1550126780887508325e-05
1.1545426416912409209e-05
1.1522018199850945838e-05
1.1426802006340239039e-05
1.12465095920957146e-05
1.1127948862697265039e-05
1.1075305576504527951e-05
1.1061329522788963358e-05
1.1061365232672303358e-05
1.1093805776848302835e-05
1.1146166345141582721e-05
1.1174741606686444258e-05
1.1185285212411463633e-05
1.1184862431552447632e-05
1.1179466319425484738e-05
1.1171762239434551882e-05
1.1157969998941269971e-05
1.1124950870203703882e-05
1.1068971141529450282e-05
1.1019905370687724621e-05
1.0981826048922678157e-05
1.0955448982719325981e-05
1.0939961230015515572e-05
1.0931427495056775308e-05
1.0925923691280333536e-05
1.092317202966135819e-05
1.0931903841293549599e-05
1.0976633770196961808e-05
1.1044326284847887947e-05
1.1102187413995036875e-05
1.114678016818538142e-05
1.1176831744653404003e-05
1.1192999044433324003e-05
1.1199862764241455361e-05
1.120269938306410377e-05
1.1206336609746396003e-05
1.1215068549498600586e-05
1.1237250788539753708e-05
1.1269806072923426084e-05
1.1300090220630024077e-05
1.1326773469730451485e-05
1.1351116152938724879e-05
1.2088293986062883671e-05
1.2093421599216550976e-05
1.2100533730009139252e-05
1.2110795773035236536e-05
1.2124400512324075302e-05
1.2140924728527325449e-05
1.216022234484584012e-05
1.2181683394852340759e-05
1.2205167792436075961e-05
1.2230227957494345267e-05
1.2256638970119505558e-05
1.2283136044430260618e-05
1.2307859709376344992e-05
1.2328881318748848296e-05
1.2344597073522836392e-05
1.235394628724566357e-05
1.2357325871579665066e-05
1.2355730062023704345e-05
1.2350541897133641894e-05
1.2343603805429959858e-05
1.2336010001207546252e-05
1.2328129197135907812e-05
1.2319309297955306729e-05
1.2308685520100188309e-05
1.2297394979100984843e-05
1.2285774948572753871e-05
1.2273758056457615068e-05
1.2260838622361930523e-05
1.224513563859951952e-05
1.2227444185400248165e-05
1.2208858611779874255e-05
1.2190288465172621895e-05
1.2171880219697352711e-05
1.2154350325449355376e-05
1.2137536027110065764e-05
1.2121894820435621622e-05
1.2107014410620045745e-05
1.2093126990331706745e-05
1.2079598122871624115e-05
1.206652698099574106e-05
1.2053283249789704888e-05
1.2040045513797664644e-05
1.2026288138847166263e-05
1.2012217249139455662e-05
1.1997493862801674206e-05
1.1982605789511058161e-05
1.1967599851199725263e-05
1.1953139547944870706e-05
1.1939113737207852494e-05
1.1925742127177783793e-05
1.1912566431554000179e-05
1.1899688375195620186e-05
1.1886847086798237258e-05
1.1874393505142013356e-05
1.1862314406862574173e-05
1.1850782202533332308e-05
1.1839285201535907033e-05
1.1827549980168922385e-05
1.1815046411296575317e-05
1.1801737977262188067e-05
1.1787674665240762046e-05
1.1773317150376645226e-05
1.1758816573354759265e-05
1.1744359428060842745e-05
1.1729714871993695809e-05
1.1714928707871075458e-05
1.1699851878231227843e-05
1.1684906145486313254e-05
1.1670109254929969525e-05
1.1655874796443493026e-05
1.1641799501034362285e-05
1.1627869083909156737e-05
1.1613467079003574026e-05
1.1598641049505296172e-05
1.1583206321937110527e-05
1.1567606586256409546e-05
1.1552069468764215678e-05
1.1537110831167494041e-05
1.1522848228332630748e-05
1.1509352675928040464e-05
1.1496258976386068083e-05
1.1483151541459062097e-05
1.1469512543110766835e-05
1.1455237171937069458e-05
1.1440262784872898017e-05
1.1425076086060506912e-05
1.140970254393258223e-05
1.1394555802529478288e-05
1.137934319611694056e-05
1.1364208769812503136e-05
1.1348885903213130525e-05
1.1333400450962344126e-05
1.1317831984271102487e-05
1.1302206274560444081e-05
1.1286833583479974225e-05
1.1271728066300112207e-05
1.1257059405537586604e-05
1.1242692649087217147e-05
1.1228515973151921678e-05
1.1214238271267240322e-05
1.1199839174451083076e-05
1.1184974317922360821e-05
1.1169973306002711498e-05
1.1154466905505191845e-05
1.1139053791466277645e-05
1.1123462277806483523e-05
1.110830597562405172e-05
1.1093283377836338625e-05
1.1078796008767347099e-05
1.1064301216649636428e-05
1.1050198722343697926e-05
1.1035793818727602668e-05
1.1021686773971732347e-05
1.1007109290047143802e-05
1.0992742506057514003e-05
1.0977824001913053537e-05
1.0963259350536984008e-05
1.0948345492504679298e-05
1.0934342630624541449e-05
1.0920407905672084925e-05
1.0907682938613137848e-05
1.0895107364092269963e-05
1.0883375220992525423e-05
1.0871345742125424947e-05
1.085953922985691344e-05
1.0846785113549890989e-05
1.0833934901404748783e-05
1.0819955452830325575e-05
1.0806094132517696444e-05
1.079153232687649835e-05
1.0777495554802090554e-05
1.0763065845187482275e-05
1.0749425901824692227e-05
1.0735336402500001075e-05
1.0722138361189118675e-05
1.0708421934744267507e-05
1.0695572483437013896e-05
1.0682135878222377164e-05
1.0669435983868052548e-05
1.0655894361003784643e-05
1.0642938520563630296e-05
1.0629062402272308597e-05
1.0615772460844288258e-05
1.0601809845419459932e-05
1.0588580202519002189e-05
1.0574830483354949681e-05
1.0561895558043975224e-05
1.0548306423693791541e-05
1.0535292733706652863e-05
1.0521261685349269158e-05
1.0507580271393587515e-05
1.0492797976535115612e-05
1.0478684257010792156e-05
1.0463888050050707996e-05
1.0450217250075041208e-05
1.0436051890950573078e-05
1.0422982179914896202e-05
1.0409157103119252223e-05
1.0396114909675939977e-05
1.0382104708521829698e-05
1.036899903431715269e-05
1.0355227071450611389e-05
1.0342757752361083742e-05
1.0329965804987389092e-05
1.0318361709492376946e-05
1.0306097312818331959e-05
1.0294425909245390451e-05
1.028140299845053726e-05
1.0268531405701305503e-05
1.025414264344357125e-05
1.0240009198473339709e-05
1.0224836952089990606e-05
1.021047203737199316e-05
1.0195508921028689545e-05
1.0181604600843285481e-05
1.0167100401817134064e-05
1.0153492766097848061e-05
1.013908996413153115e-05
1.0125575691727930057e-05
1.011130843485514071e-05
1.0098148557024267275e-05
1.0084377084624791671e-05
1.0072010009853571695e-05
1.0059062778976988385e-05
1.0047530956341307691e-05
1.0035232872523840636e-05
1.0024104783621992778e-05
1.001197607900981475e-05
1.0000765607589465789e-05
9.9885957640464062362e-06
9.9772739707681584899e-06
9.965147349709741842e-06
9.9539333463141214774e-06
9.9418362328743823455e-06
9.9306316975125171311e-06
9.9183163510438281265e-06
9.9067375445913570905e-06
9.8939452151831027457e-06
9.881855585604757303e-06
9.8686499713026600689e-06
9.856242995678908737e-06
9.8429525439714001916e-06
9.8305198451038894758e-06
9.8173862327718031291e-06
9.8052037127200276283e-06
9.7924319456257504472e-06
9.7807840025657043036e-06
9.7685476226445784169e-06
9.7576107746527166912e-06
9.7459237699681335406e-06
9.7354574340542894865e-06
9.724076522986939029e-06
9.7136499966610416012e-06
9.7022585439770003211e-06
9.6917532500399322404e-06
9.6803290208720747481e-06
9.6699088784138956259e-06
9.6585830701782495546e-06
9.6482938939899005057e-06
9.6370012472296630177e-06
9.6264899158803476193e-06
9.6148442544894550845e-06
9.6036552863430024545e-06
9.5911490193573839536e-06
9.5791762444106664799e-06
9.5658977228795905278e-06
9.5535569033464258281e-06
9.540223406589345341e-06
9.5281832995697679099e-06
9.5156838453029057157e-06
9.5046231065096683886e-06
9.4932651758351158349e-06
9.4833924976648547e-06
9.4730856772800566353e-06
9.4640521122875715808e-06
9.4544494166223754162e-06
9.4460513134413761255e-06
9.4367879856686172574e-06
9.4286083260988823648e-06
9.4193474643581576991e-06
9.4108881269291226059e-06
9.4011685655161904382e-06
9.3920914360621680857e-06
9.3816422489200828022e-06
9.3718898022794845193e-06
9.3607651050590409111e-06
9.350596221091342811e-06
9.3392218558949678767e-06
9.3289977561061712094e-06
9.3177833098138447999e-06
9.3077686520626663091e-06
9.2969271135562519084e-06
9.2873205322579295215e-06
9.2769386756272074275e-06
6.0650331434014671536e-07
6.8379675836354655499e-07
8.2185320997183193407e-07
1.0089828434911449762e-06
1.1277100172669356967e-06
1.1763751868002645097e-06
1.2175072366717896459e-06
1.3080996651344080049e-06
1.4714337668316149266e-06
1.5804058561929911672e-06
1.6334914185623300395e-06
1.6968308507394907798e-06
1.8282139010209348956e-06
1.9819244610791939122e-06
2.0919397596699176726e-06
2.1472787662866588376e-06
2.1893250430587542771e-06
2.2729579234882831825e-06
2.4416695942876154193e-06
2.6044598722847486825e-06
2.7142767847283272721e-06
2.7695313977827971285e-06
2.7968379991427961394e-06
2.8326870806549421122e-06
2.9171567623654628048e-06
3.1329581506989020552e-06
3.356385325824437267e-06
3.5219731618038781635e-06
3.6355027774990785669e-06
3.7180725063690620275e-06
3.7807716183083378191e-06
3.8289287071890653141e-06
3.8825515697288895018e-06
3.9541173460597903625e-06
4.0307686687520905794e-06
4.0912688174114479188e-06
4.1299496863274172761e-06
4.1560730842372607994e-06
4.1792414644333456591e-06
4.2028910668389628596e-06
4.2333445243200818137e-06
4.2882798265589904663e-06
4.3955547080278541767e-06
4.5688972554977507504e-06
4.7877428938858410074e-06
5.0021164539632875887e-06
5.1645247174950620019e-06
5.2581008007120532086e-06
5.2976100294583462177e-06
5.3122917765416620799e-06
5.3308789375183047573e-06
5.3706413266393261419e-06
5.4350197461662572192e-06
5.5176206217718219937e-06
5.6077542720783234921e-06
5.6936547871532907356e-06
5.7637309404617934468e-06
5.8094140845543954221e-06
5.8305613792529133497e-06
5.8409118734581165329e-06
5.8638505493390426863e-06
5.9349410551694693563e-06
6.1592943302774227945e-06
6.4596112366668051422e-06
6.6728707997789710399e-06
6.7879856508488543791e-06
6.8297952266043000579e-06
6.8365234398178777587e-06
6.8355131673652440367e-06
6.836710170660904611e-06
6.8423005096307013199e-06
6.8597854313495596322e-06
6.9178507171981999161e-06
7.0480672948410737113e-06
7.1714166900352364055e-06
7.264023769001813887e-06
7.3163518136058525547e-06
7.3338694490743362717e-06
7.336144704106672268e-06
7.3426865556676428615e-06
7.374559084696515934e-06
7.5069166938202247361e-06
7.7399857024225606215e-06
7.9059075089766693323e-06
8.0062705742004631473e-06
8.0624884210328069862e-06
8.0940109184219748037e-06
8.1125354339694172827e-06
8.1230767893118086784e-06
8.1299337721049397384e-06
8.1429337301232777673e-06
8.1820883226585441558e-06
8.3168166745452298816e-06
8.5340448475009349655e-06
8.6974114156037942569e-06
8.7838350704995478733e-06
8.8085143031867160573e-06
8.8084741800113074302e-06
8.8115526596974782196e-06
8.8437978282097186772e-06
8.9835759065502015841e-06
9.2002347034301493937e-06
9.3641144659209815801e-06
9.4771518771644356743e-06
9.54794166703482168e-06
9.5837616007453746777e-06
9.5937168087699818838e-06
9.5908354961834306479e-06
9.5892711468190435637e-06
9.6028998477578852403e-06
9.6749498668924497409e-06
9.8044669407601373561e-06
9.8885767200945753674e-06
9.9207343746654622378e-06
9.9192170104939569159e-06
9.9055606451681461422e-06
9.8663705539407151144e-06
9.809400049902149504e-06
9.7789266385768581808e-06
9.7681906964370690522e-06
9.7724486031193181856e-06
9.8421404867386125991e-06
1.0099711443035672953e-05
1.0362905232585195421e-05
1.0504121911039278941e-05
1.0566672490528250332e-05
1.0630877471426124757e-05
1.077032518930660796e-05
1.0985345798437948215e-05
1.121937355150896175e-05
1.1415384670695760151e-05
1.1534730158519866677e-05
1.1574742542440305366e-05
1.1568788515689578037e-05
1.1530405058612134718e-05
1.1429609480178670898e-05
1.1376811962629799542e-05
1.1369707487530385259e-05
1.1420220031611731296e-05
1.1658951530269444388e-05
1.1916841732386495374e-05
1.2039031999618328954e-05
1.2086459678150411747e-05
1.2121438851909586444e-05
1.2171748774111759193e-05
1.2225272698399694874e-05
1.2256900577097983282e-05
1.2259020867538919055e-05
1.2240608899340482202e-05
1.215906920049180115e-05
1.1961138225182493025e-05
1.1818432632400671149e-05
1.1753808325110658544e-05
1.1735992864889378142e-05
1.1734628827219314531e-05
1.1764437701068722997e-05
1.1810357329358641521e-05
1.1833109963629578497e-05
1.1839100916113229044e-05
1.1835584252433199615e-05
1.182847557942653694e-05
1.1817190331226547315e-05
1.179237404484164606e-05
1.1736312589951089681e-05
1.1675618581787264639e-05
1.1626971662759780647e-05
1.1591044153173562172e-05
1.1567217393057373635e-05
1.1553399205756077463e-05
1.154553641742161076e-05
1.1540160184841097415e-05
1.1539280049474174702e-05
1.1555124033994743589e-05
1.1609818031769382975e-05
1.1666419416592427481e-05
1.1707134674771812503e-05
1.1730866866607392581e-05
1.1741572658254915493e-05
1.174682244120200074e-05
1.1753968200587554867e-05
1.1769100348551036114e-05
1.1792854450598728557e-05
1.182363020934946162e-05
1.1856262294382371962e-05
1.1886497342633028725e-05
1.1911921611658206409e-05
1.1932736904743909383e-05
1.1952823725326716406e-05
1.1976322608767006822e-05
1.2716397317795082118e-05
1.2722725013012151709e-05
1.2729514437361446336e-05
1.2738466480858351475e-05
1.2750754175933114642e-05
1.2766763959301455339e-05
1.278569667176583778e-05
1.2807167408079821316e-05
1.283047345196693444e-05
1.2855469845404805281e-05
1.2881596829171324144e-05
1.2908324035396658523e-05
1.2935100220928956696e-05
1.2959779975411784945e-05
1.2981055712248768886e-05
1.299742441065282914e-05
1.3007977121430433479e-05
1.3012695474965074865e-05
1.3012587100129059808e-05
1.3008609673280232481e-05
1.3002235482507861012e-05
1.2994546639837741147e-05
1.2986339034879998205e-05
1.2977311364199137835e-05
1.2966782217495058849e-05
1.2955147808542361604e-05
1.294284443060287613e-05
1.2929806678239613913e-05
1.2915463806755982459e-05
1.2897726985824740033e-05
1.2878027917223994192e-05
1.2858174012880476504e-05
1.283864695977333428e-05
1.2819579307406694027e-05
1.2801167721744609351e-05
1.2783481045238596731e-05
1.2766693451656077154e-05
1.2750833770139833557e-05
1.273591940109098984e-05
1.2721714938773229564e-05
1.2707971606558978901e-05
1.2694255899202819455e-05
1.2680224612520527236e-05
1.2665499012869708363e-05
1.264992929591746021e-05
1.2633600511349352277e-05
1.2616870550643092362e-05
1.260028875618191193e-05
1.2584291899384717593e-05
1.2569183181340904242e-05
1.2554933006815885367e-05
1.2541292827784302557e-05
1.2527900889621539321e-05
1.2514570809977827425e-05
1.2501254769189180355e-05
1.2488103662601814228e-05
1.2475156540228967309e-05
1.2462404300870125003e-05
1.2449502368097026031e-05
1.2436248471321631755e-05
1.2422397914142095402e-05
1.2408115378529654287e-05
1.2393411134586497204e-05
1.2378475546891110174e-05
1.236315308473396773e-05
1.2347476481230335011e-05
1.2331386847887314064e-05
1.2315166365964378475e-05
1.2299125025095828382e-05
1.2283614899405519941e-05
1.2268676932189857904e-05
1.2254051139557866081e-05
1.2239256056009363644e-05
1.2223936211721821293e-05
1.2207900464588632448e-05
1.2191433852340054344e-05
1.2174807974345063657e-05
1.2158636670511493736e-05
1.2143073437312077361e-05
1.2128380739353386707e-05
1.2114141580984808192e-05
1.2100156515634482432e-05
1.2085748666539373959e-05
1.2070763017374097718e-05
1.2054990017378612173e-05
1.2038749059234079051e-05
1.2022313199997613584e-05
1.2006052339125754884e-05
1.1990055669470596898e-05
1.1974369124540252317e-05
1.1958679181243453499e-05
1.1942944851611459318e-05
1.1926755148118699202e-05
1.191051469961844395e-05
1.1894015805212204215e-05
1.187797039965714967e-05
1.1862123113455588306e-05
1.1846940673124499097e-05
1.1831895656736645577e-05
1.1817167818830655627e-05
1.1802071060684739417e-05
1.1786925371809036308e-05
1.1771067632865353582e-05
1.1755199948731659372e-05
1.1738696280443287071e-05
1.1722539316500579421e-05
1.1706111309861792367e-05
1.169032744531002596e-05
1.16744918998690839e-05
1.1659326177361743098e-05
1.1644015552241381847e-05
1.162929790201008731e-05
1.1614214165332831583e-05
1.1599666417029311284e-05
1.1584538181183780861e-05
1.1569806751003512848e-05
1.1554275999652355482e-05
1.1539174185156191442e-05
1.1523443021276664425e-05
1.1508687740806983982e-05
1.149382801199820465e-05
1.1480317182375252406e-05
1.1466765854579388394e-05
1.1454195449698779594e-05
1.1441097366545272806e-05
1.1428415030613390155e-05
1.1414687150512940633e-05
1.1401150730366737309e-05
1.1386503245409136366e-05
1.1372283245327390562e-05
1.1357332634559938001e-05
1.1343128448104394842e-05
1.1328342630902461384e-05
1.1314450927211781338e-05
1.1299905188955510534e-05
1.1286408629599406164e-05
1.1272293935264271074e-05
1.1259266163565627533e-05
1.1245487964175815361e-05
1.1232525187234682781e-05
1.1218391415678343704e-05
1.1204806533948425909e-05
1.1189938107134688892e-05
1.1175698875009825416e-05
1.1160553348096901514e-05
1.1146369412595566781e-05
1.1131549993400249792e-05
1.1117879236678776159e-05
1.1103442545537139092e-05
1.1089845942827257377e-05
1.107507153154695482e-05
1.106079760062678471e-05
1.1045205404177706085e-05
1.1030425950900704971e-05
1.1014764457235386334e-05
1.1000478308534431676e-05
1.0985584660264105034e-05
1.0972066994928096403e-05
1.0957650572606217229e-05
1.0944198387151093255e-05
1.0929567097083219194e-05
1.0915954535645324019e-05
1.0901473947125970085e-05
1.0888469305502374346e-05
1.0874918736544577857e-05
1.0862740930426276336e-05
1.0849643474204164801e-05
1.0837299133985864733e-05
1.0823359158411341086e-05
1.0809782337405066422e-05
1.079449327638776439e-05
1.0779784256815128779e-05
1.0763872401234813331e-05
1.0749127103124740725e-05
1.0733627986185722677e-05
1.071946296632957305e-05
1.0704445201070851253e-05
1.0690475178515924302e-05
1.0675336352115893414e-05
1.0661178929566597913e-05
1.0645882812650817677e-05
1.0631853556308309288e-05
1.0616973921308330903e-05
1.0603742329992399399e-05
1.05898431335117988e-05
1.057770074623944046e-05
1.0564685679073523389e-05
1.0553126661503709171e-05
1.0540405243268801227e-05
1.0528834699369970943e-05
1.0516022126919068644e-05
1.0504258724520673844e-05
1.0491320009234617841e-05
1.0479477995825902976e-05
1.0466425211546004576e-05
1.0454514141811355042e-05
1.044128906970940146e-05
1.0429123022534435116e-05
1.0415562390286866351e-05
1.0402996928289282973e-05
1.0389037428308885605e-05
1.0376120800534445308e-05
1.0361976991826854218e-05
1.0348944682948479768e-05
1.0334851685859568088e-05
1.0322013446417626511e-05
1.0308279710821753602e-05
1.0296004276821915907e-05
1.0282916897592757084e-05
1.0271448267838437571e-05
1.0259011838341614643e-05
1.0248053536115123835e-05
1.023589623624251402e-05
1.022494421179745918e-05
1.0212687431349662298e-05
1.0201540753902291252e-05
1.0189194568356125248e-05
1.0178136738346841439e-05
1.0165941934997082519e-05
1.0155110663982741824e-05
1.014305637248668486e-05
1.0132130080796827401e-05
1.0119733757293192217e-05
1.0108111946356107655e-05
1.0094824804564764384e-05
1.008232235882502535e-05
1.0068171247209913401e-05
1.0055191922905357956e-05
1.0040921568806855812e-05
1.0028197203437373182e-05
1.0014670990736296969e-05
1.0002905910269249779e-05
9.9905568089688741122e-06
9.9800001734557128801e-06
9.9687672341983112712e-06
9.9591520207494084769e-06
9.9486556929161516088e-06
9.9396660664320192377e-06
9.9294641450192812528e-06
9.920645601637757439e-06
9.910422668190913261e-06
9.9013057368668442232e-06
9.8907201277731274946e-06
9.8810579004191571108e-06
9.8698357088371492079e-06
9.8595527989317096587e-06
9.8476506436223561506e-06
9.8369946046475180629e-06
9.8247802272964648108e-06
9.814049288836651329e-06
9.801968041407147487e-06
9.7913702712016660693e-06
9.7796594665259370171e-06
9.7694278900208846169e-06
9.758182877646576301e-06
6.4383053078602707236e-07
6.8545864696536266591e-07
7.7757931729270336805e-07
9.8095478566466336481e-07
1.1377541001706283058e-06
1.2010433892509317885e-06
1.2450634720268886388e-06
1.3428656250959214174e-06
1.5288945095491113151e-06
1.6717078024584789756e-06
1.7738799578022929871e-06
1.8758458475468350228e-06
1.9928307189979115864e-06
2.1024470218595620234e-06
2.1751881162673824996e-06
2.2128969120578127956e-06
2.2516177810372975991e-06
2.3333360426431024035e-06
2.5401548061022966008e-06
2.767879420862963619e-06
2.9065486226495057318e-06
2.9697873154685953227e-06
2.9948189111887314272e-06
3.018384430378876814e-06
3.0700419460222453603e-06
3.2225419231561816427e-06
3.5099593875485084849e-06
3.7215209095916349411e-06
3.833507354555601955e-06
3.8936769497440199892e-06
3.9613809919632069718e-06
4.0475998147110337283e-06
4.1220750453456308363e-06
4.1624517764473400596e-06
4.1900985944329851383e-06
4.2422632324200729165e-06
4.3212773299913917721e-06
4.4041397172173053244e-06
4.4668382173942322005e-06
4.5019423817212794107e-06
4.5208153892530381836e-06
4.5450979117960581347e-06
4.5982833835154035096e-06
4.7353393593925730373e-06
4.9889696537000387806e-06
5.2340135157882880293e-06
5.4289354531774334806e-06
5.5585890982079708052e-06
5.6287817665496849251e-06
5.6595265543391851942e-06
5.6739522680424620563e-06
5.6937301973709220448e-06
5.7401042605887379758e-06
5.8242464329083826422e-06
5.9203588037757524264e-06
6.007355743046506705e-06
6.0709128285217690387e-06
6.106223932778918022e-06
6.1198084576177054668e-06
6.1279322709775664189e-06
6.15067934814252545e-06
6.2294122589032236497e-06
6.4768242078169385134e-06
6.7683715707786632683e-06
6.9634533054717743023e-06
7.0631418095643819902e-06
7.0967071592696126937e-06
7.1027460519020766021e-06
7.1085073638204898208e-06
7.127378673085413715e-06
7.1775528910687519746e-06
7.2810438529141320173e-06
7.3973847141293257615e-06
7.5127297414829098684e-06
7.6108840558516371218e-06
7.6762934767568893055e-06
7.7042395050859834959e-06
7.706445171751028628e-06
7.7030275599731895081e-06
7.7084178339159614858e-06
7.759340632417549536e-06
7.9690585228771955353e-06
8.2583110935909677847e-06
8.4360555314564424957e-06
8.5223157732225579688e-06
8.5543386004736835204e-06
8.5629279401655575916e-06
8.5642829933663653947e-06
8.5647298102017071944e-06
8.5671141409383758607e-06
8.5830717617513169372e-06
8.6576097247346063009e-06
8.8772444009061969486e-06
9.0865373742144937288e-06
9.2121096041162721802e-06
9.2595738462865550899e-06
9.260999662707424741e-06
9.2480024677631258263e-06
9.2373775575162077859e-06
9.2450612772708962129e-06
9.3234943960325990903e-06
9.5337077960562791929e-06
9.7009537951040649377e-06
9.8057644860029175195e-06
9.8634406905765010918e-06
9.8881655306523845038e-06
9.8956202881773785171e-06
9.903954658049033907e-06
9.9317275142064115437e-06
1.0030094090681157914e-05
1.0185196867494552129e-05
1.0301336581776732157e-05
1.0363514444116079356e-05
1.0379538576162349603e-05
1.0373064562968405816e-05
1.0350811447292481094e-05
1.0293070565449945197e-05
1.024861386066907757e-05
1.0230156492836617031e-05
1.0226613180819511584e-05
1.0261659263663170549e-05
1.0442943362739964553e-05
1.0815042775636767662e-05
1.1082453519104943821e-05
1.1226834084868347893e-05
1.1283144714052232934e-05
1.1308106600173000131e-05
1.1355140967083746976e-05
1.1491093109127249196e-05
1.1772637547487962647e-05
1.2006432814255462346e-05
1.2139646085352369923e-05
1.2178345551519806014e-05
1.216786838114634397e-05
1.2108516187381610941e-05
1.1977717998464864352e-05
1.1919403980562996758e-05
1.191440057258335135e-05
1.1981575910314282943e-05
1.2282152935744523287e-05
1.2605676280476745506e-05
1.2753178008173915331e-05
1.2791949072781535704e-05
1.2805508158427732785e-05
1.2847034929306933355e-05
1.2914324707052943065e-05
1.2959905935871219372e-05
1.2967774594566861254e-05
1.2951498040263325696e-05
1.2879315797642113762e-05
1.2672042339893496439e-05
1.2493287295520959633e-05
1.2401714292481085021e-05
1.236859229315847768e-05
1.2358885920975394983e-05
1.2359317103387828729e-05
1.2385341073404053399e-05
1.2419692733089697899e-05
1.2445065079178264572e-05
1.2460900731535455897e-05
1.24654705320688271e-05
1.2459088181762541486e-05
1.2446509324465329952e-05
1.2425256530776071845e-05
1.2378192729009652483e-05
1.2310737682756765318e-05
1.2261105747106304333e-05
1.2229498125812319258e-05
1.2211790117120853132e-05
1.2202317842039074657e-05
1.2196085422484703441e-05
1.2191216299629998749e-05
1.2189999916749909059e-05
1.2198911544723892728e-05
1.2229795249342764816e-05
1.2266703457561271089e-05
1.2300276841281538453e-05
1.2330192574371980104e-05
1.2358070272851339312e-05
1.2387458470634244611e-05
1.2421659825515028502e-05
1.2460969266510914076e-05
1.2502433105958139165e-05
1.2541277803951303283e-05
1.2572831332314402406e-05
1.2595559166021481231e-05
1.2611226344404665239e-05
1.2624588837613297024e-05
1.2640541585198733314e-05
1.3425147207001741757e-05
1.342675839961407803e-05
1.3429627113315948921e-05
1.343553688046987321e-05
1.3445258774183500793e-05
1.345891718935850881e-05
1.3475839385301105646e-05
1.3495142256260580948e-05
1.3516080329335718302e-05
1.3538016151586159986e-05
1.3560668171685014477e-05
1.3583443556072281839e-05
1.3605781500180670908e-05
1.3626451383307804397e-05
1.3644587535091830206e-05
1.3659635748754875046e-05
1.3670933776937916585e-05
1.3678544364426780921e-05
1.3682741344427115871e-05
1.3684090904887570274e-05
1.3682924772545906352e-05
1.3679558184270190172e-05
1.3674120970070208572e-05
1.3666695974406128537e-05
1.3657420520445977876e-05
1.3646667941876511172e-05
1.3634722644841014419e-05
1.3621962794325497513e-05
1.3609186265509336702e-05
1.3596611517053169672e-05
1.3583577781078400132e-05
1.3567580647858134283e-05
1.3545910324990372893e-05
1.3524550432714129079e-05
1.3503222772420676127e-05
1.3482895257565957091e-05
1.3463040548623911571e-05
1.3444651133012234414e-05
1.3427021035591817379e-05
1.3410806175651814352e-05
1.339486950917921915e-05
1.3379521033250627661e-05
1.3363359057588265077e-05
1.3346730735169677476e-05
1.3328664773280897278e-05
1.3310207981522200152e-05
1.3291069145747196444e-05
1.3272668019053835006e-05
1.325476652722431544e-05
1.323840140781109999e-05
1.3222789844522459936e-05
1.3208348333942185364e-05
1.3193883294642405634e-05
1.3179736378377205613e-05
1.3165075104446028771e-05
1.3150720892555659665e-05
1.3136164764227348077e-05