/*--------------------------------*- C++ -*----------------------------------*\
  =========                 |
  \\      /  F ield         | OpenFOAM: The Open Source CFD Toolbox
   \\    /   O peration     | Website:  https://openfoam.org
    \\  /    A nd           | Version:  12
     \\/     M anipulation  |
\*---------------------------------------------------------------------------*/
FoamFile
{
    format      ascii;
    class       volScalarField;
    location    "0.0067";
    object      k_0;
}
// * * * * * * * * * * * * * * * * * * * * * * * * * * * * * * * * * * * * * //

dimensions      [0 2 -2 0 0 0 0];

internalField   nonuniform List<scalar> 
75962
(
4.0164769534989737041e-05
4.7036913497751077192e-05
6.0618791420171254337e-05
9.1357220202978870523e-05
0.00011977562505747847059
0.00013412203340327848947
0.00014549099762293195488
0.0001715469280733770334
0.0002191409838494855428
0.00025389502070574313094
0.00027891685587481403847
0.00031235596460926269178
0.00036130571553792358757
0.00041279350877611585861
0.0004487528377574631893
0.00046681278377399740677
0.00048153930714232840143
0.00051140823422911047946
0.00059022836108944928997
0.00069515073336016183336
0.00077243518450938652899
0.00081503958613604577353
0.00083436178135811009306
0.00085079316138206631786
0.00088504169434787849542
0.00097841483507800038923
0.0011140316456800380008
0.0012245254783564895815
0.0013041091294332765073
0.0013742885667551772797
0.0014577989031634660567
0.0015550070002251462509
0.0016421170376244701751
0.0016940555025700613882
0.0017168813341228519615
0.0017405694728037696302
0.0017791593354768619941
0.0018239718619405059178
0.0018613145465490414654
0.0018874119601165390871
0.001910787311178824624
0.0019495174235341478607
0.0020339837753400062323
0.0022084476347149135413
0.0024321010359219146293
0.0026628891388061487477
0.0028527511764035052427
0.0029750954847046319832
0.0030389248532204544972
0.0030712148094316966442
0.0030971330855475965281
0.0031329060129008387894
0.0031896150184380763978
0.0032731741105507298172
0.0033812361280951691578
0.0035001600445422275353
0.0036080421435300087316
0.0036849239724218965826
0.003726700488961832286
0.003753857030475667763
0.0038021531556032646046
0.0039290584898813846193
0.0042499424776204098447
0.0045834943011704033095
0.0048228958979988504133
0.0049545858787690948838
0.0050061231934917255898
0.0050199931505755628069
0.0050265200785537134803
0.0050390350617108940756
0.0050698122030816226286
0.0051594047766550113834
0.0053558122428063424658
0.0055701221101417432158
0.0057723480196093888278
0.0059323238166429995144
0.0060266351632194126164
0.0060612348090883635607
0.006073029340573535273
0.0060981268651368013278
0.0061944090898043207769
0.0065228374709019824179
0.0069070884324203976959
0.0071502757281304571771
0.0072790997017398457319
0.0073442151201125391302
0.0073840994427964313368
0.0074156858284156173394
0.0074438289465691412014
0.0074746670557931139955
0.0075286277900074331446
0.007651768794402809791
0.0079693361867207643257
0.0083470434539582409605
0.0086240704628067384185
0.0087608616551019275615
0.0087965675936683071501
0.0088068147094519273754
0.0088416006706499850054
0.0090013007554280068806
0.0094855771393688361609
0.0099844461223888847368
0.010351772159667545214
0.010609045652384347172
0.010777860803129778178
0.01087254064776840487
0.010910331539965893721
0.010916911179669166326
0.01092111884667791577
0.010945662971377745701
0.011068442644485206039
0.011355512810548753014
0.011539817279444261958
0.011601779845738726879
0.011601511576818837601
0.011563215792238124013
0.011423697877099504155
0.011298761004124052709
0.011252966850526929798
0.0112535658646589036
0.011308607523519394536
0.011591487351846825257
0.012311276938073411821
0.012895588156710754979
0.013226958039049142857
0.013375764189353234537
0.013484655160680467101
0.013700083557013438898
0.014246844460317554734
0.014993429201369387269
0.015616462254212495897
0.016002734619170320279
0.016148144460893167074
0.016155320942153609393
0.016077293900492062306
0.015833917621909956996
0.015722451067097648753
0.01573361340090530594
0.015913669633073401072
0.016652444625062705341
0.017490929946850541227
0.017914152755735178457
0.018046479504757149959
0.018053665087611272394
0.018045371528537180322
0.018051833270452531666
0.018078949162717065924
0.018078909152507347674
0.018027027122172148421
0.017759261578775577956
0.017236876475247287638
0.016909756599880792355
0.016781825200953906507
0.016766927837850640476
0.016791232048605470029
0.016912698174199273377
0.017095421180498383135
0.017205764623413045272
0.017260087500231433011
0.017279412781885491318
0.017282858343511973975
0.017280454709024919285
0.017263077147789292892
0.017192095172793520064
0.017055941302710105056
0.01694380300054080038
0.01686363345761819621
0.016813776739894426004
0.01679099867867616877
0.016785155357067250287
0.016786712749018599389
0.016795928385217939044
0.016838564095388058872
0.01698828585927606924
0.017204710298087417392
0.017387226622678737115
0.017527093809480597669
0.017622468278748824877
0.017676276385254541257
0.017702040067910571747
0.017714757781801558634
0.017728836562623865453
0.017758732583014510964
0.017833223378248816426
0.01794529443606615593
0.018056513146619591198
0.018162607170502435838
0.018266007136327033766
0.021847841898581025349
0.021897552027561661969
0.021952672492937658905
0.022017877342973356247
0.022095329665379508793
0.022185221325114658913
0.022288035424480739932
0.022401234767169379142
0.022522732034910859095
0.0226488512924872612
0.022777260884265414925
0.02290320019443468913
0.02302153357780453713
0.02312789878855497222
0.023218629318869189043
0.023290324446316748586
0.023342964074900125065
0.023377519798545222385
0.023396542259447074275
0.023405630615362906649
0.02340921228767709264
0.023410286852175953703
0.023408420752063143627
0.023401862012871709612
0.023395407359706868466
0.023389778022423573373
0.023383584840138547933
0.023373776935260041909
0.023352445953600909495
0.023322335167267341932
0.023287684843487168468
0.023252024695627006995
0.023215781199893561343
0.023181424857534195516
0.023148052190182059895
0.023117348440292007083
0.023088012458474572314
0.023061501708077421224
0.02303605500239626
0.023012722872463999696
0.022989705250326088887
0.022968237413675412356
0.022946771994309670545
0.022926302546080683242
0.022905262437328630792
0.022884703941894055101
0.022863596771940046526
0.022843402564259419202
0.022823228337426299667
0.022804161111585594807
0.022784981733502008422
0.022766404995443873666
0.022747362174876491897
0.022728745965823714259
0.02270997052993514731
0.02269181590692338768
0.022673320420608433778
0.022654613280332237119
0.022634683137723633772
0.022613876292695699044
0.022592006373369787758
0.022569942668761840132
0.022547427675210118814
0.022524819622618364595
0.022501407156270775145
0.022477708946119227124
0.022453209454127383282
0.02242910373927068865
0.022404785180240346931
0.02238138032741520192
0.022357449440710826932
0.022333643074649092708
0.022308624172462220708
0.022283439009509145579
0.022257582231713785026
0.022232101485611450997
0.02220660295418928204
0.022181761699671787014
0.02215726859756499828
0.022133517152503529024
0.022110053587141697412
0.022086662706865753392
0.022062569567073704591
0.02203794794011205635
0.022012357942762548341
0.021986923016385856444
0.021960912822946862533
0.0219354061548959825
0.021909243231985578437
0.021883315422137297745
0.021857066455838857627
0.02183089717249089845
0.021805017952527667308
0.021779057222836115115
0.021753572456449342398
0.021728081334519068479
0.021703052955320475959
0.021678200947942236759
0.021653652352357243005
0.02162892466228052285
0.021604430052884194408
0.021579034277807624537
0.021553914543711732293
0.021527332302197849795
0.021501221949170683939
0.021474187511300184966
0.021448326569257814694
0.021422282665750073949
0.021397487866081244673
0.021371845846978727163
0.02134704076108626461
0.021320681066137766452
0.021295477296727937516
0.021268834614914640391
0.021243576337893449457
0.021216688663723302921
0.021191334609984020798
0.021164236735483898943
0.021139613983178758699
0.021113641809508591068
0.021090441553740457703
0.021066023185047359073
0.021043607993427047853
0.021019629895950801141
0.020997032214285067664
0.020972064283017111813
0.020948441104928758327
0.020922131558746351332
0.020897542502018248006
0.020870892137725787635
0.020846331509293342804
0.020819880294698226569
0.020795876841891474535
0.020769477552083737831
0.020745921633553245089
0.020719871643910037218
0.020696833602124539014
0.020671372998219306183
0.020648849532397234308
0.020623394841554929663
0.020600698459659356337
0.020574910257747495296
0.020551675007947366874
0.020525834752573954289
0.020502551088305870364
0.020476833708616859475
0.020453954122252950704
0.020428575126928513739
0.02040593970780443106
0.020380267439288987652
0.02035698105253645751
0.020330246799480335834
0.020306440154841898238
0.020279759392260485878
0.020256790976448002528
0.020231114129390586481
0.020209049124274576503
0.020183751412796033242
0.020161465720433556503
0.020135447346600596208
0.020112724144157160394
0.020086804624102089223
0.020064962381665631813
0.020040770397358954186
0.020020348531876012294
0.019997172009249337965
0.019976975203405869519
0.019953019674091267838
0.019931599899627484851
0.019906217000992730559
0.019883286659952419118
0.019857069518423541704
0.019834041068148674375
0.019808288996149000377
0.019786117423174241076
0.019761207706249762917
0.019739599150974500297
0.019714847391101891078
0.019693444733104026323
0.019668765519204198244
0.019647693498190045569
0.019623189802164427847
0.019602897253919650267
0.019579136604767354707
0.019559935776190182088
0.01953717647812214589
0.019518756461563695204
0.019496474503838977232
0.019477873683488296924
0.019455559141441182425
0.019436457551884542272
0.019414080131315371996
0.019395182738275878326
0.01937293875142840488
0.019354475026118748981
0.019332165611174133985
0.019313335161768623721
0.019290418535275365847
0.019270850209546979553
0.019247449002628324449
0.019227574815920550622
0.019204561395543526953
0.019185050877249858192
0.019162749179035955954
0.019143813167762264993
0.019121921884938383046
0.019103498002219686247
0.01908171347712210239
0.019063971395378572632
0.019042478699530959035
0.019025277189593181593
0.019004388971125399377
0.018987400500886944532
0.01896692681188812471
0.018950133833123217197
0.018929765826449632127
0.018913142821158607232
0.018892707863243773242
0.018876142304906463193
0.018855739395991458207
0.018838907630676263172
0.018818623420625287673
0.018801495440377173629
0.018780745757457372597
0.018763504016769658872
0.018742175236021934442
0.018724966778798930733
0.018703677265601119373
0.018686678994717272062
0.018666625592863167471
0.018650662187740588843
0.01863186400738854262
0.018617290537029190095
0.018599583743163339289
0.018585679667002561605
0.018568595370949701751
0.018555556720007481547
0.018538714837300476757
0.01852605269598114196
0.018509429476152975541
0.018496605226700511826
0.018479772699509632722
0.01846658631936892378
0.018449145701795940933
0.018435462811793420362
0.018417159935411889227
0.018403095621206334159
0.018384483556581437264
0.01837040044812663156
0.018352293647086959094
0.01833870783313381117
0.018321600214652327548
0.018309037607937155706
0.018293019850376082691
3.8288695535827016144e-05
4.8612087468039533406e-05
7.0553402023727120724e-05
0.00010654730790928074939
0.00013329014081768468113
0.00014555172852794527605
0.00015629919273553016107
0.00018050760959921477379
0.00022837314384319666203
0.00026373685459862367597
0.00028228628831521049248
0.00030538049626850530087
0.00035537249642694215476
0.00041817300925342765043
0.00046597003518685458203
0.00049131714429672215284
0.00051142927277947585873
0.00055195932485687098246
0.00063803354266543795773
0.00072760755007637151204
0.00079166403865144367377
0.00082465548519960790632
0.00084125429688625141551
0.00086420215629907546576
0.00091883415821536766534
0.0010623644889442326444
0.0012211312146083014817
0.0013455492639176103425
0.0014342991898309619212
0.0015015224871494231573
0.0015554697276520346259
0.0015993038210796416132
0.0016478046762205221781
0.0017111411560254119989
0.0017795514472467726958
0.0018352267599247747143
0.0018725023325510631398
0.0018992214148510903112
0.0019244767757151414779
0.0019510795474000283949
0.001983408952723151545
0.0020380394386706373114
0.0021440166616807187876
0.0023197853030630165121
0.0025510497219414325284
0.0027888562429596590493
0.0029782210004533592185
0.0030932186777082371944
0.0031458407067387270106
0.0031691000896688918849
0.0031968496398195041068
0.0032491021094392651819
0.0033303642343202391474
0.003434950015743818124
0.0035518002121831785019
0.0036664274608510967479
0.0037629038730061033398
0.0038290564721384849449
0.0038644662847209668502
0.0038867824105571421867
0.0039256864272077798481
0.0040277553415037697579
0.0043420065194419285234
0.0047798036362782540462
0.0051090112077942220412
0.0053012988320094850403
0.0053836460507998805392
0.0054079191279818167315
0.0054142124836455496686
0.0054201507762494651951
0.0054323167114186934543
0.0054641447376625748925
0.0055620831588440678914
0.0057794700213432336974
0.0059908445471009621336
0.006155345190222404235
0.006253911688643555393
0.0062928273538892381955
0.0063042289755489101452
0.0063220190186682794983
0.006384141145437284906
0.0066251189429477018444
0.0070566312857758108426
0.0073786694569588197681
0.0075821305271037949328
0.0076990587567147871287
0.0077643397009791335558
0.0078029148071115401325
0.0078283697627156891702
0.0078514728444393777629
0.0078916150488979285027
0.007986181128684318592
0.0082706962510134506006
0.0087259127238382121899
0.0090770628002782866722
0.0092693170779599553394
0.0093315981680522214203
0.0093422640197963827124
0.0093606259080534371525
0.009442453532288022644
0.0097587331789540446292
0.010253146219206933296
0.010640867972149227472
0.010917103748606779914
0.011095621887910835091
0.011192102537707727949
0.011229619028935076269
0.011240122279040839007
0.011255290423223544144
0.011304200135178377531
0.011487142352133496506
0.011806562992010374499
0.012020810199335055235
0.012113928329331679484
0.012128500505229539153
0.012114407225904089485
0.012036540530534730817
0.011914290604860650405
0.011856993244986669539
0.011849164148997901394
0.011879053917620743808
0.012068850752328106821
0.012728459397463561323
0.013419340209986529988
0.013804894917646083966
0.013985695998168424029
0.014171246919073799894
0.014561167192294806674
0.015165408457620425942
0.015836467974956615345
0.016412483018151659275
0.016774911096995574755
0.016909718940822947991
0.016912777261482686564
0.016823993350242292394
0.016556892901493851927
0.016431905268307855222
0.016440339971249044726
0.016616960630505835106
0.017350516082302702703
0.018158975883663538986
0.018564635920672745845
0.018739870939646900705
0.018872270274420278185
0.019047248937035559518
0.019228224373969222266
0.019339464274492190049
0.019361665944843630544
0.019327000526859147017
0.019102261437853807619
0.018522163438823530807
0.018119923211971436516
0.017956338670568089411
0.017931842611365003681
0.017953961639143159457
0.018069447846684742048
0.018233578084769268279
0.018325383942100793855
0.018364298617602570901
0.018373615573612691459
0.018373178697480837401
0.018363145752755289514
0.018316416609848704816
0.018179021046992857591
0.018032570432544432065
0.017925232000580756941
0.017854467419267185807
0.017814780070169504433
0.017799181041275733556
0.017796982109440896702
0.017799910716044354403
0.017814984444922802448
0.017878401481652112653
0.018057108132995217803
0.018236776873305212548
0.01836369486428586148
0.01843741167806702691
0.01847287901800735016
0.018494529969351965887
0.01852389278666780395
0.018577553563858959645
0.018656052858307604903
0.018755197115334708291
0.018861481972549432734
0.018964782186551811666
0.019059669513019194403
0.019146920835499341151
0.019237057895732517787
0.019340364716645630505
0.022925689866566539843
0.022983019269746260416
0.023040834264957628374
0.023104167417814951146
0.023177629285968486678
0.023264346026889613783
0.023363632091399980095
0.023475643584561941418
0.023597884441092589064
0.023728382923692677153
0.023862869642056333541
0.023997469757365112036
0.024129618403712940061
0.024252392959931843436
0.024363027082118578204
0.024457870629126864798
0.024534313427027224647
0.024591458975982138924
0.024631192155754554757
0.024655082713619859425
0.024667535237609800741
0.024672697330257606363
0.0246747503940966742
0.024674305322350084668
0.024670275050884152984
0.024664806792993331647
0.024659208108861758318
0.024652100792258515444
0.024639882255219916485
0.024613340717954668851
0.024577230133016332581
0.024538369671772274072
0.02449896549660711062
0.024459982969838766492
0.024422395701173091331
0.024386467241916922472
0.024352752785805564795
0.024321245706236220563
0.024292127140186203088
0.024264882650476139736
0.02423933020988176118
0.024214853884528150102
0.024191261417880815382
0.024167965896339224652
0.024144685028301783591
0.024121194182974866477
0.024097569374671726911
0.024074193686879040432
0.024051304929343018252
0.024029275497894308361
0.024008078840746384375
0.023987552555730221049
0.023967173510441124734
0.023946713783859069347
0.023925977564629188205
0.023905393836024246834
0.023884967447012465241
0.023864929743303394533
0.023844578541151458667
0.023823821903641420605
0.023802097968110273729
0.023779975981850332012
0.023757190613192629564
0.023734214565041329703
0.023710393248744396355
0.023685898905504678552
0.023660393316879361342
0.023634456491290450897
0.023608477245145226275
0.023583096976801706801
0.023558319172674098418
0.02353375221296062636
0.023508670988295638643
0.023482807933782115506
0.023455970557389120568
0.023428947166069413743
0.0234016995043320776
0.023375178975931207304
0.023348856449296528232
0.023323424272523790579
0.023297884927981096087
0.023272745237185716444
0.02324684427668749151
0.023220614636507205114
0.023193473328387208959
0.023166051124589290278
0.023138350400874127533
0.023110838734345651863
0.023083401972183587025
0.023056375947442621366
0.023029157577220956549
0.023002303523032507915
0.022974630182203512052
0.022947545574646479455
0.022919630216384920263
0.022892844319406416981
0.022865585767162983216
0.02283950458482275625
0.022812943923719023603
0.022787329654180715072
0.022760818546331277462
0.022735162098334805308
0.022707905745370727396
0.022681525534482407241
0.022653163201970444307
0.022626141962910236577
0.022597706406342725483
0.022571160353558245015
0.022543663776823250067
0.022517880389126138097
0.022490594113455785602
0.022464709153089068572
0.022436750646183330898
0.022410611102896476482
0.022382470140581554874
0.02235649701091269731
0.02232819527246191274
0.022302078346654805041
0.022273485436425200651
0.022247885214164410395
0.022220404684026587999
0.022196284705859083142
0.022170233918654289051
0.022146740727736844573
0.022120820682038633276
0.02209697334263126603
0.022070193697279246597
0.022045527200681810237
0.022017815642276887533
0.021992589763308974943
0.02196486810839871559
0.02193993570016263342
0.021912385078453205239
0.021887771494906876207
0.021860026043045679284
0.021835715788094081646
0.021808436644903970991
0.021784955325820781757
0.021758469892914723831
0.021735448221493119947
0.021708614138794317394
0.021684901610288465079
0.021657220429525305544
0.021632669015225564069
0.021604805438959165387
0.021580349192121709573
0.021552793050503116223
0.021529053363769708185
0.021502086209839840064
0.021478694841459779891
0.021451582200541489953
0.021427460619391502233
0.02139909063223781327
0.021374204399310210711
0.02134558607252437859
0.02132148694677884343
0.021294058530134860746
0.021271185718272134224
0.021244465163933867052
0.021221517931528231793
0.021194173091354642779
0.021170747211173564922
0.021143470870449990878
0.021120992122072652225
0.021095288072604800877
0.021074055309289539684
0.021049086712233697205
0.021027783388912809487
0.021001851404591414391
0.020979326881443417785
0.020952044031280842029
0.020928321720833795161
0.020900430771764098165
0.020876829686676718484
0.020849642291092092966
0.020826979536450348357
0.020800658340529375179
0.020778477924542401029
0.020752095853824828464
0.020729840675734759192
0.020703139855551829646
0.020680854541703000415
0.020654253558151671605
0.020632701867369960397
0.02060708685651593472
0.020587029414343809008
0.020562670959478543398
0.020543502699892145918
0.020519707240363407874
0.02050053575766794256
0.020476746681789531612
0.020457224824691366827
0.020433256654537858277
0.020413689428507478252
0.020389583842603167113
0.02037018020782352043
0.020345968610439038593
0.020326248902499493426
0.020301511091299313111
0.020281135036914119812
0.020255869920163663278
0.020235248386033192342
0.02021037503776164021
0.020190228563196594563
0.020166051085371054785
0.020146476359208700946
0.020122663148009051898
0.020103422647027673759
0.020079692073267457753
0.020061012458953066118
0.020037585152577044867
0.02001943647481713856
0.019996618064103480195
0.01997890800590396837
0.019956648404570981326
0.019939153815403988512
0.019917098820918424651
0.019899866329100953516
0.01987775636384051664
0.019860569031693406372
0.019838485208252126801
0.019821187671823586873
0.019799068656184831694
0.019781390103660864005
0.01975885730714759328
0.019741000633349825577
0.019717904003829212628
0.019699996812457289813
0.019676920757542157997
0.019659147233034652419
0.019636970639805378935
0.019620112667301320419
0.019599245671387755668
0.019583738871952392074
0.019564082261902551729
0.019549529042761481373
0.01953054288275143241
0.019516775333140726906
0.019497848919849646021
0.01948429222752148457
0.019465503137116275251
0.019451682169878806855
0.019432996459545586604
0.01941901119580278709
0.019399990202045067078
0.019385634268863582985
0.019365654142175253716
0.019351049160250016756
0.019330531231463315284
0.01931587660103984555
0.019295815128462876636
0.019281420318865493541
0.01926239256463680577
0.019248851380287517604
0.019230854618948429319
4.1145023794039228273e-05
4.6632019137409691566e-05
6.010614413876262885e-05
9.5755021427494131517e-05
0.00012902705796873791986
0.00014445654643658153082
0.00015586614738689850436
0.00018153867456937027459
0.00023521835047648546294
0.00028093251762826985029
0.00031630958435686180527
0.00035447531721791245701
0.0004014786304604619745
0.00044769151079474092973
0.00047945428130888491239
0.00049664436734868388536
0.00051455902437652796793
0.00055293837589879505246
0.00065614969271719791617
0.00078039169335610025259
0.00086171314009154845008
0.00090056434580419080296
0.00091690628326670262169
0.00093298388498784968082
0.00096727474047548177554
0.0010680564910231355163
0.0012692327943370786646
0.0014282197331575295814
0.0015162667045171475833
0.0015657734042615579443
0.001623649760204790406
0.001698685786289243476
0.0017645836846433035454
0.0018011298727372195699
0.0018268755944268254103
0.0018748736470911952882
0.0019477815710342554628
0.002025907447301474474
0.0020880811719317152707
0.0021264339951155013415
0.00214916778833175795
0.0021756722736971144741
0.0022297627016375407526
0.0023680589349409295052
0.002632166726475329132
0.0029007074733947771361
0.0031254807875933376948
0.0032831912107236359971
0.0033742496637549834401
0.0034181629758618489907
0.0034408481778120218741
0.0034683385869462004733
0.0035275514500744359174
0.0036350081717756140345
0.0037612961010056928692
0.0038793935435412437752
0.0039686626921581931449
0.0040216025863749668007
0.0040468110787871807571
0.0040657083432976207082
0.0041037657501877041616
0.0042155566093516486439
0.0045612560241583477091
0.0049858480517340859547
0.0052862752255251749256
0.0054529056998364718381
0.0055209070283699472614
0.005543360138274722182
0.005560239177533969103
0.0055937696367770765524
0.0056756875437775711549
0.0058448253820819733723
0.0060396877778219381153
0.0062376828887041090368
0.0064106087210839754476
0.0065307264974435426733
0.0065887742082015128206
0.0066029059349687231617
0.0066059326570609925439
0.0066219379305610852685
0.0067157566364079591265
0.0070919018434042685808
0.0076286893697057383754
0.0079767896150398868299
0.0081568662834834923525
0.008230525069652543102
0.0082544950117215323132
0.0082620337458218177235
0.0082691452886665579858
0.0082845138070232037658
0.0083318178467866668702
0.0084977233793835770664
0.0089558985311449703509
0.0094017480391978061616
0.009677647792677081251
0.0097891840689416642629
0.0098030229381980433373
0.0097863586312969402803
0.0097750359198413173251
0.0098032130305294104544
0.0099841184875284118977
0.010456439681314809789
0.010845885693794427712
0.011100703577464482441
0.011248726990618719557
0.011320079117009666098
0.011352298091309184422
0.011388226364009592859
0.011470261120638132121
0.011715410160135504569
0.012094260665723227319
0.012383036293738301087
0.012544458515192634732
0.012596927656710414298
0.012597265174570540167
0.012561010326548480154
0.012439617192677162455
0.012351184597386858158
0.012326029285540131969
0.012337064076954659675
0.012441228799570830041
0.012904477611413250893
0.013861324439988277971
0.01457641020373817535
0.01497874243248956648
0.015147546463041198714
0.015231100649388771076
0.015374078742583710891
0.015761195146808557044
0.01656054069968565523
0.017242766856488567218
0.017646210348614240621
0.017779671370016274928
0.017772464212171105308
0.017625014699981244454
0.017272511143186425331
0.017131748305740834154
0.017146105121267959243
0.017371124387398254041
0.018287738193892674049
0.019299679401505193815
0.019788023899564861907
0.01993825457504491
0.020004389497759435257
0.020152278536891429783
0.020377987930252017962
0.020536029165132238528
0.020579282330449824578
0.020553891342910461659
0.020359418885879814604
0.019747504530471891165
0.019232610938169504566
0.018987777065324867865
0.018919201982702412573
0.018918369592042200839
0.018944659497241070345
0.019046137270651179729
0.019170855582570710957
0.019267630827211185834
0.019337185089169508373
0.01937640520508448691
0.019387577792657772341
0.019385573345172674858
0.019361785266729457378
0.019260894764247343119
0.019096944388175066121
0.018984867279256783384
0.01892209025447869758
0.018895155233239206011
0.01888830061289939119
0.01888852222074887191
0.018890764050962290804
0.018900570628891753128
0.018935962377077397711
0.01903348611538821164
0.019146170546486280389
0.019248851223937869098
0.019343652495677574749
0.019436408949032125959
0.01953665180902888418
0.019652315493771284338
0.019782644393724246185
0.019918493496373725765
0.020046774210057655141
0.020155594550937815101
0.02024240807728189262
0.020313247886100598699
0.020381628810930783186
0.020460470957135719339
0.024269766675366552522
0.024312459854063769166
0.024358004042415868501
0.024411898627787656513
0.024477505704720917135
0.02455714319907165849
0.024650643988837952353
0.024756472387614539277
0.024872195338730206798
0.024994294095133727518
0.025119765874854489696
0.025244582781405792288
0.025365793032210669222
0.025479058284809300017
0.025582074463184736879
0.02567395278473844078
0.025752946268631071031
0.025819246093708014128
0.025873201785011203796
0.025916144747458111364
0.025948784357983395443
0.025972264568829561693
0.025987722266231340351
0.025996614018599768781
0.026000428067903536
0.026001027164058217872
0.02599921705773341335
0.025995416730953943563
0.025991219753286370214
0.025986008629623691402
0.025976378368591249157
0.025952577747127638513
0.02590475045778588975
0.025856673275111353993
0.025807944064215666835
0.025762552414454392008
0.025718307671486279053
0.025678613589394889971
0.025640510009340995029
0.025606711886159375796
0.025573718421384127736
0.025544070771670434467
0.025513966060605228203
0.02548585631650825134
0.025456305314227000575
0.025428456560520524415
0.025399530800905841671
0.025372891981443098514
0.025345737942654638503
0.025321138117004229201
0.025296202523772508275
0.025273478300999106111
0.025249699705240692682
0.025227151939284101628
0.025203068315146012063
0.025180449032269167087
0.025156938503771760635
0.025135194980965423067
0.02511219685848004729
0.025090210518450187238
0.025066341804869836374
0.025043441993869493267
0.025018652942522312532
0.024994712020006033815
0.02496837076903872174
0.024942376912289170032
0.024913898926488757535
0.024886361021969463647
0.024857590680860526533
0.024831033387717173222
0.024803908117207430772
0.024778514802016610857
0.024751359886684011491
0.024724734864339455859
0.024695957879808317498
0.024667981437306710224
0.02463866853845960575
0.024611015833019903032
0.024582589963542136879
0.02455608221597726723
0.024528409276393284277
0.024501887648056743657
0.024473222804801679497
0.02444537590255577153
0.024415149165905768863
0.024386580572894691471
0.02435579703619463951
0.02432754916931554115
0.024297225113230326576
0.02426995269694227908
0.024240430589014583945
0.024213091406339880968
0.024183103514615538615
0.024154788171530282986
0.024124610835003699322
0.024096829610478879419
0.024067559366979175001
0.024040878750901401723
0.024011932620100241709
0.023985633461635253588
0.023956420307503247663
0.02392980154172227869
0.023899821278279859138
0.023872264557503311555
0.023841535327423335477
0.023813860696400287326
0.023783429999329350202
0.0237566137911210222
0.023726807430166776264
0.023700497502433089114
0.023670887080357885107
0.023644340312567287826
0.023614408813298286283
0.023587625784097190906
0.023557400827530265708
0.023530961042372858238
0.023500481024106709832
0.023473977833819673067
0.023443369324428506989
0.023417174685386319549
0.023387819946267710686
0.02336313127993381103
0.023334905404817387481
0.023310782531937603718
0.023282023644046509481
0.023257305150811768274
0.023227826955522418162
0.023202421183807244581
0.023172721127681053521
0.023147358929878198569
0.023118031363663370942
0.023093370201779810091
0.023064243678457885256
0.023039602983698052874
0.023010183707781215606
0.022985603999397176411