/*--------------------------------*- C++ -*----------------------------------*\
  =========                 |
  \\      /  F ield         | OpenFOAM: The Open Source CFD Toolbox
   \\    /   O peration     | Website:  https://openfoam.org
    \\  /    A nd           | Version:  12
     \\/     M anipulation  |
\*---------------------------------------------------------------------------*/
FoamFile
{
    format      ascii;
    class       volScalarField;
    location    "0.0067";
    object      nut;
}
// * * * * * * * * * * * * * * * * * * * * * * * * * * * * * * * * * * * * * //

dimensions      [0 2 -1 0 0 0 0];

internalField   nonuniform List<scalar> 
75962
(
5.2499964792389022149e-07
5.6786278181082057531e-07
6.4399764248525937098e-07
7.8990122344987109828e-07
9.0400344797466858869e-07
9.5606193722302900089e-07
9.9500121537915403903e-07
1.0794796081988485377e-06
1.2192626520901124061e-06
1.3116111106703038969e-06
1.3737796518152459861e-06
1.4526966151998984863e-06
1.5612599183033248932e-06
1.6677119333930545417e-06
1.7377443659590251025e-06
1.7712167481700118573e-06
1.7976579859742677923e-06
1.8511440547296382901e-06
1.9870106828587230495e-06
2.1550238937609607118e-06
2.2702577327767369218e-06
2.3305532024685384344e-06
2.3564550912507362042e-06
2.3778603070331751447e-06
2.4234223427363336853e-06
2.5459607464974768179e-06
2.7148882726071310465e-06
2.8445273955222013126e-06
2.933554907580611194e-06
3.0093602092939393978e-06
3.0972553056800293349e-06
3.1966324339302393651e-06
3.2827396405844613531e-06
3.3320401373721446049e-06
3.3521316280402696569e-06
3.372803947362646301e-06
3.4075796484723937333e-06
3.4478311471921645206e-06
3.4805548926317371098e-06
3.5024513725817419368e-06
3.5216005091164868582e-06
3.5545601783033207955e-06
3.6280143709522133329e-06
3.7775967708446747884e-06
3.9614907441658774113e-06
4.142410925923974946e-06
4.2847390060417249149e-06
4.372771522738008493e-06
4.4164597356687478982e-06
4.4368220042406803996e-06
4.4524115847990591375e-06
4.4749071403359410901e-06
4.5120318048791777649e-06
4.5675142163286773733e-06
4.6390325372207094108e-06
4.7166319070078847043e-06
4.7854959221252028987e-06
4.8329447763984922988e-06
4.8569674418773306699e-06
4.8712510015771537237e-06
4.8989913782767983817e-06
4.9763013543244116532e-06
5.1716059160577511629e-06
5.3671933194522300988e-06
5.502006956620183377e-06
5.5729643927813237833e-06
5.5980952037485902392e-06
5.6019681545284005358e-06
5.6016989155156038458e-06
5.6047568984031989386e-06
5.6178931452933724501e-06
5.6631887175044876235e-06
5.765845614207731021e-06
5.87600834735429868e-06
5.9776285250618107288e-06
6.0557992339000027616e-06
6.0996380898836065663e-06
6.1129560883728737672e-06
6.114650185694540031e-06
6.1229622887783564342e-06
6.1665956131638996417e-06
6.3231541982786339826e-06
6.5024566715012817759e-06
6.6115589842397846695e-06
6.6663370800002099171e-06
6.691484762044925573e-06
6.7049934677634310981e-06
6.7146764717979983631e-06
6.7227580913570040037e-06
6.7319901819797011171e-06
6.7515016175550538166e-06
6.8015819748904106316e-06
6.9361587837935308114e-06
7.0937987196712641534e-06
7.2057513974719153925e-06
7.257831066851535804e-06
7.2676524609841987318e-06
7.2668273909355505079e-06
7.2760200770141761237e-06
7.335992964565830753e-06
7.5251170997333158549e-06
7.7153467824404471111e-06
7.8507264993426821624e-06
7.9423159685604262961e-06
7.9998202944992515662e-06
8.0294075383296183927e-06
8.0378450738268607132e-06
8.0347182967650289387e-06
8.0306745615004122217e-06
8.0340342018775527574e-06
8.0731005172356741235e-06
8.1714028746969720257e-06
8.231928981086087245e-06
8.2484116831952781633e-06
8.2426347909420470315e-06
8.223388564909324099e-06
8.1680447354239498836e-06
8.1174926490706778167e-06
8.095309749315948288e-06
8.0898767384532332904e-06
8.1038697453937172984e-06
8.1983787582339576568e-06
8.4429774308107815949e-06
8.635404220534473557e-06
8.7398775878393877029e-06
8.7829498743010021389e-06
8.8124600852285666096e-06
8.8762014878068766244e-06
9.0448467282955428054e-06
9.2724291647667992993e-06
9.4567922657454745735e-06
9.5666776331476055452e-06
9.6035860937022327695e-06
9.5991185817347931256e-06
9.569420862149939118e-06
9.4901776131211310045e-06
9.4499429140552887685e-06
9.4466416083528024117e-06
9.4935886434846083332e-06
9.7040519678957313192e-06
9.9389298311746388605e-06
1.005189922370610921e-05
1.0082177088928705248e-05
1.0077228103619550214e-05
1.0067896856950882807e-05
1.0062661843676859786e-05
1.0063210536686556366e-05
1.0056237757640776209e-05
1.0034937754961411826e-05
9.9536185136910929186e-06
9.7992684157240689827e-06
9.6988709490556441106e-06
9.6552220037063388587e-06
9.6441689210464548308e-06
9.6444100689139545152e-06
9.6723725268908097266e-06
9.7177937090260736806e-06
9.7424128571253189936e-06
9.7510483891066291538e-06
9.7497463343646872355e-06
9.7439462911764736995e-06
9.7365043325195224882e-06
9.7248826637734742286e-06
9.6982385758906183176e-06
9.6530633042389859356e-06
9.6145674181171239016e-06
9.5850932565925156688e-06
9.5642273449091983172e-06
9.5510833080105641228e-06
9.5427847811823976286e-06
9.536608165674351903e-06
9.5325993340678764827e-06
9.5380000078199479193e-06
9.5734935241283497612e-06
9.6276039959712555544e-06
9.6718562281404767356e-06
9.7039873592654450488e-06
9.7236492323015270346e-06
9.7317606321135321292e-06
9.7321052543448679438e-06
9.7288360479097141568e-06
9.7259233228314890732e-06
9.7273275771884313765e-06
9.7408788233038190013e-06
9.7646505919009176868e-06
9.7880778732996345467e-06
9.8099906778521431494e-06
9.8310474334455918353e-06
1.0464516292543641574e-05
1.0469132273543061546e-05
1.0475008769751145875e-05
1.0483255804279247543e-05
1.0494375638065582995e-05
1.0508392775776211457e-05
1.0525396152242491631e-05
1.054475901833856714e-05
1.0565966694307394848e-05
1.0588141390643084256e-05
1.0610733367083167967e-05
1.0632638984017442549e-05
1.0652680615685610673e-05
1.0669869972715964794e-05
1.0683385635860935881e-05
1.0692468762378265948e-05
1.0697137008749497134e-05
1.0697633474835163429e-05
1.0694559065394487927e-05
1.0689207786954645256e-05
1.0682601521776623248e-05
1.0675430856792977435e-05
1.0667602779642450101e-05
1.0658714853709189875e-05
1.0649851347422342591e-05
1.0641181600390572007e-05
1.063238914062930571e-05
1.0622784040474287506e-05
1.0610572954051949841e-05
1.05963705829669077e-05
1.0581144091034349055e-05
1.0565696316207933133e-05
1.0550124328091289988e-05
1.0534990128688120792e-05
1.0520089044770965938e-05
1.0505804880326782963e-05
1.0491842758655621671e-05
1.0478534288281186562e-05
1.0465479461915945785e-05
1.0452916756823516471e-05
1.044043708857655488e-05
1.0428320655123153327e-05
1.0416215869569249523e-05
1.0404347092452697395e-05
1.0392357234296483869e-05
1.0380483241116470052e-05
1.0368490652261363338e-05
1.0356711803460026157e-05
1.0344946338586623682e-05
1.0333442003176895245e-05
1.0321922667162052197e-05
1.031054907392054803e-05
1.0299078193949336087e-05
1.0287711343569624521e-05
1.0276317060919498974e-05
1.0265074435421320007e-05
1.0253767778946842849e-05
1.0242425666536010185e-05
1.0230818499441067662e-05
1.0219021965149991605e-05
1.0206991815973917126e-05
1.0194924078222549326e-05
1.0182762037648814934e-05
1.0170588638314949879e-05
1.0158244465233399334e-05
1.0145846348923648252e-05
1.0133276245633897588e-05
1.0120802637463743634e-05
1.0108288680722920464e-05
1.0095990219426748512e-05
1.0083584466408735414e-05
1.007121921118243199e-05
1.0058592704195179615e-05
1.0045938971108077007e-05
1.0033141721577223054e-05
1.0020434861444216219e-05
1.0007729165033268638e-05
9.9951780078168658502e-06
9.9827143693670397835e-06
9.9704295012148613894e-06
9.9582231190376145245e-06
9.9460470573223206655e-06
9.9337253058187649854e-06
9.9212945350755116794e-06
9.9086529957955760681e-06
9.8960525512490814059e-06
9.8833293470970358158e-06
9.870727973621676375e-06
9.8579892498532753291e-06
9.8453143141005644486e-06
9.832578200832858069e-06
9.8198697882453107839e-06
9.8072356191331497944e-06
9.7945910768057032703e-06
9.7820612428358509724e-06
9.7695381978180336971e-06
9.7571280757459789775e-06
9.7447675398688952389e-06
9.7324857880395294397e-06
9.7201743085598516105e-06
9.7079258118651734033e-06
9.6954845501074163067e-06
9.6831147577605404487e-06
9.6704251488145559506e-06
9.6578498686493889711e-06
9.6450752666265105129e-06
9.6325722694275957785e-06
9.6200365261626023203e-06
9.607790069562379922e-06
9.595362461517814695e-06
9.5831324959195817646e-06
9.5705634870535652068e-06
9.5582643189656056821e-06
9.5456525030110962466e-06
9.5333611937124616555e-06
9.5207130089937152618e-06
9.5084167505446585717e-06
9.4957359112425325558e-06
9.4836172852714673362e-06
9.4712037799671755685e-06
9.4594209605964105344e-06
9.4473756025840653985e-06
9.4357906479104867206e-06
9.4238669948287497551e-06
9.4122643066856591745e-06
9.400140670380210584e-06
9.3883277869821619819e-06
9.3759208217748406705e-06
9.3639062954486004055e-06
9.3514368149327262934e-06
9.3394428645776937848e-06
9.3270332578866440822e-06
9.3151808024841833104e-06
9.3028005707329988646e-06
9.2910663890657634446e-06
9.2787830120501636164e-06
9.267183372861099842e-06
9.2550509024760652365e-06
9.2435855556449852136e-06
9.2314733754193500486e-06
9.2199872455995841581e-06
9.207817548002495233e-06
9.1962267674789534489e-06
9.1840612635143375304e-06
9.1724760847453245318e-06
9.1603555570351053144e-06
9.1488796389398497792e-06
9.1368551416538420319e-06
9.125454681674926392e-06
9.113384916257644323e-06
9.1018572448826485236e-06
9.0895659068094407406e-06
9.0779354519427458709e-06
9.0656690690086403771e-06
9.0542399960539173427e-06
9.0422143288518439869e-06
9.0310054416527474715e-06
9.0190841387643723003e-06
9.0078450654810053035e-06
8.995780087825974643e-06
8.9844581448393426439e-06
8.9724290316303481754e-06
8.9613178588396038882e-06
8.9496913004702712517e-06
8.9389172761878961208e-06
8.9275402440898502372e-06
8.9168406087341918931e-06
8.905313450191877078e-06
8.8943619410141435756e-06
8.8825342187435089099e-06
8.8712597947791633043e-06
8.8592575813495088769e-06
8.8479723609600622236e-06
8.8360862912308896591e-06
8.8250065465682659603e-06
8.8133247471091614268e-06
8.8023878189780167011e-06
8.7907583266403793471e-06
8.7798834107111487022e-06
8.768285598077506937e-06
8.75749957336842084e-06
8.7459565146763331567e-06
8.735360492424162424e-06
8.7240006427920412715e-06
8.7136659467675939929e-06
8.702547932693736844e-06
8.6924052970604773444e-06
8.6814115645619077102e-06
8.6712452663819692631e-06
8.6602603789888152124e-06
8.6499980550012049219e-06
8.6390147702620057166e-06
8.6288143539898996126e-06
8.6178782425330011552e-06
8.6077921803107077724e-06
8.5968599032053891179e-06
8.5867096088160319717e-06
8.575659080291677186e-06
8.5653603706295591461e-06
8.5542173695360583426e-06
8.5438649891308416045e-06
8.5328222675251386717e-06
8.5225643904079583185e-06
8.5116935301020575178e-06
8.5015771227938213513e-06
8.490811553482444519e-06
8.4808234572762437441e-06
8.4700970085227698508e-06
8.4602764779120133215e-06
8.4496326640328092597e-06
8.439950167323776489e-06
8.4294593877726021412e-06
8.4198419399191654598e-06
8.4094597695695845322e-06
8.3999007345333268293e-06
8.3895561100147039973e-06
8.3800483363826812528e-06
8.3697033959465510838e-06
8.3602236843855295446e-06
8.3499033506263926842e-06
8.3403828448872380376e-06
8.3301077658123903421e-06
8.3205401536537676281e-06
8.3101788314147340575e-06
8.3006005988032858519e-06
8.2901237327689379392e-06
8.2805632115124604674e-06
8.2701054131121876811e-06
8.2606013413714398757e-06
8.2504287680706840386e-06
8.2411672703019079933e-06
8.2312873859454867108e-06
8.2223490887664201979e-06
8.2127274531901916203e-06
8.2039536026018996753e-06
8.1944859108313297886e-06
8.1859194529936430139e-06
8.1765223021886776375e-06
8.1680553151958395147e-06
8.1587237251202811164e-06
8.1502375106467107434e-06
8.1408761064714498494e-06
8.1323252632558140071e-06
8.1228444785957870471e-06
8.1141976070171435898e-06
8.1045401026288186946e-06
8.0958215195852958293e-06
8.0861090058448034711e-06
8.0773987489546172073e-06
8.0678107266608477119e-06
8.0592228746972186817e-06
8.0498679138013310374e-06
8.0415179648542076856e-06
8.0324155196745851138e-06
5.2571813864150500232e-07
5.9213648162699739891e-07
7.1266742023503094333e-07
8.752827845165414707e-07
9.7853643179754901446e-07
1.0218801566940743869e-06
1.0581443171271081072e-06
1.136151992521649627e-06
1.2770600772591937129e-06
1.3715739113634639999e-06
1.4180564160050835769e-06
1.4737920984528362057e-06
1.5885988665631268131e-06
1.7221220439602391298e-06
1.8167525193800523987e-06
1.8643125567544824252e-06
1.9007320392248494871e-06
1.973074340547122184e-06
2.1197516020364596864e-06
2.2622010840708130485e-06
2.358188732491638597e-06
2.4052618013610786057e-06
2.4276791659069674959e-06
2.4587927475468030936e-06
2.5333248555633988943e-06
2.7218059244603893293e-06
2.9162778539660046068e-06
3.059317133671813889e-06
3.1565421814888576452e-06
3.2274926447315417121e-06
3.2827122353254969203e-06
3.326321547356738669e-06
3.3739796794710620091e-06
3.4357885615988600273e-06
3.5013823476995349384e-06
3.5533125959347287922e-06
3.5867631617718835452e-06
3.6097705310178216565e-06
3.6311734234824474201e-06
3.6536312485054922241e-06
3.681164356899627223e-06
3.7288074613127076736e-06
3.8216967483917949159e-06
3.9723498908931221171e-06
4.162722891161198946e-06
4.3495076507430554581e-06
4.4918136526350763973e-06
4.5747097918510597978e-06
4.6103663229264926402e-06
4.6241979498633728414e-06
4.6411373807599986033e-06
4.6755962517368989954e-06
4.7303548600066498475e-06
4.8006800877319075337e-06
4.8782528066218565024e-06
4.9529267091138359883e-06
5.0142382225373587025e-06
5.0546876582010762864e-06
5.0745491549527499411e-06
5.0856568540164602283e-06
5.1074241013531903761e-06
5.1695388550668895921e-06
5.3631184889900990271e-06
5.6232763330109847776e-06
5.8099857821339080208e-06
5.9144858877160477983e-06
5.9562644251893559732e-06
5.9655767517606323572e-06
5.9649030062408508028e-06
5.9640272825705415506e-06
5.966563342909048444e-06
5.9798033829665159412e-06
6.0287451344092863332e-06
6.1410433752896747376e-06
6.2480657839238948537e-06
6.3289821707492101727e-06
6.3751529298060647145e-06
6.3906024965751438531e-06
6.39196401935409872e-06
6.3965050518743568359e-06
6.4232491681130037515e-06
6.5383095127149334249e-06
6.7432589067848388068e-06
6.8908233283338199998e-06
6.9804902263592387757e-06
7.0293290123520577853e-06
7.0542349124971242272e-06
7.0668777072991590884e-06
7.0735181401438874615e-06
7.0790376022771865912e-06
7.0921443392450019978e-06
7.1294075004084108885e-06
7.2498136002060888553e-06
7.4415244749402365121e-06
7.5847352530256221842e-06
7.6595543259901159957e-06
7.6800473927297681392e-06
7.679115113264180223e-06
7.6812759617393979133e-06
7.7092269724462125433e-06
7.831338915402847719e-06
8.0217917359715563074e-06
8.1665684528697175419e-06
8.2663150713130609297e-06
8.3279800335367677684e-06
8.3584140171310764559e-06
8.3666693504239110523e-06
8.3647838319653222071e-06
8.3645837551523913626e-06
8.3768127315818452614e-06
8.4381588923700741079e-06
8.5487795848463187426e-06
8.620178642922946043e-06
8.6476457070601477095e-06
8.6469063606818127654e-06
8.6359184184079813401e-06
8.602254671500478094e-06
8.5524550468339781011e-06
8.5258574765513865624e-06
8.51708644618678719e-06
8.5218170057156378548e-06
8.5832713049613194319e-06
8.8079984246108932822e-06
9.0380181015917626566e-06
9.1609244883033383062e-06
9.214453598821815145e-06
9.2688153256390106479e-06
9.3886545011405443797e-06
9.5746736143291826199e-06
9.7774711355756952505e-06
9.9469981359087650496e-06
1.0049518858031070538e-05
1.0083024730546710204e-05
1.0076999779108264765e-05
1.0043716650368241769e-05
9.956800636447614864e-06
9.9120327600154045292e-06
9.9075973085331113066e-06
9.9534009305061572984e-06
1.0163016186754719901e-05
1.0390360716878869405e-05
1.0498867413787416045e-05
1.0541118194739758238e-05
1.0570910778267344571e-05
1.06123693111773708e-05
1.0655281485765728729e-05
1.0678727430889973821e-05
1.0677505972225986597e-05
1.0660624948396892026e-05
1.0591467678632649762e-05
1.042231699564422114e-05
1.0301057134933964019e-05
1.0247113940591062836e-05
1.0232927473862272683e-05
1.023208391388043339e-05
1.0257682970380701406e-05
1.0297073368691333904e-05
1.0315864043777702344e-05
1.0319679297392820241e-05
1.0315143502964365827e-05
1.0307859470947670373e-05
1.0297909262432871998e-05
1.0277732523097824898e-05
1.0232101665619166946e-05
1.0183691759015409936e-05
1.0146242729375586097e-05
1.0119117750033963942e-05
1.010080739931177099e-05
1.0089351677940933599e-05
1.0081722034638687893e-05
1.0075555987893192267e-05
1.0072808518352587757e-05
1.0083618480850455403e-05
1.0126739019037305178e-05
1.0169980693877077405e-05
1.0198280836941832648e-05
1.0211691132030172597e-05
1.0214447650273382253e-05
1.0213341221385048932e-05
1.0214322941872532743e-05
1.0221961192457154234e-05
1.0236380750697268835e-05
1.0256393379574928253e-05
1.0278270971290441843e-05
1.0299239141541568306e-05
1.0317827505464194232e-05
1.0334252880610794248e-05
1.0351354529905949404e-05
1.0371882243009419668e-05
1.1005934677667563029e-05
1.1012037716200626317e-05
1.1018214880448439996e-05
1.1025671335997547362e-05
1.1035501873110366663e-05
1.1048437989677744537e-05
1.1064295006241223107e-05
1.1083082785070645456e-05
1.1104183495301656677e-05
1.1127108915370260116e-05
1.1150842844407966661e-05
1.1174476362914283897e-05
1.1197421231853159723e-05
1.1218087068464442882e-05
1.1235857006086808561e-05
1.1249914711508363937e-05
1.1259685233718571152e-05
1.1264985916157485322e-05
1.1266269903278595713e-05
1.1263913946694235229e-05
1.1258938026722377205e-05
1.1252298734856376245e-05
1.1244956694956117815e-05
1.1237054958861076581e-05
1.1228349946365627116e-05
1.1219318712824746239e-05
1.1210264086705257005e-05
1.1200872103848992037e-05
1.1190327937461546821e-05
1.1176543363101407969e-05
1.1160586297574881344e-05
1.1144012427985624291e-05
1.1127325517504399105e-05
1.111074528728329593e-05
1.109449270472019404e-05
1.1078627342275852778e-05
1.1063275248554916292e-05
1.1048435218950703452e-05
1.1034149277158764336e-05
1.1020301356822349154e-05
1.1006850925708284064e-05
1.0993658507832324882e-05
1.098068018466601848e-05
1.0967781700645709678e-05
1.0954896763643041303e-05
1.0941971738125052754e-05
1.0929021588301326734e-05
1.0916132666593226399e-05
1.0903360651257988621e-05
1.0890792041196254372e-05
1.0878423382758424206e-05
1.0866218905146304301e-05
1.0854059761302646583e-05
1.0841892858865186179e-05
1.0829672799149606298e-05
1.0817496627703545486e-05
1.0805365926106702627e-05
1.0793334370760668215e-05
1.0781243567757833144e-05
1.0769072143237277863e-05
1.0756691672611057333e-05
1.0744229930223609415e-05
1.0731627042283618323e-05
1.0718990634881747642e-05
1.0706173717508675827e-05
1.0693215115822355749e-05
1.0680037458322030446e-05
1.0666770146529653095e-05
1.065350056430748024e-05
1.0640374699107436421e-05
1.0627395942355430259e-05
1.0614478218571091794e-05
1.0601458354742682269e-05
1.0588274556638736898e-05
1.0574880526083238824e-05
1.0561451338501970249e-05
1.0547976759303868551e-05
1.0534671975764543583e-05
1.0521420169422874815e-05
1.0508380343570198441e-05
1.0495329981768193169e-05
1.0482384170176716238e-05
1.0469280959886867146e-05
1.0456115576657400376e-05
1.0442754048315699723e-05
1.0429335845768943013e-05
1.0415860863007849981e-05
1.0402435588602356101e-05
1.0389036546818546577e-05
1.0375741618337927624e-05
1.0362415849156853865e-05
1.0349184455356100266e-05
1.0335779340994999669e-05
1.0322515777116687057e-05
1.0309073064150908047e-05
1.029589210871114486e-05
1.0282613536432605561e-05
1.0269609606131503785e-05
1.0256508939647939016e-05
1.0243632714289344272e-05
1.0230566175639390177e-05
1.0217702642441811191e-05
1.0204489292795188598e-05
1.0191482134477067962e-05
1.017803819961059045e-05
1.0164904077196877712e-05
1.0151461078553277446e-05
1.0138451379647285978e-05
1.012523736343365055e-05
1.0112417298347744943e-05
1.0099269069140104699e-05
1.0086445444856325532e-05
1.0073166620808033861e-05
1.006030727249673333e-05
1.004700998191033024e-05
1.0034210312848039782e-05
1.0020897779149141058e-05
1.0008083876984679513e-05
9.9947212608305249472e-06
9.982036839773238387e-06
9.9689382891450940404e-06
9.956602813582561765e-06
9.9438453621591341955e-06
9.9316733353683954552e-06
9.9189692859864542456e-06
9.9067415721387380473e-06
9.8938669167374540905e-06
9.8814752513752807767e-06
9.8684093426519185277e-06
9.8559081050677016663e-06
9.8428555088452162654e-06
9.8304363454867160993e-06
9.8174394342017030235e-06
9.805109813998308228e-06
9.7920876834856117408e-06
9.7798442122097285566e-06
9.7669454173791941346e-06
9.7549072012258932602e-06
9.7422070695950514438e-06
9.7302932714369526199e-06
9.7175364097740601769e-06
9.7054875718155728657e-06
9.6925589885787454789e-06
9.6803380323910143243e-06
9.6673834758400113156e-06
9.6551993126427755571e-06
9.642330738538919103e-06
9.6303262899747018905e-06
9.6176112657552735856e-06
9.6057073333993044789e-06
9.5929819609522523188e-06
9.5809346475162877969e-06
9.5679449311694556631e-06
9.5557406000761124163e-06
9.5427084265363742879e-06
9.5306940678181015263e-06
9.5179447511461184606e-06
9.5062239618490494426e-06
9.4936542791829634614e-06
9.4819378481463273552e-06
9.4692476446371715774e-06
9.4574402902858326525e-06
9.4447798004915046007e-06
9.4331985273435015141e-06
9.4209067739840123478e-06
9.4096248137466694856e-06
9.3975214371504618141e-06
9.3862490246499198876e-06
9.3739551430680548305e-06
9.3624315910509137351e-06
9.3498541708598701831e-06
9.33807734796440598e-06
9.3253761727584054213e-06
9.3136383008131335093e-06
9.3011081413886436743e-06
9.2895961272696741097e-06
9.2772779561599293151e-06
9.2658929179003046662e-06
9.2535799637372397552e-06
9.2421953731392880553e-06
9.2298271777206208308e-06
9.2184505897391981716e-06
9.2061196507641869437e-06
9.1949223612575166034e-06
9.1828286380034045453e-06
9.1719830014267200372e-06
9.1601893499201312465e-06
9.1495615024450666156e-06
9.1379128112967497258e-06
9.1273025268452286638e-06
9.115673141187445537e-06
9.1050018647533282885e-06
9.0933494541590260615e-06
9.0826849145729233423e-06
9.0710193256480527976e-06
9.0604086417601070443e-06
9.0487377596571160225e-06
9.0380746469245081437e-06
9.0263046612920943889e-06
9.0155128695115599425e-06
9.0036428699842887527e-06
8.9928127960456643344e-06
8.9810457147476654863e-06
8.9703359472892443501e-06
8.9587375737560210703e-06
8.9481682599502687859e-06
8.9366645539826988049e-06
8.9261838086321151756e-06
8.9147142319692945501e-06
8.9043751260280389206e-06
8.8929921004777239956e-06
8.882790596832447125e-06
8.8715633487351554931e-06
8.8614786406022423386e-06
8.8503936793510896975e-06
8.8403727350538136747e-06
8.8293476661808985078e-06
8.8193985842796053103e-06
8.8083761863896504357e-06
8.7984529139382985176e-06
8.7874545601401581778e-06
8.7775261946947188155e-06
8.7665406338927906818e-06
8.7565476606616585414e-06
8.7454885950469474177e-06
8.7354717049231180026e-06
8.7243011569168632042e-06
8.7142838991828387105e-06
8.703128674618467234e-06
8.6931514410391688989e-06
8.6822075215581457247e-06
8.6724468491728719894e-06
8.6618085987193476803e-06
8.6523635979491914007e-06
8.6420108491131960877e-06
8.6327941614711307949e-06
8.6226074139156586392e-06
8.6135818698703511072e-06
8.603426690487672989e-06
8.5944650982494264965e-06
8.5843586238795004242e-06
8.5753560423932423341e-06
8.5652895873087515503e-06
8.5562668216554336266e-06
8.5461419241297877271e-06
8.5370517852543952085e-06
8.5267295292568888931e-06
8.5175974921080951609e-06
8.5071707181687276136e-06
8.4980407418510234003e-06
8.4877285892906402043e-06
8.4786692985873106631e-06
8.4685985495211694594e-06
8.4597406309705539391e-06
8.4499100317186488503e-06
5.595899789549863134e-07
5.9517069164959001093e-07
6.7496644128986655486e-07
8.5120412460816926219e-07
9.8771714754687086781e-07
1.0445240840298304128e-06
1.0841620213100800353e-06
1.1689841555111017587e-06
1.3296786857582950495e-06
1.452283052402332165e-06
1.539994602804746924e-06
1.6291156712034780519e-06
1.7325508304828893334e-06
1.8283320603080379001e-06
1.8908646695681774472e-06
1.9231767143003948196e-06
1.9561362854177223601e-06
2.0261815512931897249e-06
2.205346011568776715e-06
2.4036635359063006137e-06
2.5242854266661655635e-06
2.5788939192281001046e-06
2.6004087344797999501e-06
2.6212505244613130869e-06
2.6670106266150003929e-06
2.8000790154648011679e-06
3.0503524227892822858e-06
3.2338263435356304052e-06
3.3299393194344428707e-06
3.3815580526578725248e-06
3.4410199142583876025e-06
3.5171533924279306678e-06
3.5823012246192164308e-06
3.6167714006759592409e-06
3.6399856932472404127e-06
3.6848481183046338314e-06
3.7531425243857728972e-06
3.8250286965764234182e-06
3.8806543528640747955e-06
3.913476396391716551e-06
3.931616739927456634e-06
3.9529845586708968808e-06
3.9989183311825606451e-06
4.1178207622497031105e-06
4.3382780773314512176e-06
4.5511508219894182857e-06
4.7210973114586984991e-06
4.8355746463916634358e-06
4.898914628995702401e-06
4.927339570589971574e-06
4.9402421740110025707e-06
4.956454599145391567e-06
4.9950107250725774634e-06
5.0669314809192073394e-06
5.1506116870262487177e-06
5.2272527627069729516e-06
5.2834501792512385615e-06
5.3149564631894246006e-06
5.3279391260666599065e-06
5.336653362158522314e-06
5.3577753375644419801e-06
5.4261788445103032008e-06
5.6398149307064038109e-06
5.8926356401118691532e-06
6.0636841488849916207e-06
6.1544945347681572176e-06
6.188584288221626272e-06
6.1968751712979257859e-06
6.2019700370901926205e-06
6.2162757715271030776e-06
6.2571309201972436081e-06
6.3451758783867982246e-06
6.4455850077896076022e-06
6.5458521493567586711e-06
6.6314268921173448527e-06
6.688730376947600409e-06
6.713835031566475848e-06
6.71641905900064753e-06
6.7132927517564692664e-06
6.716697295745002356e-06
6.7591514971558372694e-06
6.940379916890699256e-06
7.1934986071376059641e-06
7.3510054338392446071e-06
7.4285855171587155443e-06
7.4569975444637161426e-06
7.4627247805602634111e-06
7.460976716190070847e-06
7.4590133551645415767e-06
7.4607480338513668499e-06
7.4767354036661572345e-06
7.5452260652311419371e-06
7.7402294905736395726e-06
7.9253146132744951326e-06
8.0354539558921640524e-06
8.0762260408888605776e-06
8.0764010494518541442e-06
8.0639505933098971972e-06
8.0536330012007798694e-06
8.0595189567593779806e-06
8.1274811564992940996e-06
8.3115383023063067931e-06
8.4593055678464451294e-06
8.5523560814160675444e-06
8.6033524623849046939e-06
8.6246896334798295184e-06
8.6309819122713051415e-06
8.6385908844816696681e-06
8.6635103638605292977e-06
8.7491952322939666847e-06
8.8833922188163846271e-06
8.9827386465830883665e-06
9.0349927897079212254e-06
9.0477020855615426559e-06
9.041581894972531609e-06
9.0223870412048169144e-06
8.9725187686333430142e-06
8.9342544454435606388e-06
8.9188877709885007477e-06
8.9166341201460839555e-06
8.9477429426174955171e-06
9.1056505500359822733e-06
9.4306881352377138953e-06
9.664609853712989804e-06
9.790648723608847857e-06
9.8390276194713345256e-06
9.8592796459795262128e-06
9.8984260570731200519e-06
1.0014790252960327019e-05
1.0258360588275654675e-05
1.0460557758916015026e-05
1.0575231407257882664e-05
1.0608022114119328603e-05
1.0598591498776744374e-05
1.0547489735671782628e-05
1.0434186532398106163e-05
1.0384103256828738923e-05
1.0381124237737040798e-05
1.0441326273893618276e-05
1.0705028368155294585e-05
1.0990191013672172889e-05
1.1121143055770052192e-05
1.1155735788507950825e-05
1.1166429612609756773e-05
1.1199709437770396722e-05
1.125442721423004231e-05
1.1290247448536691174e-05
1.1294381586031307748e-05
1.1279654168854644759e-05
1.1218696640488026012e-05
1.1041480173878792496e-05
1.088868932306455233e-05
1.0811395216334392468e-05
1.0784232279145138998e-05
1.0776484660342400273e-05
1.0776434156234748071e-05
1.0797658457779810238e-05
1.0825454896306072622e-05
1.0845235686397490548e-05
1.0857283756076049319e-05
1.0860781540129812677e-05
1.0856397729126044072e-05
1.0848314962221742878e-05
1.0834179155071437328e-05
1.0798540348740057204e-05
1.0744989498448553344e-05
1.0705906092935196301e-05
1.0680712217078783201e-05
1.0665663068357722848e-05
1.0656315283072603008e-05
1.0648984962437925671e-05
1.0642225962904177484e-05
1.0637581736565077957e-05
1.0640087047814738243e-05
1.0659971910192294654e-05
1.0684070531710329296e-05
1.0705263081715295641e-05
1.0724159213013432165e-05
1.0742379399928848887e-05
1.0762547904254089555e-05
1.0786830684819675188e-05
1.0814993871498041931e-05
1.0844517273686839085e-05
1.087184144151153814e-05
1.0893772044055327784e-05
1.0909662781684932343e-05
1.0921170950611794545e-05
1.0931944165653077977e-05
1.0945444001695928311e-05
1.1618465837363645932e-05
1.16206050492382968e-05
1.1623395426601724258e-05
1.1628149443554768033e-05
1.1635661578809425109e-05
1.1646468978753723078e-05
1.1660511313891676937e-05
1.1677399456749020152e-05
1.1696533854908923038e-05
1.1717065807825565073e-05
1.1738279576425553105e-05
1.1759231946797884337e-05
1.1779243521274302753e-05
1.1797320898924102677e-05
1.1812948063768327893e-05
1.1825939012680089732e-05
1.1835909508434620883e-05
1.1842920253703284074e-05
1.1847067806801115226e-05
1.1848671474849537856e-05
1.1847906068935830888e-05
1.1845043135150002306e-05
1.1840350670079896546e-05
1.1834165762327394561e-05
1.1826829165358604759e-05
1.1818764253819305385e-05
1.1810157470239551197e-05
1.1801097237633232945e-05
1.1791949009593619249e-05
1.1782576165189375709e-05
1.177221191382152459e-05
1.1758664116765861382e-05
1.1739672691287946049e-05
1.1720627849156551778e-05
1.1701445811676473282e-05
1.1683030718259958261e-05
1.1664885537558632902e-05
1.1647782552986182586e-05
1.1631051917757322285e-05
1.1615310987780786217e-05
1.1599767343906599803e-05
1.1584998039226202077e-05
1.1570140579371417498e-05
1.1555749175000363735e-05
1.1541041343777211028e-05
1.1526726183072983649e-05
1.1512171621634620744e-05
1.1498139606134177607e-05
1.148399716044116138e-05
1.1470443094894367003e-05
1.1456825487591790541e-05
1.1443722888985464632e-05
1.1430395752137673893e-05
1.1417359847150433772e-05
1.1403987224768243451e-05
1.1390955261510089271e-05
1.1377731122163055067e-05