/*--------------------------------*- C++ -*----------------------------------*\
  =========                 |
  \\      /  F ield         | OpenFOAM: The Open Source CFD Toolbox
   \\    /   O peration     | Website:  https://openfoam.org
    \\  /    A nd           | Version:  12
     \\/     M anipulation  |
\*---------------------------------------------------------------------------*/
FoamFile
{
    format      ascii;
    class       volScalarField;
    location    "0.0067";
    object      p;
}
// * * * * * * * * * * * * * * * * * * * * * * * * * * * * * * * * * * * * * //

dimensions      [1 -1 -2 0 0 0 0];

internalField   nonuniform List<scalar> 
75962
(
99567.227159777699853
99743.992200814711396
99557.938452023270656
99280.219086607699865
99289.716013629018562
99513.696333326006425
99696.487238034504117
99665.031234004898579
99558.892077258613426
99450.486566127103288
99339.652484881837154
99312.098622028584941
99392.999321021081414
99499.257681840885198
99563.805204104239237
99546.154180051133153
99490.9367642726138
99466.730444411514327
99445.881549668934895
99392.188761880839593
99349.933885942285997
99388.796844647367834
99481.234724986934452
99534.105930866047856
99515.849117754696636
99497.443890975919203
99516.544810926803621
99551.6343921754451
99599.412724955342128
99660.91855516693613
99686.835667862891569
99653.072687273233896
99589.195734366541728
99543.456003582061385
99522.308246342203347
99503.160825061320793
99480.550717616744805
99459.701366263907403
99438.718595616010134
99431.665764272533124
99454.944165788067039
99489.595280265610199
99502.714140636817319
99490.893480269020074
99473.211269822946633
99449.934791236344608
99422.418339569630916
99411.380670215090504
99434.498256691440474
99462.667366013221908
99464.193858394879499
99444.84975310464506
99428.583579471029225
99423.13190645717259
99426.742719204310561
99443.793604000791674
99474.289891349515528
99501.691938944393769
99502.616009512741584
99469.114807859979919
99419.337703494325979
99392.744594189658528
99414.502996206545504
99460.784384789716569
99475.2589472989348
99430.798975841506035
99362.431275430892128
99326.257047930426779
99340.358301848988049
99374.467244964340352
99392.065656749342452
99392.979029025736963
99395.467827134285471
99407.90282127331011
99423.247164945569239
99434.912371615719167
99447.221317670875578
99461.29186583669798
99481.579113019513898
99502.368080698739504
99509.593943746178411
99493.772479778097477
99458.706205958515056
99424.86458202812355
99418.95936092469492
99454.816411178544513
99516.726202756355633
99567.610900604980998
99579.419430449939682
99550.401736125189927
99503.441865119893919
99463.032071011024527
99440.171497743329383
99429.585713437088998
99420.758163090446033
99405.580593787832186
99384.721583746897522
99365.615312591806287
99358.284260440414073
99365.583587565590278
99379.451831297774334
99390.071825748484116
99394.949988803477027
99400.169985321073909
99411.027255933513516
99421.879472777058254
99419.869599049023236
99397.211116155231139
99364.445697429095162
99343.745989061513683
99350.872489099769155
99378.773948715912411
99401.977115544621483
99400.007211806441774
99375.991378879058175
99355.204010151981493
99358.57085095893126
99385.417908321483992
99415.068929477696656
99426.298207370899036
99414.906630779194529
99394.883050538803218
99382.836253591274726
99386.744023130610003
99404.032272233060212
99426.321250241875532
99445.124829441425391
99453.547593553565093
99449.942483097649529
99437.958055064009386
99425.865890130808111
99421.157127166559803
99428.549193211249076
99446.464466358942445
99471.561098207195755
99497.734198475969606
99520.442260126015753
99538.620539738680236
99551.427995857913629
99555.8927401289111
99548.588490699257818
99526.319165092907497
99491.515832414195756
99452.576882667999598
99420.517041630751919
99404.256647593414527
99404.045862922081142
99412.767260385866393
99422.097755670474726
99427.122425890658633
99431.001538806172903
99440.081061253396911
99458.208054445349262
99481.472242576332064
99498.044345906848321
99497.874436924248585
99478.744575877804891
99447.129598701038049
99414.603835223024362
99392.48858908006514
99385.760357457998907
99391.900052222175873
99401.681147255454562
99404.649063281263807
99396.538070679409429
99383.091773468462634
99374.885830582075869
99380.452220992723596
99397.152359085608623
99413.284554645826574
99416.838715766498353
99403.591754789318657
99380.241405572567601
99359.337113116809633
99349.509712243321701
99350.362381902392372
99354.980696092505241
99356.237041961561772
99352.636863302817801
99350.05293935922964
99357.136530818606843
99378.75862726381456
99412.22440757372533
99448.622907543700421
99477.362859314132947
99490.880220083796303
99487.687487608738593
99472.402948692077189
99522.737360273036757
99520.698246216386906
99524.303934298659442
99532.409151932239183
99540.768180664555985
99544.359352927058353
99540.475524349807529
99530.551096377748763
99519.890120550815482
99515.042752863198984
99520.734610290644923
99537.092493822667166
99558.395087849465199
99575.614805209712358
99581.200802952225786
99572.883801825431874
99554.707437972392654
99534.548770204390166
99520.053098638105439
99515.091237810687744
99518.69993691900163
99526.052904230105923
99531.051631998692756
99529.131268640543567
99518.903041665544151
99502.082988121881499
99482.087099228781881
99462.293268818946672
99444.904690376890358
99430.787479999155039
99419.769616675213911
99411.69727833995421
99406.981647942520794
99406.422179289642372
99410.887944645466632
99420.598267191788182
99434.788332691416144
99451.784920628342661
99469.633065701578744
99486.303760721872095
99499.941427575133275
99508.824236241533072
99511.524339919458725
99507.389984840920079
99497.244349889762816
99483.554841010700329
99470.008773455236224
99459.884502652974334
99454.622562248958275
99453.486628279264551
99454.869072526897071
99457.7910605766956
99462.476602809008909
99470.296847843375872
99482.877906749607064
99499.838852580083767
99518.113138393964618
99534.08873276313534
99544.646495837791008
99548.30262595268141
99546.230242233257741
99541.190556406261749
99535.750669976696372
99530.988262214174028
99526.339226613214123
99520.725109510181937
99513.972189820502535
99507.414338447633781
99503.1766078996734
99502.719365568933426
99505.714846251707058
99509.957129766597063
99512.208620887584402
99509.745221589735593
99501.905773880775087
99490.737248602905311
99480.218807649507653
99474.468303916786681
99475.895879762174445
99484.142889115813887
99496.230888096499257
99507.803827317227842
99515.012725966647849
99516.016242925106781
99511.421979270933662
99503.586161441038712
99495.128232493967516
99487.682193399348762
99481.364902776374947
99475.117051833527512
99467.446742818050552
99457.39134241399006
99445.248704877318232
99432.512250810599653
99421.215228397762985
99413.075223710373393
99408.688852219624096
99407.312168537071557
99407.158549122730619
99406.173988330352586
99402.782411108710221
99396.359662000235403
99387.210669996900833
99376.346725179726491
99364.981512621990987
99354.236972237020382
99344.993643855079426
99337.881165853657876
99333.296022031659959
99331.252335865123314
99331.304034568980569
99332.499852634209674
99333.553921993501717
99333.226253739267122
99330.869406834026449
99326.683629685241613
99321.762885490883491
99317.944463052845094
99317.389161631799652
99321.987565044881194
99332.744991023326293
99349.342258441043668
99370.045508217634051
99392.085799828622839
99412.384850733971689
99428.353342508504284
99438.557514795786119
99443.078831014034222
99443.273797280940926
99441.175661597269936
99438.744773572019767
99437.416643400065368
99437.985663721497986
99440.611558065676945
99445.11756054504076
99451.100466295494698
99458.072407220810419
99465.393716360747931
99472.286744372628164
99477.958426716984832
99481.8685791863536
99484.088315583445365
99485.242997966546682
99486.278570793947438
99488.130013152243919
99491.253975250190706
99495.30118310409307
99499.078678740275791
99500.958793163081282
99499.620256612484809
99494.632485011970857
99486.724888503580587
99477.539642719828407
99469.013133824482793
99462.591392212707433
99458.764485945896013
99457.005505739405635
99456.172213969402947
99455.299538045728696
99454.224172906790045
99453.754555628649541
99455.267400537850335
99460.030463552699075
99468.471067502410733
99479.695577552280156
99491.458490738645196
99500.72501290863147
99504.668621901990264
99501.6636192616279
99491.772386670549167
99476.611735641927226
99458.675971864169696
99440.398715860981611
99423.369859606638784
99408.060994801460765
99394.021517199129448
99380.458791926386766
99366.892806626216043
99353.506269969511777
99341.147676445587422
99331.076012250588974
99324.556220700891572
99322.342121305598994
99324.314620736142388
99329.584977105347207
99336.837487335375044
99344.795501626926125
99352.548362014393206
99359.821376121137291
99366.882602104960824
99374.124660135625163
99381.723088740283856
99389.457221024684259
99396.728186197608011
99402.804927568082348
99407.033969390206039
99408.962048677567509
99408.435621004071436
99405.56615689166938
99400.651162770562223
99394.065112796219182
99386.180469468439696
99377.555501288952655
99368.974484260557801
99361.521944782347418
99356.339981392127811
99354.422251503157895
99356.291988560464233
99361.851150382513879
99370.307385200008866
99380.404393401826383
99390.786475166023592
99400.411262150490074
99408.840741547741345
99416.336904457144556
99423.633691215698491
99431.482240400393493
99440.218873970399727
99449.549312491508317
99458.46459511127614
99465.392811370023992
99468.568463676638203
99466.555798080866225
99458.702749486081302
99445.414448449344491
99428.115572186332429
99408.958127744917874
99390.309081255109049
99374.383997651617392
99362.975993419473525
99357.24320729097235
99357.644687815132784
99363.974223160970723
99375.591818954359042
99391.640293778880732
99411.173236833841656
99433.209803465695586
99456.6749287374696
99480.32611577467469
99502.771959482692182
99522.641820060103782
99538.812977916633827
99550.625876246704138
99558.007497249069274
99561.434248880847008
99561.818003964523086
99560.306597948685521
99557.963392221921822
99555.533580485120183
99553.481461953939288
99552.109680552835925
99551.632731219302514
99552.2667958860402
99554.292637599792215
99600.092760404630098
99744.175162842264399
99471.109430095675634
99436.175981284250156
99503.615433692219085
99456.851461802260019
99433.571301733638393
99465.073457225153106
99480.769572769509978
99428.741853175088181
99384.743695374592789
99353.484500736420159
99347.119078455769341
99405.658088124881033
99510.493796712980838
99548.392337669385597
99524.709812820714433
99493.284809243254131
99434.576964468491497
99352.317578983333078
99327.07473675723304
99406.901184591493802
99513.303585909030517
99546.421296257991344
99502.383867245807778
99455.664300253178226
99453.214685419152374
99491.825431781748193
99552.755787559319288
99599.041002087440575
99595.25708927802043
99547.024777077895124
99505.0932765337202
99492.792405244807014
99487.240502007582108
99470.363910833795671
99458.946068098302931
99462.315086036207504
99455.981026338791708
99436.961478486919077
99443.280949860592955
99473.03624028415652
99486.688364175599418
99471.42866962235712
99451.480932419493911
99439.897762189240893
99433.132121786562493
99436.034048546018312
99453.423190980189247
99465.143228234344861
99456.784290377196157
99442.445011162257288
99437.342916098466958
99435.373271814940381
99429.314261607345543
99431.489959267026279
99453.6954674871522
99484.165135749964975
99491.441650824606768
99461.180321507214103
99413.581168626449653
99388.777995855605695
99409.786188106736518
99452.683880094773485
99465.9796099497471
99425.39418280562677
99365.457690709969029
99336.983170876424992
99356.590630083534052
99392.496277620899491
99409.569982198532671
99404.245056015162845
99393.733527625809074
99397.124473841380677
99417.594856032883399
99445.791992450220278
99471.235764171535266
99489.507096353103407
99498.179397048515966
99495.811440995021258
99483.41563908731041
99463.697516421001637
99442.858870034193387
99433.720677535588038
99450.818795798550127
99497.441438961410313
99555.038408733642427
99593.460667271487182
99593.015279670478776
99557.345315537895658
99503.942242824792629
99452.985454546971596
99417.893503258688725
99400.555471455896623
99393.020223094019457
99382.057529898447683
99362.624446805129992
99344.032183890594752
99341.090904022406903
99358.907797163468786
99386.482668430457124
99407.687227495902334
99414.220690047906828
99411.446616650398937
99408.215483985390165
99404.515477327120607
99392.67390174974571
99368.820260885302559
99343.108070635367767
99333.976169402478263
99351.051428738079267
99383.144728029539692
99407.426262665772811
99410.154409034483251
99398.736070720260614
99389.865049834377714
99396.623617836870835
99414.925055360072292
99430.45419685759407
99431.921496262890287
99419.528800482454244
99402.994394479203038
99391.210079849639442
99390.30144483227923
99401.978425308232545
99422.747940614499385
99446.077479374085669
99461.959706718378584
99465.754306616436224
99459.784746263903799
99452.289076447385014
99449.338017769754515
99452.840915644279448
99462.742873133727699
99479.101412359595997
99500.27248068760673
99523.897985791627434
99545.346644493867643
99558.317422336593154
99560.163368453708244
99548.344546700725914
99523.654311433798284
99489.287215078555164
99454.900247512472561
99429.470618661231128
99419.098093860346125
99422.550053448518156
99430.884699839123641
99435.912242075355607
99435.245896830107085
99433.368603226161213
99437.891301839365042
99451.874042099356302
99469.777081351552624
99482.376963059301488
99481.832438915414969
99467.883179181517335
99446.704664795644931
99426.547763759546797
99412.943720165436389
99407.778018077107845
99408.118222952849464
99407.368852856132435
99399.5209051042184
99384.011541133382707
99366.733456673595356
99357.460612187001971
99362.935235547367483
99379.371142012794735
99395.485322430628003
99399.540357876045164
99388.256446953630075
99370.045657498267246
99356.722803211567225
99354.357616196401068
99359.498303142841905
99363.352912929971353
99359.395810750604142
99348.212048995032092
99338.217470762945595
99340.870514586073114
99362.759844959102338
99401.146003278452554
99445.183685343683464
99481.448951277401648
99500.312845820139046
99499.901741170324385
99486.089031090945355
99469.285957937769126
99550.896439662523335
99543.73102770470723
99540.097112810530234
99543.503394869156182
99553.138550578820286
99564.220063983419095
99570.552737920603249
99567.980196451972006
99556.774403434450505
99541.614124470783281
99529.26192430521769
99525.374493886512937
99531.341920192018733
99543.764148968592053
99556.086781501275254
99562.122877862508176
99559.046921010216465
99548.711399806823465
99536.137884184121503
99526.806625985787832
99523.80417708074674
99526.873991118816775
99532.677868030412355
99536.240812533564167
99533.319942829300999
99522.126451065065339
99503.692915683466708
99481.245157584591652
99458.83646157887415
99439.980199588651885
99426.694578243186697
99419.244036787233199
99416.624703539520851
99417.559205187586485
99421.434258483714075
99428.270851986861089
99438.414693140308373
99452.243363680696348
99469.474178572927485
99489.034781994545483
99508.720204507917515
99525.512992604592
99536.149839215504471
99538.117161754649715
99530.559597182102152
99515.062130772115779
99495.363821112085134
99476.436621112079592
99462.436348479910521
99455.655913910464733
99455.868267004203517
99460.811364458975731
99468.006341976273688
99476.047836298297625
99484.961774920331663
99495.156315017404268
99507.025133387185633
99519.772495574914501
99531.588805906270863
99540.485461313757696
99545.377724122721702
99546.461069428813062
99544.636686789279338
99540.657466703632963
99534.6844588919339
99526.567357968582655
99516.629516345667071
99506.356986936400062
99498.127974592964165
99494.056051738414681
99494.601956682643504
99497.960225216724211
99500.777770468805102
99499.772684354611556
99493.317900353082223
99482.32169133440766
99470.014162017047056
99460.609942932525882
99457.468063249616534
99461.550124826433603
99471.051436393274344
99482.157305473883753
99490.533812094057794
99493.075730167634902
99489.091875615689787
99480.363269423120073
99470.037555773204076
99460.999985540809575
99454.64510331072961
99450.512084352420061
99446.790125726271071
99441.323507435212377
99432.897502395047923
99421.958615441588336
99410.376610594074009
99400.528428573947167
99394.29582767681859
99392.137974168130313
99392.909516048355727
99394.372804040467599
99394.070799073946546
99390.416952346189646
99383.094221355495392
99372.820821458022692
99360.962485739553813
99348.968437458170229
99337.9841338571714
99328.716185769822914
99321.636232161312364
99317.121034186144243
99315.384598347940482
99316.260452237431309
99319.034875855315477
99322.440617184547591
99324.937988123841933
99325.296031523786951
99323.114494507899508
99319.117451088852249
99315.089278476429172
99313.346628957049688
99316.093727494793711
99324.548583686802885
99338.491261653092806
99356.257115339496522
99375.190345636714483
99392.608065588356112
99406.457581400929485
99415.885702401006711
99421.248835356367636
99423.854332522649202
99425.285355338754016
99426.899187141796574
99429.556890143474448
99433.746143153126468
99439.71521766531805
99447.530858689395245
99457.041217320060241
99467.711678604289773
99478.571258818454226
99488.328225828940049
99495.677199528901838
99499.7295843615575
99500.469976095235324
99498.862696461044834
99496.490477558007115
99494.98689693864435
99495.387097083512344
99497.666525245920639
99500.632747116542305
99502.404432161041768
99501.303253386024153
99496.643880661140429
99489.052740318147698
99480.238073389453348
99472.318253580655437
99466.928375642411993
99464.614184049438336
99464.747860109244357
99465.972925292197033
99466.982215558746248
99467.301763735726126
99467.596850989939412
99469.341000323314802
99473.993536753521767
99482.1517568314448
99492.990205267691636
99504.246801174071152
99512.912557603223831
99516.267058745695977
99512.858510886624572
99503.039298771851463
99488.719220223327284
99472.572209292076877
99457.064272520103259
99443.587169841877767
99432.142607350557228
99421.683137021798757
99410.821133775432827
99398.635132318435353
99385.219337228772929
99371.673783929873025
99359.666089696882409
99350.882325211554416
99346.550708650960587
99347.052404759218916
99351.79456743694027
99359.529080464257277
99368.818841789790895
99378.378861805453198
99387.359035397967091
99395.477883042272879
99402.845367180809262
99409.622249909240054
99415.818563060951419
99421.271604552894132
99425.732991302706068
99429.003060827089939
99430.897618996357778
99431.221675642911578
99429.738643148361007
99426.213457046760595
99420.531377205144963
99412.835459667840041
99403.626610642226296
99393.895007186612929
99385.044311147139524
99378.643982401656103
99376.01867550125462
99377.869017556018662
99384.034523947411799
99393.462086640633061
99404.507930629508337
99415.389742046885658
99424.760335190439946
99432.08923253636749
99437.800820492659113
99442.936591553356266
99448.700404370436445
99455.861067675141385
99464.350815933386912
99473.133937252656324
99480.500212894621654
99484.482991088196286
99483.372452056413749
99476.246048627654091
99463.285168973627151
99445.837341557140462
99426.070105061560753
99406.498115754249739
99389.430119301076047
99376.677722464301041
99369.442493252863642
99368.220004102389794
99372.876826911131502
99382.800298474481679
99397.109030548977898
99414.826415894043748
99434.952114059982705
99456.399701168309548
99477.95248181601346
99498.351485534149106
99516.370693632328766
99530.994321297126589
99541.62963426328497
99548.199706954037538
99551.159115693051717
99551.344601141478051
99549.735574201127747
99547.25873207654513
99544.606591872914578
99542.19768612732878
99540.320648351480486
99539.240112561441492
99539.277616630090051
99540.866439907913445
99329.569198045312078
99409.128569838241674
99350.351979424027377
99374.660114216254442
99428.550171905109892
99305.743462646831176
99178.626965133618796
99151.490637829774641
99180.24799984083802
99265.673905529198237
99354.101569350430509
99355.726698618731461
99282.203295786166564
99306.123752287428943
99389.200394763334771
99417.650145554958726
99432.523152988025686
99446.13794006149692
99419.101232509783586
99380.916802849358646
99388.04937848476402
99434.593980593170272
99481.192896512962761
99493.97783088280994
99468.281694428966148
99427.478658404477756
99401.430342948195175
99420.175808738582418
99478.72019160851778
99526.31645248013956
99531.167970316979336
99511.383228809179855
99503.053661038502469
99503.823989101845655
99487.987421747588087
99459.384965935649234
99452.865812806339818
99474.495437605553889
99481.355415174039081
99457.863912743981928
99444.880269435569062
99459.878784593034652
99466.828151685520425
99446.153663782708463
99427.604153174223029
99434.150618101688451
99448.524041194468737
99449.833782147063175
99443.827809021458961
99442.048401488558738
99447.406481759433518
99455.364095083918073
99459.784075644172844
99447.824805267577176
99420.266190278314753
99403.678303346066969
99420.365890087559819
99454.206905285274843
99469.305815752988565
99446.69122052732564
99405.371691506603383
99382.882395511056529
99401.477602159662638
99439.770312127438956
99454.533396751066903
99425.938560732465703
99381.079445056908298
99360.942879822789109
99377.834312778257299
99410.997913791812607
99432.219002676865784
99428.684093413146911
99411.707474589216872
99406.366406866334728
99426.094689861143706
99460.040972780130687
99482.713412848053849
99484.474185025697807
99472.115203260036651
99460.970821592592984
99458.240802308355342
99460.945435141140479
99465.265074335373356
99473.329970565449912
99492.00958851831092
99523.785402872832492
99557.730622260074597
99575.871058483258821
99566.223517549107783
99529.879569949116558
99478.048482348793186
99427.770126213115873
99394.637658295614528
99382.881649960298091
99379.0680803914438
99365.938861981514492
99342.324523398681777
99324.734046974030207
99329.368676095997216
99359.238720136665506
99398.656347065087175
99425.247711069750949
99427.616780468219076
99412.017589498194866
99391.837458600435639
99376.454588582506403
99361.92997442925116
99346.560356637462974
99333.034359650424449
99332.945275129735819
99351.354516539649921
99379.273718900294625
99403.604430795530789
99417.217430290620541
99423.503463474728051
99428.442918645698228
99435.770058537134901
99442.32097713186522
99443.135966137197101
99436.388402354015852
99424.694999582643504
99411.045510533484048
99398.979335308365989
99393.152690958362655
99398.523435149341822
99415.460629804452765
99439.171904935632483
99460.534911559341708
99473.038912426796742
99478.794068689981941
99481.687987987315864
99483.838761062637786
99484.673718064266723
99486.534404609003104
99493.17675544290978
99508.489056047095801
99529.761582412771531
99548.561245571545442
99557.422361740551423
99553.392667384832748
99537.30636836917256
99514.277150996902492
99488.945742325115134
99467.029562702737167
99453.216532906386419
99448.709873297077138
99450.992482141999062
99454.874527474967181
99454.706916282142629
99450.907104983503814
99447.626362713839626
99449.472219160830718
99456.225617709365906
99463.767899545273394
99468.116730026275036
99467.506264874609769
99462.771869199918001
99457.630287841835525
99452.61269754038949
99446.883456448806101
99438.983888768532779
99427.804696801307728
99412.973746345232939
99394.09750347067893
99372.171460229961667
99351.515022460516775
99339.513756137661403
99341.332670796648017
99354.900117570752627
99370.750291228468996
99378.175893342675408
99373.968572322148248
99364.663928264475544
99359.988715922721894
99364.536130148204393
99373.83567392641271
99378.251835349932662
99371.394856753948261
99355.249969956130371
99339.51666206853406
99335.701475685258629
99351.064865023770835
99384.624342827693908
99427.534619240221218
99466.970281744739623
99492.283260403419263
99500.165045106929028
99495.405967256272561
99487.207147294291644
99562.573426737944828
99554.011293936811853
99550.098984652780928
99553.817050180106889
99563.901357292328612
99575.466731649416033
99582.500350339469151
99580.692851161074941
99569.63512863406504
99552.950172532495344
99536.293730327786761
99524.752023802080657
99520.548640078457538
99522.689054786009365
99528.213807676496799
99533.455757179501234
99535.989914970792597
99535.559904156558332
99533.698942538583651
99532.341350436661742
99532.782020638100221
99535.04041466594208
99537.319478970850469
99536.524943350726971
99530.062363210730837
99516.762177058422822
99497.39085451819119
99474.711011018007412
99452.636493846439407
99435.087332195020281
99424.446833651192719
99421.192523128382163
99423.978871637111297
99430.47400850224949
99438.928742833959404
99448.578559736764873
99459.906726917630294
99473.979078619915526
99491.52553214612999
99511.983830470242538
99533.052949821081711
99551.000949756824411
99561.556506689958042
99561.602107968778
99550.368277212444809
99530.191991326588322
99505.650411708513275
99482.41465229113237
99465.700439841719344
99457.994669059466105
99459.041466348979156
99466.248020476734382
99476.048066445582663
99485.744898744567763
99494.156911603349727
99501.644978879296104
99509.293729744211305
99517.743933687437675
99526.84146474613226
99535.708568102869322
99543.270347696743556
99548.559218018403044
99550.54311286014854
99548.171092867691186
99540.816465954252635
99528.875079832578194
99514.191545517402119
99499.887927782561746
99489.26319877099013
99484.266085593757452
99484.392695356538752
99486.648793594402377
99487.042548966142931
99482.605874397500884
99472.848322730351356
99459.977298081852496
99447.877425700804451
99440.409825477443519
99439.885894679115154
99446.030508302035742
99456.070976121613057
99465.769890371957445
99471.105276692745974
99469.810934453111258
99462.23536892971606
99450.884461438225117
99439.060630828185822
99429.362885160313454
99422.75159369809262
99418.341492858831771
99414.116259086775244
99408.142224016555701
99399.698409747012192
99389.689272719144356
99380.192084573907778
99373.563173433532938
99371.32372512841539
99373.315295139065711
99377.733512150618481
99381.853549458130146
99383.043090018807561
99379.805202021656442
99372.142712108819978
99361.260539339040406
99348.840240612218622
99336.524680653441465
99325.570948490945739
99316.648009178490611
99310.22041752084624
99306.695174791908357
99306.391197895209189
99309.080381714476971
99313.868936943021254
99319.147633693413809
99323.085177089684294
99324.212749918457121
99322.091321374697145
99317.601240640040487
99312.807578763357014
99310.2031665857794
99311.891726224974263
99318.84656325384276
99330.559964688887703
99345.160105659917463
99360.177948349984945
99373.483178610957111
99384.019480751594529
99391.83284960812307
99397.840300269861473
99403.205572942984872
99408.9450843155646
99415.543265536020044
99423.096679345486336
99431.567766308144201
99441.162585742320516
99452.20689738218789
99464.880728423493565
99478.843429314176319
99493.005917807226069
99505.654909946300904
99514.907700680356356
99519.338474436168326
99518.679417098886915
99514.025739428790985
99507.521067958412459
99501.511626358245849
99497.737058971863007
99496.72364767716499
99497.675541543634608
99498.899095977336401
99498.663902912172489
99496.052588558377465
99491.361371200575377
99485.931463545624865
99481.518059852853185
99479.448574584312155
99479.993526449427009
99482.34935871232301
99485.009029032618855
99486.555531927937409
99486.475166253105272
99485.496736735251034
99485.261607993073994
99487.428475868538953
99492.802408309231396
99500.802657963824458
99509.464420495205559
99516.110631523784832
99518.343322432032437
99514.977445319804247
99506.515903247927781
99494.904852584848413
99482.639743345236639
99471.810971947314101
99463.345755824877415
99456.755297101655742
99450.527312385791447
99442.924183359005838
99432.813105207576882
99420.240153675360489
99406.523860706467531
99393.690574701482547
99383.76361021293269
99378.204124151467113
99377.624260172029608
99381.636291587361484
99389.074565737668308
99398.426786384923616
99408.268182677595178
99417.453272700324305
99425.327944246149855
99431.795213515753858
99437.066082803852623
99441.410673453996424
99445.026533076146734
99448.006738279626006
99450.385946724185487
99452.119555051162024
99452.981500239533489
99452.534514531638706
99450.223630642081844
99445.638235101112514
99438.791853318340145
99430.24048072626465
99421.107992183693568
99412.950257157455781
99407.398704606064712
99405.757545119980932
99408.58043909681146
99415.474261253257282
99425.158476591110229
99435.807552546000807
99445.532553980025114
99452.945833496749401
99457.634159630499198
99460.213250032829819
99462.071935569125344
99464.728609394820523
99469.290383362807916
99475.959346179850399
99483.885013933293521
99491.322409646978485
99496.160349261728697
99496.544693410134641
99491.351044838054804
99480.496639394143131
99464.979790802201023
99446.705332003359217
99428.06100500645698
99411.370437137331464
99398.462749869315303
99390.49740761888097
99387.985239454399562
99390.891254581001704
99398.7270967738732
99410.658676036895486
99425.689728695695521
99442.808812728457269
99461.025616969738621
99479.299021360347979
99496.525763965139049
99511.674862810745253
99523.913387539301766
99532.735007051131106
99538.061888646901934
99540.256569157238118
99540.006514232096379
99538.124941435016808
99535.390082120022271
99532.416225602239138
99529.602735693988507
99527.222102310726768
99525.6023595767183
99525.231404515870963
99526.692665021691937
99530.517667527819867
98962.155957350332756
98836.171214775007684
99014.624000355397584
99283.139020342263393
99389.662971110039507
99283.298429314891109
99235.116046550319879
99222.93860637016769