/*--------------------------------*- C++ -*----------------------------------*\
  =========                 |
  \\      /  F ield         | OpenFOAM: The Open Source CFD Toolbox
   \\    /   O peration     | Website:  https://openfoam.org
    \\  /    A nd           | Version:  12
     \\/     M anipulation  |
\*---------------------------------------------------------------------------*/
FoamFile
{
    format      ascii;
    class       volScalarField;
    location    "0.0067";
    object      p_0;
}
// * * * * * * * * * * * * * * * * * * * * * * * * * * * * * * * * * * * * * //

dimensions      [1 -1 -2 0 0 0 0];

internalField   nonuniform List<scalar> 
75962
(
99569.032651650006301
99740.945591606126982
99546.989234746448346
99274.810571993672056
99293.624233486800222
99522.049970401727478
99700.007996601765626
99662.783141187028377
99555.103521285083843
99446.126971838995814
99336.580348671443062
99312.744447075601784
99395.907900461548707
99501.631962096129428
99563.973997629786027
99543.999054828513181
99488.637809872889193
99465.044703066188958
99443.564146024335059
99389.658792235321016
99349.254547853386612
99390.920390695479
99483.783414264209569
99534.488155923478189
99514.796980075712781
99497.137879708825494
99517.045076745926053
99552.397355676919688
99600.775195241643814
99661.738989176752511
99685.98169851815328
99650.642400138793164
99586.697828465883504
99542.010255604356644
99521.525124191030045
99502.442123986736988
99479.932418308148044
99459.113968558231136
99438.492659149706014
99432.393318154761801
99456.665782345589832
99491.237851371435681
99503.525657845064416
99491.184102153871208
99473.336557048605755
99449.82969553656585
99422.57980075883097
99412.616791380685754
99436.557819499939797
99464.270219145080773
99464.833769764300087
99445.219494252232835
99429.318397203649511
99424.272981830872595
99428.29075031283719
99445.793395427288488
99476.403748236858519
99503.170746488962322
99502.877973539609229
99468.3681976103544
99418.647664174393867
99393.266418180966866
99416.334049171273364
99462.423838166549103
99475.199825643037912
99429.206290780377458
99361.06470779972733
99326.367211157470592
99341.652445354979136
99375.668085829936899
99392.542982262923033
99393.192387370712822
99395.889208233274985
99408.491597266343888
99423.831717799039325
99435.425404031877406
99447.785313907457748
99461.989024555397918
99482.310830478832941
99502.67569912680483
99509.06420995213557
99492.430683789381874
99457.128549722838216
99423.981022181396838
99419.504277725776774
99456.680716727685649
99518.90419571698294
99568.865312520079897
99579.158195169118699
99549.045839023121516
99501.776510293377214
99461.720721781777684
99439.348701790935593
99429.001801424383302
99420.145083854353288
99404.780155795917381
99383.827527873654617
99364.862311380042229
99357.875200378199224
99365.44724041876907
99379.293322536730557
99389.70240941666998
99394.451861211011419
99399.752185482589994
99410.675298655667575
99421.247244637736003
99418.541119269400951
99395.309672992225387
99362.59069928934332
99342.654489789318177
99350.689422133451444
99378.864201343487366
99401.431909207662102
99398.573313056229381
99374.27479463351483
99354.121735542677925
99358.530894810144673
99385.993500529046287
99415.384837807665463
99425.855404393427307
99413.869743315182859
99393.82565683372377
99382.199948515029973
99386.613697422595578
99404.204905124352081
99426.508814664266538
99445.040337481099414
99453.019520883070072
99449.022274678136455
99436.872257423281553
99424.938530614686897
99420.64116121880943
99428.503098211323959
99446.782514081642148
99472.061928364055348
99498.199110236600973
99520.793253635405563
99538.797579092381056
99551.372919609420933
99555.456653047032887
99547.662655326595996
99524.897967606142629
99489.835738935376867
99451.008414670912316
99419.49774871263071
99403.950604568904964
99404.294102001658757
99413.251585510646692
99422.533551425789483
99427.474377864564303
99431.508805406789179
99440.942593305211631
99459.418198694678722
99482.68890930438647
99498.814957633556332
99497.934019886670285
99478.198201523628086
99446.344403671799228
99414.054077237000456
99392.489382521016523
99386.351088308118051
99392.820417021735921
99402.514267191407271
99405.082844305725303
99396.614939287988818
99383.131442018653615
99375.266937645050348
99381.291217442849302
99398.136072850320488
99413.94227917875105
99416.842140551438206
99402.998302934676758
99379.439956486457959
99358.759455337189138
99349.312578948578448
99350.409112947105314
99355.01300056972832
99356.111319931878825
99352.46949624644185
99350.150721128055011
99357.758043003719649
99379.921301502588904
99413.671588502256782
99449.953429778892314
99478.219859716715291
99491.097716569027398
99487.349690015485976
99471.798983529777615
99522.744213973041042
99520.894453206186881
99524.723033805159503
99532.932335072546266
99541.18893215098069
99544.501112051468226
99540.292506566329394
99530.170035098897642
99519.55409753031563
99514.992283121973742
99521.08334561304946
99537.740968076788704
99559.041855862917146
99575.916161900517181
99580.955389697017381
99572.140580895851599
99553.727801751127117
99533.668964467928163
99519.514907299148035
99514.949179524846841
99518.818592635827372
99526.186750129258144
99530.963645588068175
99528.687847219887772
99518.113473798701307
99501.069510794739472
99481.008289802499348
99461.283158232938149
99444.04211606842
99430.091577868006425
99419.236569772343501
99411.325126116003958
99406.786815433457377
99406.425354137929389
99411.102866818619077
99421.006309106829576
99435.333772517537
99452.390058883538586
99470.213333960637101
99486.77598412016232
99500.226382057968294
99508.848564619664103
99511.232023997348733
99506.777685132256011
99496.378945505392039
99482.568414298817515
99469.054079113062471
99459.066165926225949
99453.953823215240845
99452.918152475409443
99454.350721470575081
99457.323113142134389
99462.104323599065538
99470.093358054873534
99482.869896168223931
99499.942341614121688
99518.169589677912882
99533.964731902626227
99544.251129058582592
99547.650040480919415
99545.426166361212381
99540.362943423679098
99534.978041366659454
99530.271470023159054
99525.6265216509928
99519.975210814285674
99513.202833170507802
99506.694877742862445
99502.574958648197935
99502.247505177074345
99505.30769398722623
99509.496502334353863
99511.580142492617597
99508.902986463188427
99500.912359072477557
99489.750521013120306
99479.428635622942238
99474.01319374475861
99475.804219979516347
99484.316434501553886
99496.481245947899879
99507.931348697049543
99514.887803639794583
99515.62508618614811
99510.854286344445427
99502.978873847823706
99494.592653622268699
99487.257196917023975
99481.014930973848095
99474.764869955426548
99467.019469516366371
99456.856968088526628
99444.630773183424026
99431.875178713962669
99420.63804870963213
99412.613545787215116
99408.3567768742505
99407.078208553532022
99406.961029688900453
99405.947147848797613
99402.47668333153706
99395.95393094017345
99386.714013125107158
99375.786182634110446
99364.3900030702207
99353.647905963167432
99344.44220899011998
99337.405796000282862
99332.928471885228646
99331.006428393404349
99331.165563524278696
99332.421679766775924
99333.470399651996559
99333.078942766413093
99330.631693977324176
99326.372850817278959
99321.441178653491079
99317.703295125931618
99317.320681949335267
99322.153275251752348
99333.15330886853917
99349.941855185330496
99370.733366830507293
99392.738124690993573
99412.888863661879441
99428.63859776238678
99438.608163710960071
99442.935667677214951
99443.014798163974774
99440.891277361937682
99438.505797867517686
99437.26831870249589
99437.94465614623914
99440.673486256127944
99445.265685733000282
99451.310867925916682
99458.317558242852101
99465.641328691577655
99472.50747749513539
99478.132318767296965
99481.999300521754776
99484.204761849774513
99485.386828711358248
99486.488307615800295
99488.424623149796389
99491.61653819316416
99495.677924951145542
99499.388792292069411
99501.125495739790495
99499.603874943495612
99494.448909029131755
99486.443232907069614
99477.260736093609012
99468.830018565684441
99462.55718872473517
99458.880942516509094
99457.231936488809879
99456.457444264378864
99455.617845534463413
99454.596364780765725
99454.241725770465564
99455.94007312861504
99460.927306284254882
99469.566104160621762
99480.884040043849382
99492.577112470869906
99501.596298063988797
99505.15616815687099
99501.712819610736915
99491.42088729266834
99475.966271617231541
99457.871334522569668
99439.554676939296769
99422.56348626432009
99407.321424077599659
99393.344286916180863
99379.829729969002074
99366.311283355942578
99352.993545099918265
99340.741778656447423
99330.815889105317183
99324.463425055902917
99322.409582667140057
99324.506587035983102
99329.848367571015842
99337.12072238442488
99345.06114449071174
99352.779261063973536
99360.022124521463411
99367.071085958683398
99374.317171177390264
99381.918419139154139
99389.63002421183046
99396.836172292940319
99402.801645496190758
99406.884608129694243
99408.652547149613383
99407.968610102820094
99404.956876143507543
99399.922363716148539
99393.250792730614194
99385.326071689327364
99376.715554112830432
99368.20887048462464
99360.891238198018982
99355.898013033947791
99354.203598535052151
99356.302458124861005
99362.060812929310487
99370.652845153657836
99380.803795154293766
99391.164965609743376
99400.723550363138202
99409.081882380298339
99416.5389206201653
99423.848339083371684
99431.755311307002557
99440.567591932544019
99449.947356512959232
99458.840781779465033
99465.649330021697097
99468.611094063249766
99466.324161246637232
99458.192826529033482
99444.683124788483838
99427.269481676194118
99408.131475309244706
99389.635283908603014
99373.970671142626088
99362.887652286633966
99357.5021765572601
99358.238427349482663
99364.867321874276968
99376.73864872957347
99392.990836892611696
99412.675225774568389
99434.805605797184398
99458.298185163308517
99481.902730984322261
99504.22889586086967
99523.920224316854728
99539.876883248827653
99551.467973295395495
99558.650246499208151
99561.92120158560283
99562.200628769787727
99560.633890710902051
99558.277327166229952
99555.868086848713574
99553.862086594934226
99552.558426212417544
99552.174837373837363
99552.928278572944691
99555.093788884580135
99603.788073263756814
99739.949160629403195
99463.687387096229941
99437.180429061307223
99503.237750957123353
99455.020647075623856
99433.267288805669523
99465.655924541468266
99479.826645912966342
99426.787559963588137
99383.067366955059697
99352.131118304416304
99347.010706757646403
99407.775125865082373
99512.366680995430215
99547.638241245920653
99522.672331512410892
99490.358241219000774
99430.542360923078377
99349.142294309232966
99327.246201148387627
99409.719739628839307
99515.238662867079256
99545.524403111121501
99500.073750272975303
99454.216510990067036
99453.154254931912874
99492.632487475508242
99553.694671114877565
99598.808899166047922
99593.384507392212981
99544.782880850281799
99503.990802783984691
99492.695356004929636
99487.178319079088396
99470.281743046813062
99459.414335211389698
99462.941842587810243
99456.127081803919282
99437.409193685918581
99444.782335252966732
99474.793864588398719
99487.654365898633841
99471.789873192246887
99451.91997387369338
99440.584423550593783
99434.065226774546318
99437.492470929049887
99455.085932391739334
99466.219436197658069
99457.344806777968188
99443.161512300401228
99438.399634241563035
99436.441105667036027
99430.380620817013551
99433.014016234548762
99455.69354345764441
99485.832183194565005
99491.991574649291579
99460.679081942987978
99413.12548990205687
99389.463134888123022
99411.623690172040369
99454.306355875640293
99466.006146036350401
99424.055609878967516
99364.366687853937037
99337.32554528224864
99358.034698366915109
99393.707609543271246
99409.919433377930545
99404.081157796652406
99393.747202245765948
99397.728538426672458
99418.659458476104192
99446.975170660822187
99472.211862985524931
99490.132468877345673
99498.2551614108379
99495.336318391302484
99482.590655170803075
99462.809918413884589
99442.338675659877481
99434.053825671318918
99452.256300560373347
99499.6300436759484
99556.994012204493629
99594.289316980764852
99592.440038647691836
99555.780366702136234
99502.023817910609068
99451.306257657706738
99416.783943428483326
99399.966432592831552
99392.561758183932398
99381.374203562227194
99361.733107929467224
99343.342543143298826
99340.975045897735981
99359.286662929414888
99386.854946147679584
99407.612516112087178
99413.656507988809608
99410.621388745930744
99407.329848133391351
99403.433725101887831
99391.199547534779413
99367.099582468668814
99341.68640860223968
99333.389496983989375
99351.225801996988594
99383.40033584991761
99407.074705846971483
99409.137611894082511
99397.573138521183864
99389.146529403704335
99396.495535623660544
99414.988730248645879
99430.204315199560369
99431.151471885706997
99418.412921593291685
99401.876265918792342
99390.359681230940623
99389.842215253374889
99401.925558646820718
99422.919848200996057
99446.172269589646021
99461.667127613080083
99465.021855563289137
99458.861094006933854
99451.449756781832548
99448.761191475816304
99452.535923130533774
99462.70622364206065
99479.311391290873871
99500.673221255216049
99524.343738456664141
99545.604052270355169
99558.217035648383899
99559.600399856368313
99547.298763149359729
99522.221754569065524
99487.751219633079018
99453.615962105046492
99428.748853633340332
99419.049038473123801
99422.922978990565753
99431.312171845682315
99436.17863493328332
99435.420738404398435
99433.710782533002202
99438.651172190744546
99453.002326687143068
99470.937147301665391
99483.18730338968453
99482.162824776067282
99467.821190347865922
99446.565137624304043
99426.59052490995964
99413.299423714386648
99408.413638646510663
99408.823542349986383
99407.885091259449837
99399.702472325603594
99383.9739380346291
99366.788763104283134
99357.933438849810045
99363.877803917319397
99380.459392819087952
99396.261006080836523
99399.69670165287971
99387.917249769583577
99369.63704339278047
99356.60461478579964
99354.575650575017789
99359.805845760100055
99363.456417157969554
99359.197885587782366
99347.903992791820201
99338.210211277662893
99341.521813627288793
99364.128696299361764
99402.937811969866743
99446.894396599600441
99482.620714338278049
99500.732363759263535
99499.675077403793694
99485.559782851734781
99468.885257593457936
99550.652930612675846
99543.492250043142121
99540.090573268797016
99543.789427385141607
99553.599090601972421
99564.612232351792045
99570.635236145055387
99567.653450402474846
99556.127820686539053
99540.889359655164299
99528.726976948528318
99525.189597423406667
99531.480867005797336
99544.029773634159938
99556.215818676733761
99561.935300293320324
99558.525718408956891
99548.01152483750775
99535.487013984107762
99526.384307908403571
99523.65991652860248
99526.916773008721066
99532.7140249239892
99536.057826699805446
99532.778495572827524
99521.21111138111155
99502.505067738049547
99479.95883055262675
99457.637879509769846
99439.005486737572937
99426.00646743872494
99418.829122375827865
99416.424806325609097
99417.520516871736618
99421.52773829245416
99428.492214912635973
99438.770238389508449
99452.732159271836281
99470.060426579628256
99489.643697640654864
99509.232264525635401
99525.786238473010599
99536.055004666312016
99537.578807686964865
99529.595144963415805
99513.792093348223716
99493.9831111531239
99475.152202825702261
99461.381740500408341
99454.879338714468759
99455.31390623653715
99460.382286885913345
99467.620812228036812
99475.681981988935149
99484.62622371155885
99494.862396152995643
99506.767105191771407
99519.497271402986371
99531.224568224308314
99539.979996631111135
99544.729391795321135
99545.706679277704097
99543.817830048574251
99539.790996105948579
99533.76207458175486
99525.583682929616771
99515.619262687730952
99505.403705808537779
99497.327299594049691
99493.457774330556276
99494.165109917084919
99497.558413852355443
99500.263071702866
99499.051641734520672
99492.401429709731019
99481.329671820058138
99469.131228337006178
99460.006487665363238
99457.224740946970996
99461.625793473038357
99471.297662266224506
99482.375725512203644
99490.549795313985669
99492.808746673472342
99488.582042949346942
99479.745568594938959
99469.473265178006841
99460.600320070792804
99454.429545694525586
99450.412114836479304
99446.695483455609065
99441.138449673118885
99432.585934246249963
99421.555268249649089
99409.965361688591656
99400.196227691194508
99394.095628512863186
99392.064856651311857
99392.90574263772578
99394.352385675272672
99393.958693622334977
99390.173899707835517
99382.723102337986347
99372.354314158816123
99360.448334126820555
99348.4502967842418
99337.491830686209141
99328.274951126848464
99321.272869491935126
99316.866549674698035
99315.259552263392834
99316.260511126281926
99319.116716370583163
99322.530941458360758
99324.953307302304893
99325.180241998299607
99322.864428906643298
99318.791114474035567
99314.788277548956103
99313.182808326135273
99316.148152600479079
99324.842083709372673
99338.976889955971274
99356.835327708453406
99375.743877887987765
99393.042424451487022
99406.724041696681525
99415.987646977970144
99421.229933686292497
99423.779000864335103
99425.215370776320924
99426.879999498676625
99429.612886361108394
99433.892091294561396
99439.956400052687968
99447.865274496463826
99457.450137671155971
99468.154345476941671
99478.989617889834335
99488.662419461208628
99495.884080829666345
99499.802620950285927
99500.447694740971201
99498.818463912626612
99496.504100720776478
99495.114069284973084
99495.634580941550666
99497.985085344902473
99500.931586735663586
99502.588092983729439
99501.314440318601555
99496.490761187989847
99488.806958799134009
99480.00916377271642
99472.211498017728445
99467.00510847728583
99464.875182332834811
99465.141306084493408
99466.429616137000266
99467.458378243958578
99467.806796247925377
99468.189059871569043
99470.096974961357773
99474.960528410651023
99483.305991464934777
99494.226127314846963
99505.401220878615277
99513.81460721915937
99516.7939560982486
99512.973955897512496
99502.799522632078151
99488.244457753316965
99471.999023911470431
99456.498847757160547
99443.079772002252867
99431.687117303677951
99421.241141638587578
99410.354136795431259
99398.13038133320515
99384.703372293181019
99371.204670070452266
99359.311728300905088
99350.695857222031918
99346.552344669908052
99347.224319145010668
99352.088361628586426
99359.884494464960881
99369.182462870536256
99378.714406772705843
99387.647256454525632
99395.714121552038705
99403.03412025423313
99409.769224216230214
99415.921487998261
99421.320213261045865
99425.711013234045822
99428.89116268408543
99430.680582676272024
99430.889490722169285
99429.281484439838096
99425.623888838104904
99419.814340144279413
99412.02045012677263
99402.770141400513239
99393.077189203046146
99384.356339757796377
99378.167825633165194
99375.80851285927929
99377.937387730300543
99384.346884680824587
99393.940594620187767
99405.05058299342636
99415.898696012285654
99425.17088718317973
99432.388886585220462
99438.027951423180639
99443.157998895840137
99448.979815455139033
99456.229006641005981
99464.788066699009505
99473.569717102291179
99480.830009530734969
99484.598664563454804
99483.201688725763233
99475.776177949868725
99462.570623081672238
99444.985517888868344
99425.217081425609649
99405.781972597949789
99388.963836588925915
99376.533285303477896
99369.645297158960602
99368.757666563891689
99373.714576789658167
99383.892956421186682
99398.405789701282629
99416.271001870787586
99436.482306462377892
99457.946052960192901
99479.442248332430609
99499.713805798208341
99517.545191318145953
99531.945083921673358
99542.351175199539284
99548.714117398048984
99551.508234248729423
99551.57950672795414
99549.906511130509898
99547.408110313452198
99544.770171669428237
99542.407155840206542
99540.603489809160237
99539.625977801930276
99539.8001796558965
99541.555076035656384
99329.580254834276275
99411.322005148424068
99349.588406664377544
99376.344060565766995
99425.801996572248754
99299.42769351095194
99174.813736847383552
99150.705057275903528
99181.485720058175502
99268.513728727368289
99356.062076481859549
99353.99271743184363
99280.511199032363947
99307.729487049233285
99390.427598361900891
99417.533754355201381
99432.534326274355408
99445.23497114526981
99416.998891853785608
99379.466131342443987
99388.188901234592777
99435.323080891554127
99481.280876859556884
99492.805171953470563
99466.277752085297834
99425.6205614489445
99400.689109955987078
99420.987041692002094
99480.105737146703177
99526.835010001945193
99530.716887166432571
99511.049320662568789
99503.420566270069685
99504.225716778557398
99487.899768925446551
99459.494594707430224
99453.985821985683287
99475.965243618367822
99481.857983279594919
99457.959795730217593
99445.815999542945065
99461.300184340943815
99467.615375937966746
99446.471649088009144
99428.492086885788012
99435.725505251859431
99449.932019721643883
99450.831590631307336
99444.720481137279421
99443.19132574541436
99448.726779597316636
99456.712962915218668
99460.823597318361863
99448.214961647390737
99420.507793138604029
99404.695224593626335
99422.298833640044904
99456.09563559484377
99470.190598700952251
99446.554800416444778
99405.185682520124828
99383.692398656276055
99403.278174386607134
99441.423297947345418
99454.847159110140637
99425.136060187593102
99380.35117640743556
99361.300322501148912
99379.039253503608052
99412.189585612373776
99432.703865570132621
99428.435645432124147
99411.441519609186798
99406.802819349439233
99427.257245251981658
99461.230442114567268
99483.269775509543251
99484.32935717246437
99471.664712415935355
99460.707715254233335
99458.299163999923621
99461.248433860484511
99465.796363125060452
99474.192898840366979
99493.243556249435642
99525.234750721705495
99558.850909454456996
99576.106685683174874
99565.511832463933388
99528.404233165972983
99476.30672809346288
99426.303132114568143
99393.850547111913329
99382.617521213338478
99378.714016197482124
99365.123570796029526
99341.350903796308558
99324.227291659728508
99329.685592853245907
99360.15475695837813
99399.414730172647978
99425.212341762773576
99426.743296351589379
99410.667232753825374
99390.445605813729344
99375.159454114109394
99360.680084390143747
99345.366594374383567
99332.147662712523015
99332.653198818559758
99351.540837268621544
99379.497437973026535
99403.536903377855197
99416.830965142973582
99423.006477001137682
99428.020977080828743
99435.369271140836645
99441.755120191563037
99442.313954219236621
99435.334366012379178
99423.517987555547734
99409.849273281157366
99397.903128100893809
99392.378124878712697
99398.198933159728767
99415.513531067845179
99439.341841793575441
99460.490638119503274
99472.703163938247599
99478.307141287965351
99481.171571662343922
99483.303669725064537
99484.164549978406285
99486.137513409747044
99493.090624003918492
99508.742107136800769
99530.093084268417442
99548.677838905161479
99557.098829299968202
99552.626056899083778
99536.229259273502976
99513.109930638500373
99487.909463459174731
99466.34147819703503
99452.943357416486833
99448.847947325193672
99451.355519497868954
99455.207189965934958
99454.927814859562204
99451.092187190559343
99447.99784682324389
99450.130946645324002
99457.0864927390503
99464.678582224791171
99468.92499501608836
99468.167870680234046
99463.391354787803721
99458.273231109647895
99453.255749072195613
99447.462141843439895
99439.416854541006614
99428.061544061274617
99413.048619936380419
99394.014854320339509
99372.025059887615498
99351.54125639218546
99339.954555444550351
99342.238078086680616
99356.034552023062133
99371.696598302092752
99378.664423406269634
99374.084262713877251
99364.753214302632841
99360.344727093412075
99365.15814452295308
99374.42808088826132
99378.490242240193766
99371.202499031671323
99354.873160605013254
99339.380338304705219
99336.171771042281762
99352.257994999657967
99386.339720781368669
99429.336223970240098
99468.386500348686241
99493.039822308564908
99500.311766292565153
99495.238158463398577
99487.091815782536287
99562.021280562417815
99553.515847925969865
99549.874163648943068
99553.909247822521138
99564.179840745768161
99575.691106779908296
99582.42848303176288
99580.210359588658321
99568.799945111968555
99551.959205226317863
99535.377909035290941
99524.079589075103286
99520.157823321977048
99522.508561844224459
99528.116006065814872
99533.319908127814415
99535.758378893937333
99535.271403471575468
99533.42330180342833
99532.140564658795483
99532.667551099249977
99534.96016444383713
99537.145760230152518
99536.119292538292939
99529.340296885318821
99515.718210890510818
99496.111946170043666
99473.365970107610337
99451.419462294434197
99434.149814282980515
99423.86293974230648
99420.940909076758544
99423.970182170451153
99430.604615478412597
99439.12933981794049
99448.830099377053557
99460.233206484539551
99474.413109614892164
99492.058851007561316
99512.545477110106731
99533.50069160448038
99551.160292733489769
99561.266102871042676
99560.779145983498893
99549.060417701024562
99528.564883242928772
99503.9355520906538
99480.85225455352338
99464.461372004909208
99457.119258351114695
99458.465714831458172
99465.835088529973291
99475.664500447994214
99485.309121818485437
99493.650414230811293
99501.101563354153768
99508.753284617079771
99517.223985930511844
99526.331398811016697
99535.180823611008236
99542.696001319724019
99547.902078162354883
99549.757079925242579
99547.214608357287943
99539.678804574548849
99527.604127122074715
99512.900506966194371
99498.723362837728928
99488.34263027869747
99483.618055343671585
99483.929218383826083
99486.203326923816348
99486.459547908278182
99481.820973826601403
99471.922950238586054
99459.067757867014734
99447.163746291422285
99440.020621233968996
99439.846416408443474
99446.249740242987173
99456.37356063372863
99465.96349260880379
99471.050287884834688
99469.474879670960945
99461.701569194119656
99450.304579680596362
99438.585848549686489
99429.082956411279156
99422.66362121720158
99418.364917760292883
99414.144718404117157
99408.097647800357663
99399.566178439374198
99389.52337126772909
99380.079304067126941
99373.579245714456192
99371.494793952879263
99373.599687464666204
99378.03703192093235
99382.072085348074324
99383.09640368053806
99379.666647762671346
99371.841446183811058
99360.855075295607094
99348.398141247656895
99336.101345576011227
99325.200224655724014
99316.349790813444997
99310.016445872897748
99306.612696810538182
99306.445271077638608
99309.254306574439397
99314.104007527042995
99319.352299663616577
99323.16220445203362
99324.101634605322033
99321.796642963119666
99317.196429618314141
99312.414820567559218
99309.943141699986882
99311.847960840910673
99319.033498754317407
99330.92081509954005
99345.592024759433116
99360.577264876439585
99373.785502035840182
99384.215321738069179
99391.95548718990176
99397.94174843878136
99403.331200436703512
99409.121386158760288
99415.775790732572204
99423.381863170201541
99431.908236132163438
99441.572920516176964
99452.702682011018624
99465.457578405927052
99479.461460060585523
99493.589203713068855
99506.112341567917611
99515.16134799849533
99519.357923274641507
99518.501058561305399
99513.746275150959264
99507.261507175222505
99501.371785191236995
99497.761438103290857
99496.888905263564084
99497.904439489764627
99499.096773318960913
99498.763189712306485
99496.043937233509496
99491.298269445935148
99485.904329042925383
99481.617278484103736
99479.72262274948298
99480.431667634344194
99482.890211028672638
99485.573713070349186
99487.093248305463931
99486.992415402201004
99486.056735136677162
99485.949445733713219
99488.301861217056285
99493.850949361964012
99501.936405169180944
99510.536743158008903
99516.971185488582705
99518.888961055446998
99515.187883166901884
99506.456625154663925
99494.694601800656528
99482.400268716402934
99471.622449123417027
99463.224008088247501
99456.657868020251044
99450.38490738159453
99442.678798456938239
99432.447207991033792
99419.787940122478176
99406.059589655706077
99393.302782274360652
99383.529242756165331
99378.166686162934639
99377.782437314614072
99381.94678044738248
99389.470604435162386
99398.842462595348479
99408.653018798941048
99417.77583131135907
99425.574865235597827
99431.965817300180788
99437.170448756325641
99441.463222282211063
99445.039613138302229
99447.986586593935499
99450.327707371776341
99452.004771304957103
99452.783486699714558
99452.225175350904465
99449.779663273366168
99445.053052233808558
99438.087196112261154
99429.474950081494171
99420.371057248310535
99412.345518316695234
99407.017239166787476
99405.653340706543531
99408.754494291279116
99415.877935651515145
99425.704521821244271
99436.390873162425123
99446.055250480625546
99453.348916179529624
99457.910984200090752
99460.409181323950179
99462.264526329978253
99464.99525147456734
99469.673454866351676
99476.443547781193047
99484.400284050032496
99491.760387840971816
99496.405975111076259
99496.51076816409477
99491.00950718432432
99479.888190052370192
99464.203136808675481
99445.892233401435078
99427.346388723250129
99410.867489122159895
99398.249018387374235
99390.607615569722839
99388.415090632697684
99391.610324890803895
99399.691172943348647
99411.818396213609958
99426.991797750466503
99444.192242318633362
99462.423093437682837
99480.641931118574576
99497.749519974153372
99512.726657709557912
99524.759608775988454
99533.364752690540627
99538.487908796028933
99540.510641394881532
99540.130283522841637
99538.16505242275889
99535.392326885688817
99532.420940891970531
99529.648005114198895
99527.344554627794423
99525.835664903337602
99525.609819566132501
99527.247525466402294
99531.269195364555344
98952.231348168978002
98840.588203141058329
99024.047537378210109
99291.475873879535357
99389.999703062247136
99280.848402824165532
99234.938648870724137
99221.828143271370209
99175.782871350966161