/*--------------------------------*- C++ -*----------------------------------*\
  =========                 |
  \\      /  F ield         | OpenFOAM: The Open Source CFD Toolbox
   \\    /   O peration     | Website:  https://openfoam.org
    \\  /    A nd           | Version:  12
     \\/     M anipulation  |
\*---------------------------------------------------------------------------*/
FoamFile
{
    format      ascii;
    class       volScalarField;
    location    "0.0067";
    object      pPrime2Mean;
}
// * * * * * * * * * * * * * * * * * * * * * * * * * * * * * * * * * * * * * //

dimensions      [2 -2 -4 0 0 0 0];

internalField   nonuniform List<scalar> 
75962
(
900614.40431976318359
881033.32318878173828
872431.14531326293945
866519.71507835388184
861851.02711868286133
857613.45215606689453
853346.1473503112793
849081.68348121643066
844918.96013641357422
840849.9250659942627
836879.42606925964355
833013.58456802368164
829207.18943786621094
825392.13496780395508
821596.86573791503906
817909.56018257141113
814365.76104927062988
810956.4835376739502
807627.41905784606934
804340.57897567749023
801087.7885684967041
797864.93613815307617
794695.23275947570801
791615.49964714050293
788722.68895721435547
786086.18757438659668
783705.00341606140137
781578.74763870239258
779706.74087715148926
778026.96912384033203
776496.73445320129395
775122.72789001464844
773913.16392707824707
772829.38339233398438
771809.44823837280273
770812.6622486114502
769832.10382080078125
768863.95948219299316
767907.03572273254395
766946.89754295349121
765959.86262130737305
764920.1910457611084
763815.68865776062012
762646.96935081481934
761409.34483528137207
760090.93142318725586
758690.57406234741211
757201.0432243347168
755610.99347877502441
753905.10593795776367
752080.76447868347168
750150.78326606750488
748109.63536643981934
745943.29925155639648
743664.57183074951172
741295.24871253967285
738849.37677955627441
736338.38286209106445
733789.56430816650391
731251.03440856933594
728774.65850448608398
726386.11124229431152
724076.07107925415039
721818.0528736114502
719604.01224136352539
717456.63232040405273
715394.50652694702148
713400.57505416870117
711440.70800971984863
709489.71512413024902
707545.83490753173828
705612.89684295654297
703681.43080520629883
701736.65240097045898
699774.78192329406738
697799.4846076965332
695811.38082695007324
693805.66319274902344
691777.0777473449707
689715.25716590881348
687620.24153709411621
685510.7337646484375
683414.63533401489258
681350.25260353088379
679311.89202690124512
677278.07277297973633
675224.14350700378418
673140.25877380371094
671046.05094337463379
668982.39391326904297
666979.93839836120605
665041.94541931152344
663153.60866165161133
661300.11114883422852
659482.1724681854248
657715.09150886535645
656010.62233543395996
654363.65826606750488
652752.92438125610352
651151.78820419311523
649543.12499618530273
647927.99919700622559
646319.5369815826416
644728.2231273651123
643151.87274551391602
641580.76724624633789
640008.52045631408691
638432.87974739074707
636848.2438850402832
635241.41172027587891
633595.3040771484375
631899.1217098236084
630153.61380767822266
628370.23712348937988
626560.73250579833984
624726.04856872558594
622857.72859001159668
620944.64295768737793
618976.0955810546875
616946.84537124633789
614858.40005683898926
612715.91914939880371
610527.05241775512695
608300.93330001831055
606043.04287719726562
603755.99760055541992
601445.87512588500977
599125.68039131164551
596812.78100967407227
594525.82607650756836
592280.5354118347168
590085.482177734375
587942.23970222473145
585847.86787033081055
583796.4780101776123
581784.67683029174805
579814.66451454162598
577890.69518661499023
576018.61406517028809
574203.89483451843262
572451.07232666015625
570762.60409355163574
569137.50000381469727
567567.04574584960938
566036.34235000610352
564527.96037864685059
563028.04144859313965
561528.06767463684082
560021.38051986694336
558498.8481388092041
556945.60617065429688
555342.23855209350586
553672.52841567993164
551930.54308891296387
550123.35264205932617
548267.06475257873535
546380.80792999267578
544480.47137260437012
542575.42287063598633
540665.10467147827148
538735.69611549377441
536765.2232666015625
534739.72205924987793
532665.57315063476562
530564.17884254455566
528453.62522125244141
526337.17330169677734
524205.77109909057617
522052.26057624816895
519883.38092041015625
517716.8868522644043
515569.76840972900391
513451.04684638977051
511363.75281524658203
509307.65150260925293
507280.68658447265625
505281.76712608337402
503313.51457786560059
501380.38845443725586
499485.32011413574219
497628.39449691772461
495808.25333976745605
494024.6507740020752
492279.33399200439453
490573.76407432556152
488906.23909187316895
487272.82835960388184
485670.55902671813965
427667.74448204040527
426356.46356201171875
425034.65826225280762
423696.53310585021973
422338.82192802429199
420962.96209716796875
419573.37438774108887
418173.38329315185547
416763.30264091491699
415341.9454231262207
413908.79095649719238
412463.88132476806641
411007.45371627807617
409540.97854804992676
408067.73427391052246
406590.74247550964355
405109.58162307739258
403620.24249649047852
402118.31860160827637
400602.09577178955078
399073.03969383239746
397534.31974029541016
395988.82614898681641
394438.00698280334473
392883.16076278686523
391328.25601959228516
389780.43887710571289
388246.66438674926758
386730.32126808166504
385231.60447692871094
383750.52563667297363
382288.03397369384766
380845.39528465270996
379424.7012767791748
378030.17999839782715
376667.26316452026367
375339.29881858825684
374044.6568603515625
372775.72850608825684
371520.85692977905273
370269.11363410949707
369015.47863578796387
367763.15426063537598
366521.57378959655762
365301.54725074768066
364110.30363273620605
362948.84914970397949
361813.10217475891113
360698.01857376098633
359601.53689002990723
358525.0289134979248
357470.58841514587402
356438.12272071838379
355424.48323059082031
354423.81510734558105
353428.42534255981445
352430.44806480407715
351424.64020919799805
350410.3720760345459
349392.2710132598877
348377.32728958129883
347370.45706367492676
346371.5838508605957
345375.86306762695312
344376.99225425720215
343371.25436973571777
342359.13488388061523
341343.51176643371582
340326.28966903686523
339307.02930641174316
338284.56455039978027
337258.62704086303711
336229.3664436340332
335196.19939804077148
334158.08022880554199
333114.92186546325684
332067.81085014343262
331016.99748992919922
329959.66172218322754
328890.26769065856934
327803.42490577697754
326696.25113677978516
325568.09172439575195
324418.82486534118652
323248.11912536621094
322056.18282699584961
320844.4549388885498
319615.51164245605469
318372.6459903717041
317119.16720008850098
315857.54250907897949
314589.03609848022461
313314.27582931518555
312034.02291679382324
310749.1500301361084
309459.96028327941895
308165.56174850463867
306864.28757476806641
305555.61529159545898
304242.57472229003906
302932.28680610656738
301633.69854164123535
300354.51777458190918
299099.52680587768555
297870.25296783447266
296665.10166549682617
295480.41909790039062
294312.42433166503906
293158.38454437255859
292016.14931106567383
290883.45810127258301
289759.12444305419922
288645.19036102294922
287547.20346641540527
286471.41287612915039
285421.24945640563965
284395.93988227844238
283392.11859321594238
282407.13842010498047
281441.08687591552734
280495.49177360534668
279570.0010986328125
278660.61121940612793
277761.02443313598633
276865.63970565795898
275971.46407699584961
275077.78326988220215
274184.75510025024414
273292.4279899597168
272400.72300338745117
271509.87150001525879
270620.19988632202148
269730.92145729064941
268839.2172966003418
267940.41891479492188
267029.21749687194824
266100.7329273223877
265150.64011573791504
264174.7775936126709
263169.52340126037598
262133.4196605682373
261068.713134765625
259981.70318794250488
258881.08257484436035
257774.76040840148926
256666.64945411682129
255555.54141807556152
254437.06822395324707
253307.13722610473633
252163.82702827453613
251006.85715484619141
249835.94888496398926
248650.28590393066406
247449.54091644287109
246235.18435859680176
245010.59002494812012
243779.82451629638672
242546.57642936706543
241313.99035835266113
240085.10373115539551
238863.15232467651367
237651.29049682617188
236451.73478126525879
235264.79272842407227
234088.56445121765137
232920.08696365356445
231757.45701789855957
230601.56343841552734
229456.07730102539062
228325.73875999450684
227214.31480979919434
226123.75186920166016
225054.77888298034668
224008.02474784851074
222984.73617172241211
221986.73329925537109
221015.7825870513916
220072.66714668273926
219156.70272254943848
218266.37467765808105
217400.74947547912598
216560.19802474975586
215745.33300971984863
214954.93486404418945
214184.7227611541748
213428.29519844055176
212679.71305084228516
211935.86713218688965
211196.9891185760498
210465.19023895263672
209742.20883560180664
209027.99044227600098
208320.93529891967773
207619.2819881439209
206922.45964431762695
206231.44318199157715
205548.04375076293945
204873.90024948120117
204209.99698638916016
203556.73260498046875
202914.12653350830078
202281.78875160217285
201658.78495979309082
201043.50375938415527
200433.51459503173828
199825.47563934326172
199215.31655502319336
198598.97744941711426
197973.16374206542969
197335.38401031494141
196683.33452987670898
196014.83469009399414
195328.92275238037109
194627.26504325866699
193914.11522102355957
193194.17562484741211
192469.81991004943848
191739.86354827880859
191000.66806983947754
190248.67699241638184
189482.70004463195801
188704.9314079284668
187920.6400089263916
187137.02603721618652
186361.81326484680176
185601.90004730224609
184862.31807518005371
184145.43134498596191
183450.48497581481934
182773.68149566650391
182109.24954795837402
181451.51340103149414
180797.15469741821289
180146.27514457702637
179501.46984481811523
178865.68874168395996
178240.49258995056152
177625.85191345214844
177021.24289703369141
176426.64878845214844
175842.62644577026367
175269.89956092834473
174709.50633811950684
174163.61438179016113
173636.0690975189209
173131.7514476776123
172655.23050498962402
172209.72909164428711
171797.01890754699707
171417.89669609069824
171072.4871940612793
170760.01870918273926
170478.48809432983398
170224.54049110412598
923754.76902198791504
896318.89254379272461
884093.92180061340332
875296.45789909362793
868526.30305099487305
862968.92143821716309
858026.3400936126709
853343.21601295471191
848726.83866882324219
844149.83542251586914
839576.3328971862793
835021.5469799041748
830535.36131858825684
826163.35749244689941
821915.94731903076172
817829.5664176940918
813960.62157249450684
810314.04120254516602
806913.14365768432617
803734.08356857299805
800715.46094131469727
797771.38358497619629
794851.11182975769043
791963.85383796691895
789171.15266609191895
786535.43014144897461
784077.95596122741699
781804.15072250366211
779735.23578834533691
777868.34418487548828
776217.4047794342041
774801.00197792053223
773598.61214447021484
772553.53427314758301
771597.7739086151123
770697.84791564941406
769825.87436485290527
768937.97197532653809
768006.49234580993652
767031.48135948181152
765997.77383613586426
764876.72234153747559
763656.37858009338379
762352.82005882263184
760975.92510032653809
759517.91789436340332
757976.96013641357422
756352.72867012023926
754636.3141918182373
752823.49007034301758
750919.3736457824707
748925.45353698730469
746839.25212478637695
744652.33177757263184
742369.92934417724609
740002.09444618225098
737555.73859214782715
735037.5096492767334
732471.8299617767334
729911.33586120605469
727418.50105285644531
725030.45956420898438
722746.6286506652832
720540.97648429870605
718400.66723442077637
716339.0711669921875
714368.79165077209473
712467.8137378692627
710596.24859237670898
708725.67849159240723
706855.178466796875
704985.40387725830078
703110.70904731750488
701224.00491523742676
699325.10100364685059
697413.91765022277832
695485.39220428466797
693533.02458381652832
691552.03408432006836
689541.25247955322266
687501.35593223571777
685447.23798942565918
683402.78616523742676
681381.02363967895508
679369.23150062561035
677342.19310569763184
675282.57903480529785
673195.26265716552734
671108.62882041931152
669061.76961708068848
667079.0622444152832
665158.96938896179199
663283.64533805847168
661434.41517448425293
659605.97357559204102
657810.27528190612793
656064.41119003295898
654369.35763549804688
652707.10933685302734
651049.94726943969727
649375.43405342102051
647680.95367813110352
645984.44256401062012
644304.83443069458008
642649.87464904785156
641015.27717590332031
639394.72892379760742
637782.59001159667969
636168.8496265411377
634538.77804946899414
632875.62615585327148
631167.3790397644043
629413.87209320068359
627624.48183441162109
625808.13701629638672
623969.18309593200684
622107.24270820617676
620215.95318603515625
618283.03453254699707
616296.85930442810059
614251.06214332580566
612146.55507278442383
609990.17132377624512
607793.41931915283203
605566.4358024597168
603310.72063827514648
601025.5456714630127
598717.52779769897461
596402.33003425598145
594100.3280029296875
591830.35692405700684
589606.97159194946289
587437.90971755981445
585322.13324928283691
583253.00512504577637
581225.54057121276855
579240.2971363067627
577301.43361663818359
575415.40572929382324
573589.08824920654297
571829.278076171875
570140.48612594604492
568522.33719253540039
566962.56336212158203
565438.55759620666504
563928.58647537231445
562421.13886260986328
560915.23481559753418
559411.41931915283203
557902.75054359436035
556373.94415664672852
554804.26985549926758
553175.88688659667969
551481.91839599609375
549727.15618324279785
547923.36135864257812
546084.87496757507324
544226.56636047363281
542358.98008346557617
540483.04771041870117
538586.24564170837402
536649.95165252685547
534665.01970291137695
532639.20760726928711
530590.52238082885742
528533.15062713623047
526467.90623092651367
524383.75232696533203
522269.44157028198242
520126.97659301757812
517972.89654731750488
515828.11457443237305
513707.68667602539062
511618.70686531066895
509561.18844032287598
507529.78086471557617
505520.58382225036621
503537.30588722229004
501588.78485679626465
499682.0914249420166
497819.11681175231934
495996.9810905456543
494210.16985893249512
492454.15764617919922
490727.66031837463379
489031.43118858337402
487366.34163665771484
485733.32350540161133
484132.80855369567871
428882.13586044311523
427545.1985034942627
426206.34347915649414
424858.97407913208008
423494.92366409301758
422108.99703407287598
420702.83547782897949
419283.17628479003906
417855.77486228942871
416422.34658432006836
414982.53185272216797
413536.6031436920166
412085.78421592712402
410631.26009941101074
409173.9482307434082
407714.25993347167969
406250.66158485412598
404778.84738159179688
403293.22119903564453
401790.47536659240723
400271.57749176025391
398740.74648284912109
397203.0133113861084
395662.03189277648926
394119.15257453918457
392574.68786239624023
391030.8768482208252
389493.33230209350586
387968.24847984313965
386458.5100154876709
384963.73910140991211
383483.12031173706055
382016.79627227783203
380565.98050880432129
379134.4267578125
377729.69642448425293
376360.27288436889648
375029.75870323181152
373733.31863021850586
372459.35753440856934
371194.27988624572754
369927.97781181335449
368657.95153427124023
367390.0831298828125
366135.52229309082031
364905.45224952697754
363706.45462608337402
362538.3870964050293
361395.67955207824707
360271.60931968688965
359161.99537467956543
358067.09853935241699
356990.75831604003906
355937.24571800231934
354907.62073707580566
353897.94598770141602
352900.20559120178223
351905.07372283935547
350905.38164901733398
349898.0882511138916
348884.12709426879883
347866.81991767883301
346849.88257598876953
345835.51664352416992
344823.16942405700684
343810.15961456298828
342794.00998115539551
341774.38597297668457
340752.98003578186035
339731.34344291687012
338709.38641929626465
337686.24618911743164
336662.19662094116211
335638.45722770690918
334614.94077491760254
333589.4472599029541
332559.52350616455078
331524.12819862365723
330482.33875274658203
329431.08166885375977
328365.42862510681152
327281.57561492919922
326178.59818840026855
325057.01279830932617
323916.47805404663086
322755.63010025024414
321573.66946029663086
320371.54998970031738
319151.81752777099609
317917.98508262634277
316673.66993522644043
315421.48967742919922
314162.08045959472656
312894.75632667541504
311619.53252983093262
310338.42913818359375
309054.37770843505859
307768.60442352294922
306479.62794494628906
305185.42468452453613
303887.14687919616699
302590.82938957214355
301305.73864936828613
300040.94498252868652
298802.5183277130127
297592.13359260559082
296407.46190643310547
295244.39899444580078
294099.88238143920898
292972.7451171875
291861.84372520446777
290764.47510719299316
289677.45700454711914
288600.16198539733887
287536.01539993286133
286490.67374038696289
285468.51110076904297
284470.4027156829834
283494.46963882446289
282538.98008346557617
281604.29401969909668
280691.69108390808105
279800.24760627746582
278925.33516693115234
278060.33651351928711
277199.56513214111328
276339.67698860168457
275478.92165565490723
274615.8373908996582
273749.15638732910156
272878.72178840637207
272005.94839096069336
271132.72691345214844
270259.62351608276367
269384.41498756408691
268502.17958831787109
267606.5463809967041
266691.20398330688477
265750.81341934204102
264781.23007583618164
263779.7979621887207
262746.25066757202148
261683.78672790527344
260599.02629470825195
259500.28663444519043
258394.47755241394043
257284.3105354309082
256168.0124454498291
255041.84980010986328
253903.33046913146973
252752.3694019317627
251589.86328887939453
250415.76139259338379
249228.84762763977051
248028.24746704101562
246814.89367866516113
245591.45382690429688
244361.11520576477051
243126.80960655212402
241891.41325187683105
240658.0945930480957
239430.23031234741211
238210.83780288696289
237001.7414608001709
235802.95039367675781
234612.96072769165039
233430.11168670654297
232254.23962783813477
231087.39104843139648
229933.17123413085938
228795.23894500732422
227676.10316467285156
226576.93118095397949
225498.20382690429688
224440.5244255065918
223405.0192699432373
222393.30764007568359
221407.05371856689453
220447.28940010070801
219514.02235794067383
218606.70487213134766
217725.19723510742188
216870.22824859619141
216042.55150985717773
215241.08753776550293
214461.62106513977051
213697.38359260559082
212941.46870803833008
212189.52573394775391
211441.03073120117188
210698.45050239562988
209964.92210578918457
209242.13444900512695
208529.6506462097168
207825.86910820007324
207129.58716583251953
206440.99352836608887
205761.48476219177246
205092.58036422729492
204434.99004745483398
203788.55567359924316
203152.8229808807373
202527.5001163482666
201912.38848686218262
201306.87533378601074
200709.13370513916016
200115.45215606689453
199520.45811080932617
198918.43976974487305
198304.79859352111816
197676.49552345275879
197031.42184829711914
196367.91423606872559
195685.50226211547852
194986.2120246887207
194274.6298828125
193555.86201477050781
192832.56604385375977
192103.53714752197266
191364.83538436889648
190612.45299530029297
189844.89254379272461
189064.14673805236816
188275.03879547119141
187483.89777946472168
186697.65427017211914
185923.54834747314453
185168.66474914550781
184438.47224044799805
183734.49847793579102
183052.99483108520508
182386.20111274719238
181725.92443084716797
181067.0747127532959
180409.078125
179754.65047073364258
179107.34982872009277
178469.83724212646484
177843.61840629577637
177229.65216636657715
176628.66659164428711
176040.7760066986084
175465.08871459960938
174900.33533668518066
174346.53799629211426
173806.41409492492676
173285.25029182434082
172789.16183853149414
172323.25778961181641
171890.99657821655273
171494.57818031311035
171135.36262893676758
170813.69148826599121
170528.04671096801758
170274.34174537658691
894562.62609481811523
880059.41641807556152
873285.44156455993652
867180.46532821655273
861786.34943199157715
857076.90371894836426
852969.77765464782715
849204.07123565673828
845544.8668098449707
841823.99807739257812
837918.3635196685791
833783.32503509521484
829508.99799728393555
825195.852294921875
820878.96161079406738
816651.71726226806641
812636.27787590026855
808874.01138687133789
805390.23440933227539
802185.56817436218262
799220.16566848754883
796419.67654418945312
793730.23236656188965
791144.89786148071289
788647.31288146972656
786244.69887542724609
783951.49115562438965
781764.77555084228516
779692.58757591247559
777764.35055351257324
776032.22731399536133
774527.23664855957031
773237.27881050109863
772107.65350914001465
771091.69836235046387
770170.79550743103027
769320.49031639099121
768485.20199394226074
767612.34777641296387
766683.0324535369873
765680.19869041442871
764578.63640594482422
763363.87683868408203
762046.39300346374512
760635.53515625
759117.23039245605469
757482.13774299621582
755750.33280181884766
753933.63365745544434
752026.69232177734375
750026.19182395935059
747932.52982330322266
745752.36863708496094
743496.48024559020996
741178.88633918762207
738800.58584594726562
736350.86434745788574
733827.59694862365723
731254.5644359588623
728688.95354270935059
726190.52097702026367
723793.0097713470459
721496.81478500366211
719287.23476219177246
717155.40398406982422
715108.16209411621094
713151.79646682739258
711272.44089317321777
709434.61825561523438
707607.88228416442871
705782.11203765869141
703956.62232971191406
702134.77363014221191
700316.14886474609375
698498.70170783996582
696679.03569602966309
694850.47149658203125
693008.79982757568359
691145.98196411132812
689250.75275230407715
687311.94210243225098
685334.91798973083496
683342.01156806945801
681346.92462158203125
679340.85030555725098
677304.4781322479248
675230.00954818725586
673134.69804573059082
671051.48040962219238
669008.03886032104492
667020.56476020812988
665088.28970146179199
663194.77615165710449
661320.06686592102051
659455.73917007446289
657614.77783012390137
655817.07039833068848
654065.0117359161377
652341.28476524353027
650618.41617012023926
648873.96087455749512
647106.00151824951172
645335.55414962768555
643588.54111480712891
641876.88483810424805
640195.95646667480469
638535.39835548400879
636887.26103019714355
635244.80476760864258
633597.58617210388184
631928.92224311828613
630224.6999454498291
628482.47898483276367
626706.82414817810059
624903.76111793518066
623081.2424201965332
621246.42515754699707
619397.22597122192383
617519.6661434173584
615594.82712745666504
613610.43778228759766
611563.82522583007812
609460.90157699584961
607313.12771034240723
605131.67495346069336
602919.56162452697754
600674.18256759643555
598396.53060722351074
596097.47695922851562
593795.78742218017578
591512.98880577087402
589270.17826271057129
587081.61520195007324
584948.89755058288574
582865.93321418762207
580825.90760231018066
578827.24793243408203
576874.54955673217773
574975.79196548461914
573140.66470527648926
571375.89692115783691
569684.20553207397461
568062.58335304260254
566496.01570129394531
564957.82238578796387
563425.29283905029297
561891.60904884338379
560362.98373031616211
558845.09455299377441
557332.02404594421387
555807.61964416503906
554250.48912620544434
552645.2744140625
550987.29668617248535
549278.62045860290527
547524.84532356262207
545735.05313873291016
543920.11896324157715
542089.01584053039551
540243.58011436462402
538376.72730445861816
536479.13228416442871
534549.13962936401367
532594.61459159851074
530626.64908409118652
528651.68896865844727
526666.68103408813477
524659.6039924621582
522617.49512481689453
520538.21030616760254
518435.6480770111084
516331.33936882019043
514242.86639404296875
512178.39381217956543
510136.08473014831543
508107.77998924255371
506089.16771125793457
504087.46222686767578
502117.56080436706543
500192.16370010375977
498316.01401519775391
496484.89730834960938
494687.33503532409668
492910.98317718505859
491150.5080509185791
489408.8256950378418
487692.33134078979492
486006.52280426025391
484354.03420639038086
428793.49186515808105
427422.34128570556641
426051.84641456604004
424673.07911682128906
423275.47121238708496
421853.43286323547363
420410.78899574279785
418957.35198783874512
417500.99777793884277
416044.17981910705566
414586.40828704833984
413127.56309509277344
411668.61042976379395
410211.31746292114258
408756.95905303955078
407304.17267417907715
405847.64755821228027
404379.68484687805176
402893.53470230102539
401386.95911979675293
399863.32006645202637
398329.76528930664062
396794.11528587341309
395262.16567802429199
393735.84552955627441
392213.84096336364746
390695.48740005493164
389183.5879020690918
387682.30081939697266
386193.22842216491699
384715.10276412963867
383246.59538078308105
381787.85824394226074
380340.69182205200195
378910.00512313842773
377504.61181449890137
376133.40250015258789
374798.56537246704102
373492.59833908081055
372202.06919097900391
370914.4924430847168
369623.61275100708008
368330.82122230529785
367043.93523406982422
365774.20732688903809
364531.83502769470215
363321.79759979248047
362142.5887336730957
360988.10745811462402
359851.27207374572754
358727.28376960754395
357615.43884086608887
356519.91373634338379
355447.57062339782715
354402.59399032592773
353382.39779281616211
352378.56551361083984
351381.57525062561035
350384.10552406311035
349381.08687400817871
348369.3210334777832
347348.51881217956543
346321.95176696777344
345294.64060211181641
344270.01518821716309
343248.19392013549805
342227.19124794006348
341205.38619995117188
340182.72309112548828
339159.92173194885254
338137.23799514770508
337114.9908332824707
336094.80147933959961
335078.68898963928223
334066.28372383117676
333053.81021118164062
332036.54781150817871
331011.55803680419922
329977.01114845275879
328929.82745361328125
327865.93168449401855
326783.13451194763184
325682.53734397888184
324566.3339729309082
323434.64834594726562
322285.41406440734863
321116.78745269775391
319928.9951343536377
318724.24222946166992
317505.7968807220459
316277.08625411987305
315040.45613670349121
313796.04701614379883
312542.41062545776367
311279.04164886474609
310008.49548721313477
308735.40900039672852
307463.05644226074219
306191.0814323425293
304917.03387260437012
303640.39937210083008
302365.44011306762695
301100.53844451904297
299855.00720405578613
298635.54907035827637
297444.02704620361328
296278.0622615814209
295134.0693359375
294010.21109580993652
292906.47253227233887
291822.27838706970215
290754.73149871826172
289700.00520324707031
288656.55307197570801
287626.73280906677246
286615.5141487121582
285627.2544002532959
284663.35684967041016
283722.61561584472656
282803.59271049499512
281906.23695373535156
281030.6621265411377
280174.76000785827637
279333.67337417602539
278501.61734199523926
277673.88249206542969
276846.94061851501465
276017.23084259033203
275180.87352752685547
274335.11578941345215
273480.10716819763184
272618.82764434814453
271755.14334869384766
270891.24698066711426
270026.00407409667969
269154.73898887634277
268270.30278396606445
267364.97507286071777
266432.33089828491211
265468.13801002502441
264470.55514144897461
263440.51741027832031
262382.26615905761719
261303.00180816650391
260210.73229789733887
259111.10309791564941
258005.3226203918457
256890.78597640991211
255763.98225975036621
254623.29988288879395
253469.54027366638184
252304.15679931640625
251127.5265064239502
249938.95270347595215
248738.20825958251953
247526.63948249816895
246306.61660003662109
245080.27552223205566
243849.31183815002441
242615.78225708007812
241382.64098930358887
240153.24946975708008
238930.38393783569336
237715.50278282165527
236508.60853576660156
235308.79487609863281
234115.489501953125
232929.57131576538086
231753.54917144775391
230590.7326602935791
229444.13272666931152
228315.72455596923828
227206.39103317260742
226116.36592864990234
225045.88770484924316
223995.65129089355469
222966.86004257202148
221960.84079742431641
220978.61719703674316
220020.88860130310059
219088.32477569580078
218181.9080638885498
217302.94427490234375
216452.29500007629395
215629.18081665039062
214830.15670776367188
214049.2185230255127
213279.48581123352051
212515.77287483215332
211756.49403762817383
211003.65583992004395
210260.91681098937988
209531.01578140258789
208814.32408142089844
208109.23941612243652
207413.97060012817383
206728.07256889343262
206052.43929100036621
205388.14678001403809
204735.36382675170898
204093.29616355895996
203461.03682327270508
202838.3950023651123
202225.93640899658203
201624.01612281799316
201031.45440673828125
200444.64236259460449
199857.93371391296387
199265.18288803100586
198661.40759468078613
198043.17664337158203
197407.88666915893555
196753.2989673614502
196078.50086784362793
195385.37146186828613
194678.63724327087402
193963.70269775390625
193243.52115249633789
192516.92152786254883
191779.61276054382324
191027.17360877990723
190257.92446136474609
189474.04431533813477
188680.5240364074707
187883.27739906311035
187088.22847366333008
186301.9253044128418
185532.14400672912598
184786.54942321777344
184069.29557800292969
183378.21701240539551
182705.41989898681641
182041.27919960021973
181379.04041290283203
180716.84331703186035
180056.58835220336914
179401.40252685546875
178753.8654956817627
178115.78784942626953
177488.81338310241699
176874.74361610412598
176274.92143821716309
175689.41935157775879
175117.19968032836914
174557.51347732543945
174011.58680534362793
173483.1733283996582
172977.41172218322754
172498.98781585693359
172051.11605453491211
171635.96624946594238
171255.62776947021484
170912.28972625732422
170607.07906913757324
170338.35355758666992
170100.84099960327148
913267.85483360290527
889767.44952201843262
878671.78452301025391
869810.13676071166992
862311.94827842712402
856021.23530387878418
850764.41423225402832
846236.05005645751953
842243.19570922851562
838516.45623397827148