/*--------------------------------*- C++ -*----------------------------------*\
  =========                 |
  \\      /  F ield         | OpenFOAM: The Open Source CFD Toolbox
   \\    /   O peration     | Website:  https://openfoam.org
    \\  /    A nd           | Version:  12
     \\/     M anipulation  |
\*---------------------------------------------------------------------------*/
FoamFile
{
    format      ascii;
    class       volScalarField;
    location    "0.0125";
    object      alphat;
}
// * * * * * * * * * * * * * * * * * * * * * * * * * * * * * * * * * * * * * //

dimensions      [1 -1 -1 0 0 0 0];

internalField   nonuniform List<scalar> 
75962
(
5.5771018134316147939e-07
6.3261329480091786236e-07
7.5408503672718714614e-07
9.1711995510420277895e-07
1.0160923468432679668e-06
1.0707277944959367299e-06
1.1583034348407030223e-06
1.3333986989000942184e-06
1.4858895900833170935e-06
1.5602239784659232394e-06
1.5949770366534650612e-06
1.6589355877143345789e-06
1.7951219891765877467e-06
1.8930086722504545484e-06
1.9389460323659346317e-06
1.9968907543641919982e-06
2.0903166026795635238e-06
2.1953778347393052189e-06
2.3018794068433809435e-06
2.4303946227697134813e-06
2.5868790654843308288e-06
2.737334343306341528e-06
2.8396200162530558221e-06
2.8901103003323437129e-06
2.9258084722586743673e-06
2.9875138086798492814e-06
3.0839493932138963058e-06
3.1944972541963351062e-06
3.2888890481865747286e-06
3.3532082098975308901e-06
3.3962973922309548166e-06
3.4356276994028594359e-06
3.4826297208846218751e-06
3.5389789193249025609e-06
3.6079747313887986476e-06
3.7067813272241248642e-06
3.8562251974880403223e-06
4.0514915749425962793e-06
4.2531622659153792021e-06
4.4119733419935722177e-06
4.50432435568299544e-06
4.5412075611574748976e-06
4.550557430803264267e-06
4.5547015728945845032e-06
4.5633693440279749325e-06
4.5860617489507264698e-06
4.6547878242761020105e-06
4.777623051397585915e-06
4.8927034812386981184e-06
4.9814095893642582806e-06
5.035614352169593025e-06
5.0647895248227323055e-06
5.0962333592589752443e-06
5.163756139503076413e-06
5.3230295167649110166e-06
5.52554465514526082e-06
5.715029865868902216e-06
5.8619352126142487938e-06
5.9514053502965000975e-06
5.9882165401014431788e-06
5.992437215589544678e-06
5.987674881237835958e-06
5.9825684423724520219e-06
5.9827691087498019134e-06
6.0026211776061062648e-06
6.0976104611525154916e-06
6.2380140083843931058e-06
6.3314498410762972525e-06
6.3829641289899282739e-06
6.4070788256291157043e-06
6.425162320887186142e-06
6.4615295716962031696e-06
6.5509327255993472279e-06
6.6894414904060525698e-06
6.841669475904479979e-06
6.9840522824811757929e-06
7.0960057973647798989e-06
7.167763577657830901e-06
7.2022772359587432109e-06
7.211610939706626747e-06
7.2109725165519392793e-06
7.2111303241346220931e-06
7.2194932941332261073e-06
7.2592345282661773385e-06
7.40118501845209456e-06
7.6088674794079450302e-06
7.7766325279887552665e-06
7.9013668501374828573e-06
7.9858073211269207221e-06
8.0357767645509400764e-06
8.0594730034212990329e-06
8.0667276356351592709e-06
8.0675292471031882536e-06
8.0716777542967001083e-06
8.0891502295503793176e-06
8.1527648953399688793e-06
8.2668820726785349848e-06
8.370929373878869856e-06
8.4496047393115411496e-06
8.4955829812338518378e-06
8.5121772255704168404e-06
8.5113080716130607318e-06
8.5051066634322038834e-06
8.4998247359633500171e-06
8.4990878976720724762e-06
8.5183872538809048104e-06
8.5938205840539389678e-06
8.6843657890256105832e-06
8.7627875655244657344e-06
8.8390970628866786764e-06
8.9191421186329432249e-06
9.0034546550332314409e-06
9.0883547709751722257e-06
9.1654061842676267708e-06
9.2276546933140980782e-06
9.2739877944608706679e-06
9.308577438702676313e-06
9.3363590566232618862e-06
9.3592915666029074796e-06
9.3761838216008561397e-06
9.3854740936750142248e-06
9.3873100276091758787e-06
9.3843308484726233905e-06
9.3802818420262273056e-06
9.3788760280316391913e-06
9.3843821969871106964e-06
9.4107739692910325591e-06
9.4877453737871714055e-06
9.5856608061835697147e-06
9.6806365103596211729e-06
9.7636601452863233512e-06
9.8309963986042032551e-06
9.8860749572787041121e-06
9.935221683944652819e-06
9.984217742913798876e-06
1.0036672774973682688e-05
1.0092012112090460575e-05
1.0146286596376504272e-05
1.0194568818650356925e-05
1.0233802125556473693e-05
1.0261533528279848248e-05
1.0278689334656414118e-05
1.0285890122572218631e-05
1.0285026382939927879e-05
1.0278982497249732951e-05
1.0270042361651665394e-05
1.0260240951669588478e-05
1.0253138036898036661e-05
1.0255423288792696505e-05
1.0291681178456941437e-05
1.0411541348096531933e-05
1.0538182705899525705e-05
1.0632520162669094544e-05
1.0699138451564517405e-05
1.0745751872477261987e-05
1.0780658785724102911e-05
1.0810757494160500966e-05
1.0842452668566674985e-05
1.0880678199092519792e-05
1.0925916202829593366e-05
1.0977231124176285709e-05
1.1031480337111904379e-05
1.108506590247417174e-05
1.1133604525803823904e-05
1.1173179123093696872e-05
1.1200939737434496802e-05
1.1215630758615862205e-05
1.1219144364930021287e-05
1.1215575500954319294e-05
1.1208981212137199634e-05
1.119883716548707472e-05
1.1188284933771344169e-05
1.117921150115271808e-05
1.1179982123994022973e-05
1.1218069601647277545e-05
1.1291084545214341196e-05
1.1351442718791638283e-05
1.1398423025603053561e-05
1.1435970094646328074e-05
1.1469099140556614011e-05
1.1504695623520701695e-05
1.1547957291671838995e-05
1.1599560610572146957e-05
1.1657572201202476714e-05
1.1717102823569648911e-05
1.1771404596980726735e-05
1.181498569728538113e-05
1.1844410603421936834e-05
1.2176035295875261801e-05
1.2178254092422643876e-05
1.2213707642298247112e-05
1.233905829412780696e-05
1.250133603517477129e-05
1.264393131225664024e-05
1.2764453221183483394e-05
1.2862888157359789358e-05
1.294307316894400708e-05
1.3007233303839396896e-05
1.3056088274349095154e-05
1.3087030653432500462e-05
1.3100068710293107647e-05
1.3098916864045007349e-05
1.3090555196266990049e-05
1.3066799931403096042e-05
1.2990254223373619055e-05
1.2865230787028308749e-05
1.2768002717431667462e-05
1.2701665708652004025e-05
1.2662381235421800278e-05
1.2642020903621207565e-05
1.2631434765984823711e-05
1.2626683828145480396e-05
1.2638198863148968718e-05
1.2698470238328652472e-05
1.281592542982239382e-05
1.2922414022745035335e-05
1.301160796124960922e-05
1.3080149342363950552e-05
1.3128595166272340159e-05
1.3159319644942703677e-05
1.3176735081435004011e-05
1.3185004010457041095e-05
1.3188397579467259392e-05
1.3188681344041121456e-05
1.3186609359206379418e-05
1.3182985718723132248e-05
1.3176562154710328513e-05
1.3159576370470943342e-05
1.3109092913506020453e-05
1.3011838606219239389e-05
1.2923045946210506529e-05
1.2850072467471277462e-05
1.2793997481789594263e-05
1.2754038291882870357e-05
1.2727791260289562857e-05
1.271142768071193331e-05
1.2700954534574012691e-05
1.2693948737485712198e-05
1.2698499363884809736e-05
1.2741996852682218285e-05
1.287879530417661331e-05
1.3029317401677857429e-05
1.3152395543188301447e-05
1.3245711356583168828e-05
1.3309295085380441092e-05
1.3347687530609698967e-05
1.3366822061024860368e-05
1.3373016366875793085e-05
1.3371263205830722935e-05
1.3364818232126808025e-05
1.3356370011585710884e-05
1.3346440436360843194e-05
1.3332376199512707547e-05
1.330535693460199094e-05
1.3238039488542096238e-05
1.3135965797832408513e-05
1.3041443577627065458e-05
1.2959356690260709309e-05
1.2891669318671639149e-05
1.2840334783073293953e-05
1.2804292435899734638e-05
1.2782421495144795568e-05
1.2769918977329288329e-05
1.2761408259989688447e-05
1.2763244893719131976e-05
1.280477485528137137e-05
1.2951290063514709781e-05
1.312022703698926545e-05
1.3252500107499425266e-05
1.3349259270746275928e-05
1.3415571032836346661e-05
1.3457956038133045716e-05
1.3483084270881644018e-05
1.3496831500523217775e-05
1.3502285089229188375e-05
1.3501195638799851585e-05
1.3494646289912478132e-05
1.3485042950105569749e-05
1.3473199943009273662e-05
1.3457222057337028009e-05
1.3431270845641403482e-05
1.3375255265491607239e-05
1.3268881631806617714e-05
1.3161698655722359449e-05
1.3062302670848194243e-05
1.2975137308462041965e-05
1.29049485416991915e-05
1.2853817112307653269e-05
1.2821756977708881768e-05
1.2804910127948903055e-05
1.2795854199024551403e-05
1.2794079950439167463e-05
1.2821022768636995191e-05
1.2937499748271638115e-05
1.310711873413780022e-05
1.3245156166655347978e-05
1.3350647866494014512e-05
1.3427199895952436984e-05
1.3478795639264752406e-05
1.3510579127527540656e-05
1.3528248772909317631e-05
1.353527569883394583e-05
1.3535943377861897087e-05
1.3531516604689658085e-05
1.3524289344313545063e-05
1.3515464101787184702e-05
1.3502891397203765586e-05
1.3477639569268652804e-05
1.3411494219811428486e-05
1.3261410286451135712e-05
1.3109738675780317066e-05
1.2982936634702633673e-05
1.2886846417456157036e-05
1.2822266480478158139e-05
1.2786022023343548106e-05
1.2767679006629536098e-05
1.2757557838637157023e-05
1.2761700156751185526e-05
1.2816836345583060069e-05
1.2966278824702105719e-05
1.3106661209989160433e-05
1.3218527872240140659e-05
1.3302703704896951578e-05
1.336259445900492305e-05
1.3402264198844630265e-05
1.3426918505356986097e-05
1.3441279511095482912e-05
1.3449277794544970671e-05
1.345426963484238596e-05
1.3458303917728752508e-05
1.3461979646260782061e-05
1.3463433304248009794e-05
1.3462308678736746906e-05
1.3456476937420744475e-05
1.3447654837752241893e-05
1.3435044697075895789e-05
1.3408844340881190995e-05
1.3337948580166939457e-05
1.3155372368554897215e-05
1.2955060531971928733e-05
1.2795009432040647219e-05
1.2682472381506383179e-05
1.2616345460052765036e-05
1.2587452099734771607e-05
1.2576979427711728799e-05
1.2581862914708084517e-05
1.2641402086133361892e-05
1.2847431919276107619e-05
1.3093344575673920675e-05
1.3289069181754962446e-05
1.3440805656977751625e-05
1.3558026432514651074e-05
1.3652976169396706857e-05
1.3735508231577850041e-05
1.3810376580075689286e-05
1.3876083912529388066e-05
1.3926245745036104769e-05
1.3955266240832305973e-05
1.3961986964384447124e-05
1.3953037129171148484e-05
1.3933975137985301585e-05
1.3878377310698955532e-05
1.3700538819651227567e-05
1.3428699671549575344e-05
1.3218695626700941974e-05
1.3081338865470703268e-05
1.3009079181039285666e-05
1.2981252968318421901e-05
1.2972252217879071197e-05
1.2984969945990532938e-05
1.3066284179419987782e-05
1.3178536724999985e-05
1.3252818663998291033e-05
1.3294609698380273721e-05
1.33129362069855782e-05
1.3317334220738171849e-05
1.3314706857349125347e-05
1.3309147997477807599e-05
1.3302405783067253796e-05
1.3294626612129141314e-05
1.3284893157364928174e-05
1.3270161975436837169e-05
1.3240553137026347448e-05
1.3163304110673266375e-05
1.300482878000300293e-05
1.2851664454310579176e-05
1.2720346092911931672e-05
1.261515655633348481e-05
1.2537019548431690939e-05
1.2483896570995910922e-05
1.2451256177403702117e-05
1.2433419758708456803e-05
1.2423948906917933757e-05
1.2417536354590108863e-05
1.2415254726058971962e-05
1.2425595397414239998e-05
1.2448132632193727534e-05
1.2465323241376289123e-05
1.2475786113712990799e-05
1.247982331353135616e-05
1.2478473111113789153e-05
1.2473014268478087771e-05
1.2465261647729925776e-05
1.245610759902675712e-05
1.2445394001475173666e-05
1.2429298105764171903e-05
1.2396562501942874995e-05
1.2347206687996715034e-05
1.2299743571705214147e-05
1.2255740787087559564e-05
1.2215870169988782962e-05
1.2180712698212187061e-05
1.2150790910412775296e-05
1.2126296880197841443e-05
1.2106783260265647863e-05
1.2091692190939670862e-05
1.2080432208881858219e-05
1.2071998838941428009e-05
1.2065273242949460031e-05
1.2060167178518305716e-05
1.2057874437621424573e-05
1.2061082620842986329e-05
1.206599776331447687e-05
1.2069801678015347802e-05
1.2072202027087195324e-05
1.2073164243829961713e-05
1.207290789476821749e-05
1.2071431324393106161e-05
1.2069119923961036539e-05
1.2066034627056731413e-05
1.2061979614213612225e-05
1.2055827817327292948e-05
1.2044925082443433401e-05
1.2031402092413840904e-05
1.2018231566650912554e-05
1.2005732772273619563e-05
1.1994171106417829794e-05
1.198390289189633974e-05
1.1974807525573098448e-05
1.1966724449346158001e-05
1.1959318056291919169e-05
1.1952448446567913451e-05
6.0242591136104940057e-07
7.0839349378777555213e-07
8.3386869531546611131e-07
9.7738773538161802369e-07
1.0696532284528183701e-06
1.119534565182187426e-06
1.1939166597589608869e-06
1.3708318053964600543e-06
1.5926453336190955559e-06
1.7002945140088371511e-06
1.7407631611995067622e-06
1.8098337499848265147e-06
1.9103006506329053228e-06
1.9699606336042669642e-06
2.0158871234344682128e-06
2.1124960649449277343e-06
2.2580760401739114706e-06
2.3577540755172254869e-06
2.4157652588790831811e-06
2.4973263016736637372e-06
2.6401230865847585427e-06
2.8050673838856487495e-06
2.9322350456015653694e-06
3.0096819746053056278e-06
3.0757621375529965018e-06
3.1655558019077985545e-06
3.2717473875628936297e-06
3.3648243728303204125e-06
3.4359594107772430916e-06
3.5032327905038676266e-06
3.5888108721342393693e-06
3.6912595209005999855e-06
3.7875784612136120357e-06
3.8560311717103791157e-06
3.9006538797635949812e-06
3.9550265896019677145e-06
4.0599590136385260063e-06
4.2244297686557332445e-06
4.4133083259379714397e-06
4.5743265201148907434e-06
4.6768960124459700432e-06
4.7252206512670361777e-06
4.7430872548146408072e-06
4.7538619956480613249e-06
4.7717813520929278835e-06
4.810384524888604383e-06
4.907892019309966633e-06
5.0527930195276586615e-06
5.202239445603230369e-06
5.3342434447078664319e-06
5.429497457967829004e-06
5.482121850741262942e-06
5.5080117663459987116e-06
5.539572084761818291e-06
5.614237991091521728e-06
5.7796902457329494575e-06
5.9600506142236468868e-06
6.1091256608678640264e-06
6.2055530293561825492e-06
6.2497384727144065077e-06
6.2595744086610063898e-06
6.2573871792600778478e-06
6.2566863752173596425e-06
6.2649481450264447798e-06
6.3101989537071590799e-06
6.4616472350015835576e-06
6.6331759547388389835e-06
6.75525015343832373e-06
6.8322162325021567131e-06
6.8720664472599736502e-06
6.8905773499469731303e-06
6.9119040580790332059e-06
6.9612869322189590575e-06
7.0498050702864917469e-06
7.1681807468183800146e-06
7.2962709565853226562e-06
7.4100517140945919482e-06
7.4919298178167568767e-06
7.5368490850009474692e-06
7.552563896720893454e-06
7.5544118617319624373e-06
7.555743922886282137e-06
7.5650906208082956554e-06
7.603574255415935345e-06
7.7279940474622373802e-06
7.8853607238797147189e-06
8.0156085021198370498e-06
8.1165888292728347747e-06
8.1905632734615220513e-06
8.245061997544550863e-06
8.2906907340109959058e-06
8.3382309494054725429e-06
8.3946225295506882467e-06
8.4623371076213447166e-06
8.5395611958366876023e-06
8.6210388974616584588e-06
8.6992966700781259459e-06
8.7663633106137242199e-06
8.8152577422022379366e-06
8.8425212583411470416e-06
8.8507854467702002461e-06
8.8479452045460699596e-06
8.8424783066981807922e-06
8.8400515017949840519e-06
8.8496005543584025537e-06
8.8952176068612263591e-06
8.9984090030521813024e-06
9.1120026867958407799e-06
9.232877376694101392e-06
9.3524908601805519691e-06
9.4586930528629236656e-06
9.5429991384930909043e-06
9.6043588866455958518e-06
9.648263420205068679e-06
9.6840636213846353534e-06
9.7195062484037387574e-06
9.7569428077565423875e-06
9.7942782420680303323e-06
9.8259105493019056882e-06
9.8475772788620748882e-06
9.8579299260473317968e-06
9.8589056185078441179e-06
9.8545188063069995521e-06
9.8488412339065764105e-06
9.8453333754220892661e-06
9.8482106980425105226e-06
9.8723237029824990494e-06
9.9637162223636140649e-06
1.0112643820945314702e-05
1.0243244462673254142e-05
1.0345244334064655463e-05
1.0417595257064089112e-05
1.0467438030896127857e-05
1.0505554961991605634e-05
1.0542061551784277345e-05
1.0583788216781302158e-05
1.0632649101828868944e-05
1.0686384209112181548e-05
1.0740208861468617541e-05
1.0788934854934389745e-05
1.0830116616109804271e-05
1.0860965332220830692e-05
1.0880147537860786419e-05
1.0887249774190035288e-05
1.0884192312793979857e-05
1.0876434865826376682e-05
1.0867033926495770846e-05
1.0859645833632821591e-05
1.0861311918788596907e-05
1.0896690886837122212e-05
1.0983475407855514502e-05
1.1058264584389829898e-05
1.1117970661855463768e-05
1.1167874207233873817e-05
1.1214088277193438246e-05
1.1261958547619156944e-05
1.1314331336703317281e-05
1.1371831751905634702e-05
1.1433363569631166566e-05
1.149609858096670628e-05
1.1556688677372711584e-05
1.1611715976629921959e-05
1.1658575000371307492e-05
1.1695272325297477071e-05
1.1721050535128031705e-05
1.1736694655128718083e-05
1.1743500452792148426e-05
1.1743639422183085066e-05
1.1739500554389831774e-05
1.1733418032119956328e-05
1.1726323526023832826e-05
1.1721675008620000076e-05
1.1735384037203537699e-05
1.181179369798879454e-05
1.1925759240412310837e-05
1.2019527576593739548e-05
1.2092244547751976316e-05
1.21464937735040251e-05
1.2187766962997355696e-05
1.2222428778927557896e-05
1.2256696650192529133e-05
1.2294149684972185429e-05
1.2334390535435093813e-05
1.237435979759076251e-05
1.2410425738103336948e-05
1.243840663215237161e-05
1.2456787891516896895e-05
1.2464945954688733836e-05
1.2464288949451811473e-05
1.2753623088064716771e-05
1.2747082988074764226e-05
1.2756516527167621985e-05
1.2819737972383465734e-05
1.2988785166949257783e-05
1.3160057825615804187e-05
1.330762628975344453e-05
1.3429619107514499765e-05
1.3527204379009543262e-05
1.3604448594175724203e-05
1.3663691275205903488e-05
1.3705998656844394371e-05
1.3731012611482863435e-05
1.3739678844625206718e-05
1.3736441512121744173e-05
1.3726714986507764226e-05
1.3699003707636376323e-05
1.3612917864658059195e-05
1.3489391729926770018e-05
1.339586389763699307e-05
1.3335291384888838383e-05
1.3302030719752382118e-05
1.3286485385202443841e-05
1.3278354720445925436e-05
1.328398655877019514e-05
1.333340669085477104e-05
1.3466065530000552076e-05
1.3594670044905494114e-05
1.3699157472332557792e-05
1.3777728055317865256e-05
1.3831027611043419446e-05
1.3861597587578915059e-05
1.3874117566498704465e-05
1.3874702521588145424e-05
1.386958233489817661e-05
1.3862961002832711177e-05
1.3856789758394489026e-05
1.385166416647775592e-05
1.3846480938608043027e-05
1.38383215188612856e-05
1.3817787386542395702e-05
1.3759042851246307452e-05
1.3660583132989921823e-05
1.3570516225387895153e-05
1.349460782136091887e-05
1.3435164055090522702e-05
1.3392646544282042241e-05
1.3365366595864313292e-05
1.3348913730942730562e-05
1.3338760385777663343e-05
1.3332755748363506358e-05
1.3342259537316997214e-05
1.3404299641325883647e-05
1.355523573095861096e-05
1.3694867907605987381e-05
1.3808785142515591846e-05
1.389722676422489805e-05
1.3963166342021242396e-05
1.401008277967241903e-05
1.4042339010281359838e-05
1.4062500112819667028e-05
1.4072821570726479266e-05
1.4074572222240438058e-05
1.4069653515382641402e-05
1.4060720263862411922e-05
1.4049857530966082409e-05
1.403193420446358055e-05
1.3990566957689551551e-05
1.3891100972512855161e-05
1.3778435743681428515e-05
1.3680224562722317363e-05
1.3598494815105165756e-05
1.3536157776196623695e-05
1.3492505180986299286e-05
1.3466551670022792144e-05
1.3452671507032748038e-05
1.344405984402524516e-05
1.3447597684844530251e-05
1.3497380545897197398e-05
1.3658372963113486143e-05
1.3826908097366615087e-05
1.3955490780391035784e-05
1.4047674338706915133e-05
1.4110030625499598699e-05
1.415010334495731887e-05
1.4174538051877088693e-05
1.4188694801442695289e-05
1.4194732460034780261e-05
1.4194026899018052205e-05
1.4187384258684373998e-05
1.4177283823255964102e-05
1.4164586150258779397e-05
1.4147299463233411272e-05
1.4119406232833260642e-05
1.4060075581806778241e-05
1.3947365677918965925e-05
1.3831593793621706605e-05
1.3722709125977817257e-05
1.3625189163607122065e-05
1.3544611407383915427e-05
1.3484627809131628079e-05
1.3445741980339122448e-05
1.3424709322080927347e-05
1.3414552609919955494e-05
1.3409242372366483468e-05
1.3421493338349300642e-05
1.3494319878072778788e-05
1.3659510953071495157e-05
1.3807092999190796742e-05
1.3928254986114308042e-05
1.4023926095350259136e-05
1.4098271196244359997e-05
1.4155224721773013925e-05
1.4197890291147293609e-05
1.4229082569257917761e-05
1.4249119242995801369e-05
1.4259689929414971844e-05
1.4260627650881134096e-05
1.4254506741499991114e-05
1.4244737051295280772e-05
1.422825418267151483e-05
1.4187483171968965192e-05
1.406936522924057546e-05
1.3890414944199786298e-05
1.3739130148253333132e-05
1.3624556420370443778e-05
1.3546929421714834556e-05
1.3502204348813744738e-05
1.3479773500031358958e-05
1.3467917588430458018e-05
1.3467253541426943284e-05
1.3507306714464012106e-05
1.3628318342205764915e-05
1.3745801606964169839e-05
1.384140508092691488e-05
1.3916133608490956805e-05
1.3973289362699806615e-05
1.4015347459254941443e-05
1.4046209076410714179e-05
1.4069550131379449993e-05
1.4088041517286077105e-05
1.4104085396317722222e-05
1.4118695507256678862e-05
1.4132356963876958037e-05
1.4142418498452730938e-05
1.4147411238427842867e-05
1.4145726101073548362e-05
1.4137706259325807958e-05
1.4125992354687140175e-05
1.4105180005634614302e-05
1.4053858109960332715e-05
1.3906342805428090775e-05
1.3688393195910507984e-05
1.3507945357191819907e-05
1.3377765458819893915e-05
1.3298399828711081013e-05
1.3262103266981628422e-05
1.3249132651402101664e-05
1.3248743489647996709e-05
1.3289962184369645879e-05
1.3464137563692061037e-05
1.3749299549995996997e-05
1.3980348332266930779e-05
1.4153492210924457269e-05
1.4278595300448824408e-05
1.4371660506467245891e-05
1.4448868767366021304e-05
1.4520018546925854487e-05
1.4586951547602196327e-05
1.4643198533738099762e-05
1.468039839110108562e-05
1.4694104887407943028e-05
1.4688283623193213332e-05
1.4672130469246664444e-05
1.4628477721501637231e-05
1.4485237941257874224e-05
1.4203750023855570974e-05
1.397502885012359171e-05
1.3821972984991962204e-05
1.3739044713587064106e-05
1.370553678858274209e-05
1.3694119570642073361e-05
1.3700368541449169991e-05
1.3765474451145503669e-05
1.3872979895902706315e-05
1.3946919553214059121e-05
1.3989478518920281665e-05
1.4009776759069832966e-05
1.4016200707711436391e-05
1.4015810991848062387e-05
1.4012239045762734892e-05
1.4006344930280026744e-05
1.3998625895535172061e-05
1.3989323020080857035e-05
1.3976821599871806814e-05
1.3954720102748691425e-05
1.3902480157333012062e-05
1.376847033538368818e-05
1.3605684866668084503e-05
1.3465172263407476343e-05
1.3351399762529419694e-05
1.326525940573211841e-05
1.3205498238403576248e-05
1.3167315148177397089e-05
1.3145576233011338011e-05
1.3133916743350715695e-05
1.3126467670589787618e-05
1.3121587912750751621e-05
1.3123981719190914779e-05
1.3137655955106524572e-05
1.3148036526360878267e-05
1.3152803321663907987e-05
1.3152466579868837124e-05
1.3147587439773040366e-05
1.3139925240755418123e-05
1.3130379083380357746e-05
1.3119607395055737697e-05
1.3104999294990353544e-05
1.3077912099249623705e-05
1.3029898699093332029e-05
1.2982416723448202603e-05
1.2938126857739293073e-05
1.2897817472894984597e-05
1.2861668926015994702e-05
1.2829999038020747316e-05
1.2802830235047349289e-05
1.2780244581987841042e-05
1.2761730587955628742e-05
1.2746919730228364404e-05
1.2735394757004985219e-05
1.2726646497457847404e-05
1.2719760202739841787e-05
1.2714478657051315758e-05
1.2711349778161818553e-05
1.2711593387027503397e-05
1.2712747003815435859e-05
1.2713579315710936938e-05
1.2713849600683164756e-05
1.2713390838234228452e-05
1.2712139382513517686e-05
1.271021162449098403e-05
1.2707486697039094184e-05
1.2703769253486774996e-05
1.2698291613119673052e-05
1.268923680905363201e-05
1.2678099790886279461e-05
1.2666704698023506954e-05
1.2655408140657174197e-05
1.2644563199379527557e-05
1.2634434435091304412e-05
1.2625187546990329938e-05
1.261669868756657933e-05
1.2608870874852396048e-05
1.2601659486140818993e-05
1.2594723351652461419e-05
6.1845895876750499658e-07
7.2634869281219295589e-07
8.3646389935810114737e-07
9.8362759472317209501e-07
1.0795523323055430922e-06
1.1345715495098235543e-06
1.2304724160659599466e-06
1.4266459562871374735e-06
1.5585495925956222316e-06
1.6490294469503121961e-06
1.7793310211516015698e-06
1.9122750916126024459e-06
1.9865359569315714352e-06
2.0353964876928438242e-06
2.1301695201808156219e-06
2.2804584200153431146e-06
2.4046622015316406834e-06
2.4716398213671800026e-06
2.5170235785795610964e-06
2.6042161604986166935e-06
2.7740270471841953616e-06
2.9341552622599657694e-06
3.0531914126618626761e-06
3.153873221731056503e-06
3.2647436768490923927e-06
3.3801441261431589669e-06
3.4761215839889936569e-06
3.5404408585283560703e-06
3.588360813871944891e-06
3.6481411006096746968e-06
3.7369323361516038051e-06
3.8454428470258638926e-06
3.9468540658575573154e-06
4.0219146473951390325e-06
4.0755676446028066029e-06
4.1402333466578297399e-06
4.2511297904627778368e-06
4.4165054017742740738e-06
4.6036626436798563607e-06
4.7622023302305552695e-06
4.8618551520973180872e-06
4.9077417096968963944e-06
4.9257516974726155132e-06
4.9414979113897585878e-06
4.9716742711007432705e-06
5.0383725965697855355e-06
5.1620556457359268151e-06
5.318279982124397788e-06
5.4850379962374878976e-06
5.634015051986752132e-06
5.740077319238476933e-06
5.7963508709485057725e-06
5.8210216580228616777e-06
5.8483903525015031483e-06
5.9140725478187897903e-06
6.079076390664143358e-06
6.2687908408699924466e-06
6.418265852262200988e-06
6.5096673797356024264e-06
6.5481730638597473928e-06
6.5541902738720107235e-06
6.551007819086198445e-06
6.5516159015383166082e-06
6.5671037545072135407e-06
6.6375773398124425016e-06
6.838291716509677772e-06
7.0366970413114816144e-06
7.18009657953302985e-06
7.2734499227337068601e-06
7.3231832484494414423e-06
7.3418819519876389596e-06
7.3475667063998799112e-06
7.3591649566573934146e-06
7.3965598771781840512e-06
7.5108453132622385326e-06
7.6660197943990342293e-06
7.7923859244858863704e-06
7.876259246387231334e-06
7.9179309178526837754e-06
7.9299813767142237757e-06
7.9302607980936043442e-06
7.933434651128945254e-06
7.9520407928992516903e-06
8.0206050893220140328e-06
8.122614826730633841e-06
8.2134623908685403345e-06
8.2930834874059043091e-06
8.3652528290074844547e-06
8.4352059373768788176e-06
8.508128840030025115e-06
8.5872269446289364013e-06
8.6729876955957070005e-06
8.7654447331242219633e-06
8.8648616502945921713e-06
8.9703625895010964778e-06
9.0764029494293496083e-06
9.1732772388437546418e-06
9.2504627270906441617e-06
9.3005099062557203867e-06
9.3234122681148970483e-06
9.3266315683566677273e-06
9.3214783829377766068e-06
9.3171146651198986352e-06
9.3241391176400483025e-06
9.3755317049120910915e-06
9.5385797020014788036e-06
9.707626915255924586e-06
9.8173085915383745035e-06
9.8772129178257624821e-06
9.9106909242740214488e-06
9.9429389664582467528e-06
9.9901812057019793854e-06
1.005779569641582555e-05
1.0140493466726700436e-05
1.0227317723747602631e-05
1.0304402248404569695e-05
1.0362214804832270426e-05
1.0396053994633241047e-05
1.040847774955053502e-05
1.0406032312350962474e-05
1.0397906413366600389e-05
1.0384845041792272575e-05
1.0369650622131547428e-05
1.0359240251174888018e-05
1.0353244152325788674e-05
1.0363100699087569688e-05
1.0431372593715975547e-05
1.0619484225395560558e-05
1.0797487830144517019e-05
1.0929692318912047832e-05
1.1019265794914787014e-05
1.1074038218416579823e-05
1.1106982441930463007e-05
1.1131339188661721522e-05
1.1157912565560075213e-05
1.1192718745231997374e-05
1.1236150129457548488e-05
1.128621225345909177e-05
1.1338880876804431909e-05
1.1390729881905041498e-05
1.143973030888642778e-05
1.1480506328687648139e-05
1.1509223421243512658e-05
1.1522676469771575759e-05
1.1522986275580232728e-05
1.15161950505751341e-05
1.1506955379059248399e-05
1.1498664840078925742e-05
1.1494925566415592944e-05
1.1511963692309043429e-05
1.1589290804146016027e-05
1.168513307027520952e-05
1.1757761011858233711e-05
1.1814220834034583807e-05
1.1861666831285380577e-05
1.1908272877489539044e-05
1.1959938037096999946e-05
1.2017394202147633033e-05
1.2079495147333654326e-05
1.2142556185793887763e-05
1.2202527548028981272e-05
1.2255950646397456618e-05
1.2300635928957690505e-05
1.2334352451065664968e-05
1.2355910098337759192e-05
1.2366336198423252089e-05
1.2368626477721660905e-05
1.2368292297260947271e-05
1.2371687201792619669e-05
1.2385535956674251597e-05
1.2416569488285075833e-05
1.2463941242910470318e-05
1.2523915263142375707e-05
1.2589302286451027187e-05
1.2651778211068787108e-05
1.2705137580137086428e-05
1.2746476423612757589e-05
1.277730591084866104e-05
1.2802648181310951098e-05
1.282927604497041945e-05
1.2862696468346961637e-05
1.2904563377035458178e-05
1.2953093634925855405e-05
1.3003801099357410401e-05
1.3049968303543953014e-05
1.3086367873814521711e-05
1.31097228641492514e-05
1.3119650500434309735e-05
1.3117729616666654383e-05
1.3426057210729922678e-05
1.3469507865718044658e-05
1.358083358883303142e-05
1.3704694339456139263e-05
1.3832541169010070231e-05
1.395759505163574983e-05
1.4076036011027913834e-05
1.4185188454675205522e-05
1.4285027566640344062e-05
1.4375423312667215802e-05
1.4452871862082875329e-05
1.451056599174467962e-05
1.4544376229736089514e-05
1.4554619328320232848e-05
1.4549498601640144832e-05
1.453413083904014688e-05
1.4482859442903600256e-05
1.43450696307384656e-05
1.4209951298786935585e-05
1.4119327801312862646e-05
1.4068403927445747922e-05
1.404593539746015407e-05
1.4036115369844409176e-05
1.4041262080512687248e-05
1.4095273245089664154e-05
1.4220660012986974924e-05
1.4329762222871211474e-05
1.441602726419286382e-05
1.4481324127829855664e-05
1.452799337376439902e-05
1.4559311935853841693e-05
1.4578952835192389765e-05
1.4589518848530209173e-05
1.4593480957472257685e-05
1.45935737972801274e-05
1.4590636586141692577e-05
1.4585751105748061542e-05
1.4579923503816435759e-05
1.4573330269536926017e-05
1.4561653869030873621e-05
1.4529491241216020787e-05
1.4439678566266756475e-05
1.432620945732736558e-05
1.423014789671140394e-05
1.4154459452382022494e-05
1.4100272599246454973e-05
1.4065840556756617494e-05
1.404605686579995548e-05
1.4035162707036517529e-05
1.4029122190726360707e-05
1.4039176646567037282e-05
1.4101869044539648476e-05
1.4232327575072715935e-05
1.4350296090987114898e-05
1.4451633922953715757e-05
1.4536928346378424478e-05
1.4608929619734101416e-05
1.4670421102549621752e-05