/*--------------------------------*- C++ -*----------------------------------*\
  =========                 |
  \\      /  F ield         | OpenFOAM: The Open Source CFD Toolbox
   \\    /   O peration     | Website:  https://openfoam.org
    \\  /    A nd           | Version:  12
     \\/     M anipulation  |
\*---------------------------------------------------------------------------*/
FoamFile
{
    format      ascii;
    class       volScalarField;
    location    "0.0125";
    object      k;
}
// * * * * * * * * * * * * * * * * * * * * * * * * * * * * * * * * * * * * * //

dimensions      [0 2 -2 0 0 0 0];

internalField   nonuniform List<scalar> 
75962
(
3.3687682863286117114e-05
4.3381089627642178204e-05
6.1472550446634328524e-05
9.1098563063208770813e-05
0.00011200194740543735939
0.00012452674072929820442
0.00014594541862735614115
0.00019358079950795094607
0.0002407496388186963006
0.00026589511632046957442
0.00027851924225840205386
0.00030203364602916402907
0.00035385372843487427046
0.00039330013285284571396
0.00041301767570768393133
0.00043911027798246532287
0.00048222892689256087809
0.00053258252651202698819
0.00058575486548474568239
0.00065307123597714133306
0.00074036391865322528048
0.00083057474060878875351
0.00089625139491578955861
0.0009304343928057413329
0.00095436312164972204441
0.00099544345649965550356
0.0010617308060724634303
0.001140687882132636723
0.0012108287609050273018
0.0012607197450023638254
0.0012952045525523063138
0.0013265808668188262993
0.001364290926546387131
0.0014105648399561729767
0.001468035095140827204
0.0015508634625407615327
0.0016793285443783901364
0.0018550227974024145056
0.0020465613059068884887
0.0022052097118430541954
0.0023013058552438306337
0.0023413058692931796624
0.002352562431104739029
0.0023584642857289055996
0.0023697689183134118193
0.0023969384917350896463
0.0024740504973031593634
0.0026118131217920640026
0.0027435134840629849494
0.0028463352045448001189
0.0029102455204326996459
0.002946446663404652961
0.0029866186177499734825
0.0030703056790523357983
0.0032668819512258681637
0.0035246951685768521285
0.003775287836518467343
0.003977820402796782874
0.0041082452543388858421
0.0041682202407936222791
0.0041818678655920404549
0.0041804742250225951708
0.0041767363027566247954
0.0041807901703358784154
0.0042144288256200359774
0.0043564625008217948074
0.0045676078699657838775
0.0047115708903306572838
0.0047928327636636023149
0.0048337092874890666763
0.0048672928635072653172
0.0049298326356855695987
0.005074186380066610623
0.005297467546987654971
0.0055485072730998286072
0.0057916251259923787545
0.0059915040441666112675
0.0061269522812101382542
0.0061977320366982937769
0.006222937170909283687
0.0062294810298031289691
0.0062368760208032425138
0.006258990599504236918
0.006337416162736291686
0.0065990896811713838782
0.0069885788985261680303
0.0073136040987753191123
0.0075617822888758741418
0.0077351477531613756569
0.0078438330206103776959
0.0079027902654951309031
0.0079298134441554424257
0.0079439097579730721943
0.0079649066117450963154
0.008013250827344643723
0.0081541241138122135673
0.0083978167026815646323
0.0086215518971694202199
0.0087923092561460816641
0.0088952078255438906534
0.0089384728914317316401
0.008947173834372434964
0.0089454680606181734975
0.0089453104184050828696
0.0089547101971255028269
0.0090078298039728832425
0.0091831105348868600352
0.0093952497573954792814
0.0095826489744894362277
0.0097644048811354605677
0.0099531537291665510975
0.010151983997022750658
0.010355078409489225713
0.010544457840174289651
0.010703038833186703446
0.010826027182438297328
0.010922033717085112905
0.011002986297772935839
0.011074317247556732247
0.011133503096452940576
0.011175901814784545626
0.011200188525274452217
0.011211451069918795462
0.011218397476050663911
0.011230583958562030678
0.011258904930872457376
0.01133709508984866686
0.01153794708789555
0.01179297597534399028
0.012045168100855546331
0.012272646640947409633
0.012465031315275173704
0.012628544420057362385
0.012776425458566902441
0.012921577894941967818
0.013073367074964297591
0.013232645327094552309
0.01339267400114271464
0.013542525323714143734
0.013673012626795285826
0.013773864938291914897
0.013843901809122817828
0.01388364472374186559
0.013899746785001105068
0.013902378519714632399
0.013898880495113310335
0.013894052315535542624
0.013895962274508486672
0.013921743295034996746
0.014038672113896987631
0.014386478024773826506
0.014760477646972835694
0.015049195310969584738
0.015261786216886962658
0.015417317668623781168
0.015538407844960293314
0.015645225527574725677
0.015757353845735386222
0.01588990517531127869
0.016044393618229291221
0.01621780277955760588
0.016401052688557425652
0.016584379234408617304
0.0167555565348567366
0.016902596398377441045
0.017015048212850630849
0.017086235054565346997
0.017119848822695609564
0.017128841926772459675
0.017128404096000585805
0.017120297624062443681
0.017115916137139527281
0.017120513515931180121
0.017157117458450957259
0.017307318944738341732
0.017564739943604787409
0.017781942852395680316
0.017957178304379373124
0.018103590042348870204
0.018236522617093058746
0.018375872666995484578
0.018536364404923972443
0.018720322918999419276
0.018924404779553698208
0.019137176375840767029
0.019340433999809249904
0.019517082564409843348
0.019653338230995874569
0.02203228251507919136
0.022077391938617133699
0.022242435466678193989
0.022736990684917537942
0.023377170721990071095
0.023952964708691969892
0.024452448572088586465
0.02487216969478063186
0.025223093397694556356
0.02551048424432249967
0.025734809862692803462
0.025884953728919378457
0.025961468033467792471
0.025980856428133931174
0.025973091819290302501
0.025908061366001475245
0.025639865022449494919
0.025186049622168575624
0.024847734615020506538
0.02463382599483183652
0.024525925329693387678
0.024489497273977992031
0.024486945729723093995
0.024501847117007809901
0.024574971846203882281
0.024834617785228232933
0.025321707534771122072
0.025772048969438469262
0.026160631743975575753
0.026473137579188271012
0.02671000802659285675
0.026877904767711430223
0.026991342291429874789
0.02706398858931528123
0.027110726793210113833
0.027137941254159816951
0.027150024267650757492
0.027153238850068660976
0.027146254524358499199
0.027100598432680873817
0.026924503199877273391
0.026563615076345321181
0.026244545169150985953
0.025994807926250168562
0.025815743271303634443
0.025701560851127271123
0.025640777139366084658
0.025617107912040901208
0.025614577739904689085
0.025624134045941059784
0.025679464249592453412
0.025892678041936307426
0.026490537422187338673
0.027156776851712600279
0.027716889550203668846
0.02815586774789137145
0.028469200066911948266
0.028673342807514989872
0.028792774691894274658
0.028855013823470016671
0.028882475361465858449
0.028889902250991670446
0.02888916839613741433
0.028882769502108114612
0.028859534693681809098
0.028781909425779253486
0.02853286707614393139
0.028136331116728051371
0.02777537137345457291
0.027469214388843192498
0.027224371771278167015
0.027047837925160831546
0.026934886304890392345
0.02688163832116801516
0.026869262261867775388
0.026876112614401270057
0.026928913977779231348
0.027150791391217638654
0.027823030991817109675
0.028604209575754553641
0.029232859884236770537
0.029707219567176645914
0.030045139719908069142
0.030273626264757876742
0.030422234938654108688
0.030518348042082293209
0.03057745525915999546
0.03060909300574423883
0.030619357630416010885
0.030619724956076645878
0.030613721890581820084
0.030591767517921888281
0.030526056242263809037
0.030324695047739960024
0.029894643519427572392
0.029461051183884281318
0.029062670242998758785
0.028718815186639976011
0.028449913094736656305
0.028264697156846246145
0.028163176907198283344
0.028128988559722394036
0.028130267892527885398
0.028165002507334346155
0.028327694064725624651
0.028889808260377420474
0.029702639182365649789
0.030383014248835174542
0.030919541013236177818
0.031323723708545414546
0.031610812892438035215
0.031803302202100598717
0.031927624992683027727
0.03200037835781138762
0.032042238224589222884
0.03205977916901999597
0.03206452455797302592
0.032062969537476941617
0.03204578991618538264
0.031971350321411746986
0.031707346298574877463
0.031052386561543420668
0.03039636546606556966
0.02986251190353584814
0.029474168772378111364
0.029232157330432974318
0.029120188186501045485
0.02908990361019345855
0.029096505422324163426
0.029166275749705768139
0.02946615430522624493
0.030202835405912967226
0.030904252405737485387
0.031473159361670194345
0.031910012681572882953
0.032229749703367796543
0.032452421469336245607
0.032604669201963774883
0.032710673476171278629
0.032790000460438645247
0.032858196790887327088
0.032923642333069318144
0.032987547505452755048
0.033039523332208747819
0.033077698675370151293
0.033092516326166838969
0.033093968289725821108
0.033080063859437021379
0.03300401589232909022
0.032714381076462434317
0.031886217885057389909
0.030980545820679529501
0.03027656049981618594
0.029801000160700311797
0.029543274317942447987
0.029457964157103212061
0.029456448853000326282
0.029523381575714255365
0.029842909999084586692
0.030859049271060173814
0.032089953332900697514
0.033091978270738765799
0.033884750900296078946
0.034509442761456232684
0.035025431202407093789
0.0354826908296441354
0.035906142140571493948
0.036288135570880633574
0.036594874545609813732
0.036795848422870106043
0.036883778439176909125
0.036893286750434232946
0.036854352937090412157
0.036628745970171523727
0.035770068746178947106
0.034433647859688630566
0.033432088861537340163
0.032805933012465288146
0.032506814478157078363
0.032426704996838549844
0.032436121542295019704
0.032548293235581136906
0.033000007106033069082
0.033611690534979990486
0.034030720182710867683
0.034281570032314391538
0.034409503275521093058
0.034464187935469584034
0.034482393256477179844
0.034486713626636716912
0.034487640370983889404
0.03448705733487227032
0.034480969977799216797
0.034453778977565213681
0.034354041789849742994
0.034012623176426101668
0.033256259910411367642
0.032532824936866232279
0.031924928613809938627
0.03145025413979467277
0.031110291869210701665
0.030892731631185884472
0.030773986524962822914
0.030725559405971606536
0.030715647288613458221
0.03071828272026720999
0.030739192299690881738
0.030821211209463943853
0.030964544356210592368
0.031082798949299023095
0.031169652881168248559
0.031226980942550146975
0.031259997143395529262
0.031274777989658754385
0.031279944563897432719
0.031279574821490546688
0.031272722261834841329
0.031240317725047633129
0.031126357795008628704
0.030930418366174928374
0.030746322711554481544
0.030581879229052384012
0.030439837041908016091
0.030322027446259204597
0.030229777372650035172
0.03016265495730223109
0.030117187068776862802
0.03008963738533260851
0.03007646144865857088
0.030072433341133766177
0.030072077385789663245
0.030075195558777131216
0.030088166485226486985
0.030124933133084643572
0.030167301020076982276
0.030201624246917441186
0.030227126480168366868
0.030244418515487900972
0.030255407563586970282
0.030260920518741615814
0.030263619079862406902
0.030264325531840049338
0.030262366799279058482
0.030252217855940181229
0.03022047947359777012
0.030177397142101092947
0.030137770485743349547
0.030102949061407171388
0.030074079146199750312
0.030052792402568150737
0.030038344893962839327
0.030029808258530625575
0.030025406811705721011
0.030024384137332341127
3.7096583775769517558e-05
5.1347960947068670883e-05
7.1168188814049377126e-05
9.8066453447164615492e-05
0.00011788474028992269047
0.00012970026501305461394
0.00014775706403923419014
0.00019465174122674610939
0.0002629345534856306326
0.00029996369815268311351
0.0003148050669413413917
0.0003409043422607117976
0.00038013637961191595145
0.00040419433611264512151
0.00042365610975536843307
0.0004663614485082188889
0.00053401768422389804623
0.00058274143199385226681
0.00061208861965736903465
0.00065451942036091339486
0.00073214794447495890311
0.00082808157507243795436
0.00090762849730184115039
0.00095866783812742148441
0.0010020256806018584296
0.0010615231638202114999
0.0011349642479440765364
0.0012023455383213099007
0.0012558517259452085628
0.0013076615148278831254
0.0013739870769484828668
0.0014543564263682945848
0.0015320348443735149445
0.0015895083277513086251
0.0016284231446992577207
0.0016756387578648220243
0.0017670348094654766448
0.0019151342689069741389
0.0020931206510565723324
0.0022521478863828533167
0.0023578346024392439484
0.0024096630605340146891
0.0024296099711291017226
0.0024415831765384481307
0.0024614280280929089553
0.0025045631241762747465
0.0026120262068360334748
0.0027742523632710595557
0.0029455826857619988104
0.0031004024037189483951
0.0032151346397350137954
0.0032813500128104390596
0.0033167549285082484692
0.0033596163075967095529
0.0034552674208873858548
0.0036659091391804928331
0.0039024279580467369742
0.0041055040580637138306
0.0042437101349356125268
0.0043130058230433053479
0.0043341774403237278215
0.004336507543495757809
0.0043390740433490553041
0.0043540089597248633063
0.0044224427621954521053
0.0046449056413964710452
0.0049036558779833030672
0.0050925487329349736904
0.0052138420334233671546
0.0052797008028558920292
0.0053150941693470834734
0.0053566215047939633523
0.0054419678852441009248
0.0055889439128807803792
0.0057859947874726001815
0.006004425784612603921
0.0062057175540505184891
0.0063570111554349705354
0.0064452932378745806524
0.0064819623003165962108
0.006493561795315953844
0.0065041972455192826122
0.006529416889427271109
0.00660637644978186514
0.0068360439858171501148
0.0071303068402572130843
0.0073801453519725945807
0.0075785315169985692854
0.0077284991674855000807
0.0078439052890532778156
0.0079443214206294902879
0.0080493892388002006438
0.0081721135463259913373
0.0083180114541680349322
0.0084846138388151824683
0.0086619242533295722625
0.0088336643556299332403
0.0089814751944083514451
0.009090117723033358868
0.0091537871306308585956
0.0091801886354456602168
0.0091860978229803824657
0.0091874162672863184109
0.0091938937868198990222
0.0092242055207633760761
0.0093309745939151485239
0.0095635093506653869044
0.0098240151803628446292
0.010103774131197095984
0.010382008599626462927
0.010630591939864960163
0.010831381145257702736
0.010983481139818849007
0.011100137969373750912
0.011200940431408477893
0.011301082917324404425
0.01140442627360133479
0.011506596111864055357
0.011596369338798939025
0.011665078567964608236
0.011708967202595645801
0.011731319565144216616
0.011740092153885935827
0.011744573127100041768
0.011753161049940990396
0.011776170409934720584
0.011849414013736554382
0.012085240144144387964
0.012467121880347858259
0.012811507315652842162
0.013090244592609344421
0.013297417739691015648
0.013448418008908518198
0.013568550491885609036
0.013682168452819654797
0.013806510733116374168
0.013948516562481876394
0.014106516388296458722
0.014271341572848612184
0.014429018868132189451
0.014569299444993228862
0.01468013543461355562
0.014755695438658461213
0.014795727668529981211
0.014807562916038928547
0.014807506046901465144
0.01480385825824062293
0.014805653882947347397
0.014831499724815204108
0.01494917675475187363
0.015210715516722237567
0.015442742774912750908
0.015634517140093943943
0.015798799532977979981
0.015951695041629226218
0.016108431570365993463
0.016278361960378837092
0.016464578397849212454
0.016664630690963046916
0.016870117044205022033
0.017071197490299203775
0.017258021990882721486
0.017423869610545133363
0.017563308385557689639
0.017672784434189341141
0.01775173889894805096
0.017800747698294358545
0.017824800192222378659
0.017832547512415718172
0.017834507412790866904
0.017836943667933570501
0.017851777090326790415
0.017926372524826410942
0.018194694441251647171
0.018582216208233224425
0.018908061983224526414
0.019168235654521866007
0.019371277081877566473
0.019535223042488315814
0.019679106255193926783
0.019819997585439345228
0.019966786409284429521
0.020117701887499669228
0.020265491098025275457
0.020403125167967477854
0.020521132159678687895
0.020616183115612880111
0.020684215840034703843
0.020725600284627877096
0.02293165923578515189
0.022946025949860587856
0.023016901432188541232
0.023280911468228953493
0.023935281976810111187
0.024610586430734986141
0.025208185109454380596
0.025717379908609876854
0.026137739859103378826
0.026480089250528263123
0.026749752249567812501
0.026948810453050770636
0.027075769363138973284
0.027135636514939918268
0.027148010932524072047
0.027136671325440474278
0.027058347685857148807
0.026755598448640852127
0.026311224084197715883
0.025990204255302382791
0.025800660915043495403
0.025717339757551131718
0.025700358524370036511
0.025707905674453971484
0.025763528638344589811
0.025984362629524932614
0.026530842989348105837
0.027067850312374783228
0.027514741310720961659
0.02786354673901521653
0.028116063513457564826
0.028281322260259540713
0.02837642319459937959
0.028423547084053386175
0.028444941964428951259
0.028455004569775219081
0.028460237350357988489
0.028463676370814254557
0.028463369705586584468
0.028451132088881142534
0.02839218211954203791
0.028183584680637134567
0.027819743999619474945
0.027497705284695049543
0.027238225556644339587
0.027047410527025621957
0.026924269723265763926
0.026860129927464393429
0.026836602423163047337
0.026835932199049221392
0.02685044330350271069
0.026927195383314065508
0.027217177536767812873
0.027876412825793877442
0.028500341504848224206
0.029024136481905098151
0.02944408982244870604
0.029769072369697290731
0.030011813131653599512
0.030190376667365778629
0.030316142537420282671
0.030399346018110982165
0.03044566745832502988
0.030463173908213354857
0.030463231114026226298
0.030455139146347807999
0.030417410168945672316
0.030280259420696818001
0.029895128379875294394
0.02945604059569988456
0.02908206205120033791
0.028779537843735967378
0.028559050334112184855
0.028416734034998284569
0.028348621552867259848
0.028332066470477517556
0.028339482610361371728
0.028400241785109803239
0.028658350269492923607
0.029396083715119231128
0.030180494192668366055
0.030798218609991517836
0.031257245990850147932
0.031581757192912986165
0.031802735254071456961
0.031949742801674389792
0.032048323935812854379
0.032110371860692155099
0.032144409257361061805
0.032155764352931083538
0.032156398800153355999
0.032149955864425129592
0.032126292951626202188
0.032056621205463778357
0.031845448408200013879
0.031392214542385679654
0.030925076989779035769
0.030488736317084718513
0.030102369081326556949
0.02978987456322311142
0.029566747953749063227
0.029435160204186582716
0.029381533568101060594
0.029376366456388115778
0.029393985852673991388
0.029490417697233831107
0.029855154750424762328
0.030638989452242932493
0.031356019708913558663
0.03196033293021774413
0.032451569066023595866
0.032845640713924227627
0.033158854023380181231
0.033404692673189920193
0.033595994520034103137
0.0337339279810293588
0.033826547887336792797
0.033873393992448423695
0.033887156238586978174
0.033884976036802683108
0.033853379171711349416
0.0337099834507717383
0.033205459504833473305
0.032419678031018757391
0.031771588788346946663
0.031298958834737426737
0.030998934199640486992
0.030850360482815045171
0.030803437689093101509
0.030803714601715197902
0.030852568867570099448
0.031084124608985724131
0.031688289922873473514
0.032279398477599155481
0.032767665027139666889
0.03315632441404915004
0.033461167088820707727
0.03369531383962733051
0.033879120608308971319
0.034031426672167262859
0.03416508212791997956
0.034290568756511423387
0.034410943607434879565
0.034526848878677456056
0.034624163723973817863
0.034695686243663696746
0.034734491267962359917
0.034743906760180430504
0.034738447174410901075
0.034692676877923489531
0.034502040822128640651
0.033846679238584108373
0.032854835420562424064
0.032052249320825565437
0.031492503864870707853
0.031172333887380800771
0.031052571929657424993
0.03104024109556200936
0.031084295827165243919
0.031320094512459067948
0.032183210628699360223
0.033601264178065269606
0.034779134611756697126
0.035682816251039341238
0.036351984775515093495
0.036863173552593768434
0.037297896383045515967
0.037706936718705376388
0.038100218936279045545
0.03844358932794832151
0.038692023872559072606
0.038820729210584603575
0.038849562566712680933
0.038827608734048675576
0.038665449227694652368
0.037987121171429015509
0.036596242777090122467
0.035495583357155316429
0.034789329181494910159
0.034438116472540546142
0.034332660169622317148
0.034334207381986295293
0.034418810994619915278
0.034793828047703090345
0.035385139913460490757
0.035805282158567791617
0.036062340651630962751
0.036202374499760818505
0.036269276610930836768
0.036300934000795564982
0.036317699628516338095
0.036325478257299988194
0.036327845712072190376
0.036326571628808951298
0.036313292077622558174
0.036254352970027881042
0.036042944452331450444
0.035412861257575610485
0.034638099302233632537
0.033982284826589548299
0.033464193939964442803
0.033085090629502426907
0.032836219079622329386
0.032692176903751847539
0.03262674714882490834
0.032608201373708331494
0.032607651742279968043
0.032617454643802237801
0.032661900107544557248
0.032762917664086184388
0.032849298807672497325
0.032910122089085711017
0.032948513747033329746
0.032967313343267683201
0.032974985386140943933
0.032975408395856456445
0.032971308634373405755
0.032949220967797558657
0.03286583454616483907
0.032678281724667475328
0.032494827176757279386
0.0323295503253588426
0.032186373403425928841
0.032065776349430009928
0.031968418383027802365
0.031893116839781084082
0.031838822926972605576
0.031801527582602885647
0.0317781661298228435
0.031765795511620044389
0.031761445431154243513
0.031760527624911785716
0.031762060563756910891
0.031769305416290014032
0.031789122633839372867
0.031810113395888774124
0.031826934427838717012
0.031839393789956933756
0.031847712462742358563
0.03185260776812597755
0.031855600888888252475
0.031856852322354314855
0.03185588478748347524
0.031849080356308151485
0.031827220915514972677
0.031797360172243771537
0.031768364455994790863
0.031741581075808947277
0.031718368129825737223
0.031699702161648787846
0.031686168386333098124
0.031676962860594279348
0.03167147548932985196
0.031669409194879059866
0.031669066315033175818
3.7206944596845460736e-05
5.116105230989156672e-05
6.8023324948631976386e-05
9.4420109957066381554e-05
0.00011429332787327846582
0.00012664715436316338745
0.00014894718029998121217
0.00020018973628749877486
0.00023915393191497818864
0.00026767784565577768191
0.00031175073892190534102
0.00036084444190070675803
0.00039019449865768655221
0.00040987089958520282881
0.00044920046787262792433
0.00051580062836345107625
0.00057441642305910945668
0.0006072187469384260133
0.00063036015639951383915
0.00067586019084443327114
0.00076769466589888570029
0.00086006023549422812389
0.00093383030087583593273
0.00099912061302212594287
0.0010716213989722840616
0.0011488450385002827239
0.0012162523489323308606
0.0012642100727727591594
0.0013013714750182501633
0.0013472568215440574105
0.0014149830620127298864
0.001498907479806501665
0.0015794247392038561744
0.0016410125660709456129
0.0016865977834469882395
0.00174241540034612819
0.0018394559164668039617
0.0019882561268537461349
0.002163696815709869551
0.0023191360222128637805
0.002421301323203274309
0.002470623877934066074
0.0024907142183284622892
0.0025074192246189092904
0.002539125478240001569
0.002610350925963020232
0.0027447012247684378014
0.002918747528338098713
0.0031098270441170462915
0.0032859152505237457752
0.0034155915771235619872
0.0034876616752269563523
0.0035220491864988625469
0.0035598380036463220244
0.0036445889029852189707
0.003854654107413465168
0.0041030917445764297086
0.0043061039579890530299
0.0044365496335271696615
0.0044973001840586295311
0.0045133881723583811618
0.0045150893846401330203
0.0045200089082573172844
0.0045446050382643632046
0.0046469137876526895106
0.0049392701514187481449
0.0052394735299559902497
0.0054633026471901735902
0.0056120356271425466885
0.0056942978639598169563
0.0057306536213378445055
0.0057491695000297365209
0.0057776612296402225441
0.0058458493911881749192
0.0060361839458045428441
0.0062977491233796719858
0.0065183700399204852136
0.0066715164272024190042
0.0067543649068973988722
0.0067861556563976908538
0.006797183785395253218
0.0068130300048333874638
0.0068556283948058710509
0.0069855782705198999835
0.007176876433203444039
0.007350777335580538363
0.0075057629628761087306
0.0076483370899227921466
0.007788354089707258919
0.0079357215327878882077
0.0080968339770020048007
0.0082729267648602635571
0.0084642653617562884499
0.0086714435719539885439
0.0088930564692085087297
0.0091186323456918898234
0.0093279523931973501449
0.0094974931774872723561
0.0096103566762574046956
0.0096669859858975314831
0.0096847438548947027692
0.009687589985721053315
0.0096927587991079144913
0.0097200917578252974544
0.0098384347854237469422
0.010195495741955665908
0.010576418660041948805
0.010835401125725948462
0.010985701013491876513
0.011074502849931028292
0.011157924080278189966
0.011275288691588685255
0.011443099625864408889
0.011651164267658902299
0.011873125464232723442
0.012073127315256976244
0.012225604021404087862
0.01231910790110923512
0.012362012736642396735
0.012371909149401266043
0.012370739472621961053
0.012359357275172670743
0.012343108507338810056
0.012338025111412605564
0.012342686744729849252
0.012383890859989400701
0.012564235056909638447
0.013039550670606114488
0.013502082959490617486
0.01385855485410478552
0.014111392219917612278
0.014276562633058475019
0.014385574164499242283
0.014471294413433831438
0.014559933295866866326
0.014666143296064422519
0.014792971953136387769
0.014940171785416447511
0.015101668128623868884
0.015269213035768084905
0.015433762765285507015
0.015575964922276502866
0.015682063024245795901
0.015742872729403088045
0.01576548105970516922
0.015768011557286801955
0.01576409569903522781
0.015763237840000714207
0.015775500583379648001
0.015845696029608859895
0.016084083259348323086
0.016378458704156620418
0.016610146728763160173
0.016796289377123418268
0.01695556395928169216
0.017111199010250762592
0.017281154153146547486
0.01746885278114430895
0.017671583545355147582
0.017878806894563864516
0.018078923577296984737
0.018262507278835653224
0.018424215117228245203
0.018557562581414024233
0.018656996824604189095
0.018722201267253331392
0.018758847393547849192
0.018782526492739273771
0.018814615768622647979
0.018879611961878640242
0.019001698475590824561
0.01917997255641664886
0.019402422530785404242
0.019644338029249194116
0.019876893389765473014
0.020078732384384855719
0.020241017574813384428
0.020370345457484940327
0.020483911701534948668
0.020602493325267697694
0.020741261949461509834
0.020903395575177129845
0.021082940500016147944
0.021268087621968655154
0.021441688413114740747
0.02159030094783228812
0.021704100619764930824
0.021779565170654938827
0.021817685099546658967
0.024153227537029614558
0.024347671776336361066
0.024788982050012488279
0.02528085012504559248
0.025793892132505404774
0.026304706472569869269
0.026798952721884334444
0.027264354457409704924
0.027696972634186762391
0.028092468022501260183
0.028434226930270260075
0.028694330362630447034
0.028856918931122306493
0.028924727009058359001
0.028932566155821896892
0.028903023220055765186
0.028736212362867486619
0.028233529481717273973
0.027747840741989517749
0.027441773055029858308
0.027291857890183072316
0.027250911195246654839
0.027255022880254029666
0.027311722392439223561
0.027553301392254120339
0.028074841180265552171
0.028536141233523198285
0.028910119579734619433
0.029203761249299964309
0.029426321645416385342
0.029591049765972526203
0.029712720608514760906
0.029801043860827849258
0.029863897189957612499
0.029909466346822715516
0.029938308643897827699
0.029952972118803683488
0.029957633514107843975
0.029955362334707167499
0.029932394012064773847
0.029829699035122832912
0.029498445801229913887
0.029078524248068712832
0.028737371892069853152
0.028483153737984184817
0.028316343149332200146
0.028226807301708914388
0.028192446995219274525
0.028190165095944137719
0.028204798211471437258
0.028283248787980896227
0.028575039849129225261
0.029149769112850630604
0.029682718427917111764
0.030153627961669930008
0.030561287342283645352
0.030913895710405772665
0.031221006946038406399
0.03149251040089687953
0.031729164032514550753
0.031928561031911772972
0.032080810522337785406
0.032179225203886357987
0.032227209444832739804
0.032238071072672645767
0.032232765054640254154
0.032198555613250252894
0.032060627232908658901
0.031635634315824917584
0.031113010850369233334
0.030680561946925352657
0.030342619446676752371
0.030104841202146945256
0.029958834579483888116
0.029893571008720355026
0.029881497300489997387
0.029894172759418441432
0.029978593801227446797
0.030316931328199077378
0.031056821442706949304
0.031720236618936796524
0.032258195073587736523
0.032681375827263457745
0.033013857168533881914
0.033276189321271340549
0.033483680570592491699
0.033642990681128664976
0.033757328896500932158
0.033826433573561166812
0.033858249112991574414
0.033863588136884337221
0.033859332905563047089
0.033835984622312270664
0.033756572739448528764
0.033499779822400772844
0.032932580272293218715
0.0323765921076343971
0.03188975152553271547
0.031496501752731234647
0.03121198567018564074
0.03103819134744224828
0.030959924032374932373
0.030947071333934046689
0.03096133583496041633
0.031048971910895541149
0.031389010483298347698
0.032211371073272987431
0.032997321320239775266
0.033638293191234243384
0.034139143163875694531
0.0345236233681013166
0.034820821741695012763
0.035064784021680554804
0.035273231516235785399
0.035457922459903652712
0.035616519303598874469
0.035738736478974901523
0.035818131481048058606
0.035851601770661357949
0.035856642528315031682
0.035841444357868110226
0.035748561221155113199
0.035384606668983978328
0.034501322298060618787
0.033674870789356332879
0.033043703540286399611
0.032617120781214002656
0.032373610663710798707
0.032274134954233764383
0.03225396728489427628
0.032268550816905001988
0.032370025612907707413
0.032760864879369404334
0.033459325377859581996
0.034081590973575555392
0.0346022463787266088