/*--------------------------------*- C++ -*----------------------------------*\
  =========                 |
  \\      /  F ield         | OpenFOAM: The Open Source CFD Toolbox
   \\    /   O peration     | Website:  https://openfoam.org
    \\  /    A nd           | Version:  12
     \\/     M anipulation  |
\*---------------------------------------------------------------------------*/
FoamFile
{
    format      ascii;
    class       volScalarField;
    location    "0.0125";
    object      k_0;
}
// * * * * * * * * * * * * * * * * * * * * * * * * * * * * * * * * * * * * * //

dimensions      [0 2 -2 0 0 0 0];

internalField   nonuniform List<scalar> 
75962
(
3.364767507944446494e-05
4.3379202076939897385e-05
6.1490162671611514784e-05
9.1111835053335496026e-05
0.00011198592406494022738
0.00012450960025277068915
0.00014597188106121237973
0.00019365119469711742999
0.00024075938573992589856
0.00026583933845507302322
0.00027846418302862380092
0.0003020384669485934228
0.00035389652468174637471
0.0003932752380064966774
0.00041295772966168175317
0.00043907914046120998007
0.00048223921943089318983
0.00053261094658547958065
0.00058580603283928762634
0.00065317040510944176981
0.00074048926671809703511
0.00083064548639159179778
0.0008962184934962727674
0.00093033529946404656692
0.00095428074439033328674
0.00099542544667336504798
0.0010617677927563635119
0.001140723812377219485
0.0012108115126531720888
0.0012606447092796374109
0.0012951052812414385121
0.0013264883339375811624
0.0013642144020946781781
0.0014105101718662029289
0.0014680390728318167253
0.0015509892991643790469
0.0016796071123960770993
0.0018553922203365799063
0.002046875814795600431
0.0022053413097180870998
0.002301237904875845508
0.0023411115897267460555
0.0023523238725883040441
0.0023582288358632891474
0.0023695564940025511981
0.0023968032626439962629
0.0024741626487274430944
0.0026119781616473218729
0.0027436309439700695863
0.0028463412504864441487
0.0029101217656817292799
0.0029462572740647551342
0.0029864892942383257021
0.0030704049843352765846
0.003267379217362959172
0.003525234841737421871
0.0037757194576965246412
0.0039780154191798762497
0.0041081639840725523577
0.004167936848481713398
0.0041815138752860402452
0.0041801273216174258951
0.0041764117565607234567
0.0041804984652447241961
0.0042143121398328540692
0.0043568611715067663212
0.0045678794479660830147
0.0047116258842988820513
0.0047927068492153255402
0.004833484473192096488
0.004867089975060795784
0.0049297870423839944623
0.0050745001039892668679
0.0052979351925665010836
0.0055489952289792523685
0.0057919904284403217476
0.0059916447695801738557
0.006126859542469964906
0.0061974648788900811233
0.0062225808258339534301
0.0062291152144586933379
0.006236541252522987723
0.0062587461081265744617
0.0063375018077227217653
0.0066000297089365174419
0.006989429565163044096
0.0073142036902447702187
0.0075621098797645884548
0.007735209089567766233
0.0078436616187531268962
0.0079024480632685113746
0.0079293757193962671748
0.0079434528567735706445
0.0079644939215202676525
0.0080129988232266174258
0.0081543967700088756251
0.0083981879752110053655
0.0086218186933421214063
0.0087923666935386668442
0.0088950217835732457022
0.0089381009099173073379
0.0089467276077368467629
0.0089450229273597275936
0.0089448926144122080373
0.0089543627922335257419
0.0090077524797114033595
0.0091834925388589571521
0.0093954986625344339563
0.0095828388231458307839
0.0097646102470602853807
0.0099534055509511391163
0.010152267154715283529
0.010355335693650739512
0.010544608471476516268
0.01070304344198097328
0.01082589995014221658
0.010921818683156139101
0.011002714302533017979
0.011073991440830193572
0.011133117871466565243
0.011175460225713600496
0.011199710977946144078
0.011210967086574879711
0.011217936356996869099
0.011230169759165364168
0.011258603341580131207
0.011337132215944753164
0.011538468953615786672
0.011793517033817061887
0.012045641954338057525
0.012272981275643225774
0.012465227344183975322
0.012628653906425537159
0.012776509462118742708
0.012921682260741853762
0.013073506327866241464
0.013232790550666827592
0.013392772345224991659
0.013542538746867822594
0.013672931405466369828
0.013773702944953544747
0.013843668568013240555
0.013883333304669256275
0.013899355547539160236
0.013901926044125732795
0.013898371104887142016
0.013893552483573426079
0.013895507912210476945
0.013921497224812800012
0.014039072452857260034
0.014387706628140347134
0.014761335948636433724
0.015049717503204098831
0.01526204700038786416
0.015417405594283069281
0.015538400661398181837
0.015645186736761039492
0.015757346920932197021
0.015889963998195141132
0.016044527995500088013
0.01621800067685148089
0.016401276295841583225
0.016584577503871173604
0.016755672197741947049
0.016902587111478399595
0.017014897437554670628
0.01708595504246762653
0.017119474152487716007
0.017128412387896065072
0.017127940272966633156
0.017119767419713150663
0.017115388063654216055
0.017120022049686670074
0.017156890375462831994
0.017307849300492700317
0.017565283888452517397
0.017782323243392319373
0.017957389610279973075
0.018103673431339811772
0.018236566553481457775
0.018375984680588982462
0.018536609114372239876
0.018720700877511726318
0.01892486201273834226
0.019137616149939282867
0.019340749851893865308
0.019517196803594698273
0.019653216224513075927
0.022031992193865253954
0.022077359568680638563
0.022243315460481034862
0.022739503234538920723
0.023379476194340137463
0.023954920136949942044
0.024454020800482097198
0.024873394453073800758
0.025224039154339371327
0.025511185907899445319
0.025735240617975448096
0.025885066917147783044
0.025961275792547942876
0.025980471077449711348
0.025972579868482215809
0.025907064776941400586
0.02563746678749701316
0.02518382216859601716
0.024846066792105870463
0.024632691780216989935
0.02452520587758717785
0.024489031914393385309
0.024486578000283823475
0.024501634077815245133
0.024575230385443295328
0.024836253309401257194
0.025323501901430029576
0.025773585861730476804
0.026161819614491533398
0.026473949225187691503
0.026710474682625853088
0.026878097312043859601
0.026991348679583519743
0.027063894353228902523
0.027110588479753807561
0.027137772013992096654
0.02714982294724760381
0.027153004207004591969
0.02714592155195347592
0.027099899850303955928
0.026922719499089704798
0.026561650791637539393
0.026242863202349132196
0.025993473633421824986
0.025814749277042206566
0.025700864539923758828
0.02564030504634629698
0.025616775201562056591
0.025614293615238946378
0.025623933705590434817
0.025679641806158320233
0.025894143426026923482
0.026493657483262763458
0.027159403915702443055
0.02771899002023877831
0.028157401918225726661
0.028470196606333573325
0.028673888174173541715
0.028792972300858685197
0.02885496351961309297
0.028882256074395158685
0.028889584976982345121
0.028888813892221382879
0.028882375791950611055
0.02885903289996197621
0.028780990476890051105
0.028530808367326646047
0.028134248577993282298
0.027773524526551334607
0.027467665673191175163
0.027223155945714474363
0.027046957393455851176
0.026934313233596286069
0.026881306960016195656
0.026869044634741157118
0.026875969520965669463
0.026929172715072346306
0.027152502449393343953
0.027826987701016301507
0.028607490367628017613
0.029235379175367438159
0.029709019404120622088
0.030046334906321577746
0.030274360696644044694
0.030422647981462509065
0.030518535529647648069
0.030577463653309364111
0.030608946079286124264
0.030619093805359758054
0.030619402163604945988
0.03061331748507845063
0.030591230637122754366
0.030525169701913507786
0.030322662811762608748
0.029892099889802306589
0.029458690590364124823
0.029060574973081509942
0.028717084986028554305
0.02844862206992604392
0.028263864327455857223
0.028162752082072757542
0.028128828593038331801
0.028130193501543453855
0.028165234322148364338
0.028329043463051022805
0.02889380517561542655
0.029706305833288718099
0.030385956127716207825
0.030921774085524451198
0.031325326202876119241
0.031611884668160998568
0.031803966269699432412
0.031927986300625654792
0.032000528565156047267
0.032042244170638695122
0.032059683528498389427
0.03206437360690694155
0.032062773269039550328
0.032045412915805218668
0.031970422826505466574
0.031704672701416483638
0.031048300702591753036
0.030392943760661803032
0.029859826768286922699
0.029472293525980956808
0.029231049365546449281
0.029119664741635034599
0.029089684505008893411
0.029096434932942789875
0.02916685047430100583
0.029468900012598064214
0.030206995878921800297
0.030907654882635558075
0.031475907374747383316
0.031912135403984645543
0.032231315415991411422
0.0324535232245615618
0.032605415430386003317
0.032711164763479974593
0.032790330357352764912
0.032858443033899918662
0.032923853303540077941
0.032987716378880621582
0.03303962391571786672
0.033077692168913423731
0.033092387202756735898
0.033093764024644076183
0.033079659372594633071
0.033002966077258305555
0.032711277508555888782
0.031880428520432657624
0.030975842633063802728
0.030273125157901040888
0.029798885699178316588
0.029542318459941416253
0.029457776398194888273
0.029456526087750924819
0.029524215526348960431
0.029846193487267313332
0.030866478363411189306
0.032096294283775861356
0.033097089947374008778
0.033888795748842660827
0.034512696093786286722
0.035028193771852469962
0.035485164321626627704
0.035908363583182258127
0.036289977757114157131
0.036596151854212964627
0.03679645769686542417
0.036883814296671861566
0.036893067188699515957
0.036853679111831801063
0.036626189235752275308
0.035762449162101264677
0.034426860433465968081
0.033427422316770476207
0.03280335808441930262
0.032505855829329410867
0.032426615295314153986
0.032436343817284281343
0.032549603227798810934
0.033003765823544854718
0.033614653672035331444
0.034032612341259739497
0.034282615193448148783
0.034409992414058399035
0.034464380192592639074
0.034482458098302040672
0.034486736287600731898
0.034487646010264862151
0.034487038891656565665
0.034480870683903264151
0.034453445874972683793
0.034352962960615358867
0.034009083063846243244
0.033251601873214763072
0.032528821553167060199
0.031921677328057014578
0.031447814687449567039
0.031108631935191793233
0.030891742077301373448
0.030773510561444762657
0.030725415268679001635
0.030715653374051053032
0.030718355050377361276
0.030739472342901027341
0.030822058206793307572
0.030965378548637203376
0.031083456853578307622
0.031170117227702329871
0.031227273302389689513
0.031260156972701860778
0.031274857897883506785
0.031279991677290390484
0.031279617523946597057
0.031272700890722433809
0.031240026112495222071
0.031125307386319495118
0.03092927451477776174
0.030745235075628773308
0.030580875610481051546
0.030438934519743884172
0.030321245367618137462
0.030229132706598278724
0.030162151492307272965
0.03011681710935014411
0.030089389053925334055
0.030076313917395260805
0.030072355486164627919
0.030072040465063294701
0.030075224044114230726
0.030088319177023963719
0.030125239730475976419
0.030167576583472119345
0.030201850963678184697
0.030227297247700131433
0.030244535340986870159
0.030255473441929605499
0.030260941209417878406
0.030263601499919526999
0.030264274787797609129
0.030262264258426523761
0.030252001638895457958
0.03022008778269264645
0.030177005720002980649
0.030137400708267474136
0.030102613774627067639
0.030073790586278521808
0.03005255651376189524
0.030038159112868226958
0.030029666211816987559
0.030025301579209816294
0.030024306268640849754
3.7121303668012569114e-05
5.1331240027860882314e-05
7.1185777115954543921e-05
9.8077009157668251977e-05
0.00011785846930066870195
0.00012966908692214882174
0.00014776541729752068152
0.00019476272109383475245
0.00026298962052548026857
0.00029992552322460365715
0.00031475331110672276737
0.00034089194828596978103
0.00038011871026840846847
0.00040413899484362979719
0.000423616215842258486
0.00046639993707433370163
0.00053405620385096994225
0.00058271756363135096719
0.00061205382373195091165
0.00065455797409040767428
0.00073226428791336940945
0.00082817772130314463649
0.00090762772327156670486
0.0009586123729220376137
0.0010019948319626768938
0.0010615434929386068953
0.0011349834192694021814
0.0012023138090732051267
0.0012557864877730810955
0.0013076253965151583575
0.0013740108118493739135
0.0014544010357818372599
0.0015320313158711958406
0.0015894269891989639635
0.0016283195123577974984
0.0016756234489866518936
0.0017671854077292254923
0.00191541913061849217
0.0020934029841049050548
0.0022522842766314514831
0.0023577844779245735359
0.0024094831396758906693
0.0024293811896607129044
0.0024413625776943583684
0.0024612494229827837702
0.002504495434143167408
0.0026122157151538213417
0.002774513151659451643
0.0029458384246338091203
0.0031005579052909861514
0.0032151115267675008103
0.0032811575656073294592
0.0033165052627886311074
0.0033594558828185005009
0.0034554162454567159332
0.0036663638789211313619
0.0039028315889064733347
0.0041057081979202882452
0.0042436455147225309731
0.0043127290872670602864
0.0043338151457380418366
0.0043361577178485082723
0.0043387573605264519519
0.0043537743620356726335
0.0044225233235389207337
0.0046455370130371251292
0.0049040769160307532554
0.0050927358000703035548
0.0052138070577459035351
0.0052794934724835103357
0.0053148215234779970159
0.0053564213274205794632
0.0054419671808421596348
0.0055891431878945102563
0.0057863161860273902223
0.006004735061486196103
0.00620588339290274911
0.0063569702328243691408
0.0064450573950754173891
0.0064816098263603058593
0.0064931832564264170202
0.0065038482022763506249
0.0065291522003748268463
0.0066064202751977352604
0.0068366892432144927769
0.0071308420622635025968
0.007380510694298884726
0.0075787100469599105734
0.0077285052097261913717
0.0078437925782082126847
0.0079441694377081917972
0.0080492686545853633917
0.0081720644296082913666
0.0083180419481811776472
0.008484704107325866107
0.008662034446830136139
0.0088337449457736964831
0.0089814680134682970541
0.0090899709579091939743
0.0091534803275503048847
0.0091797573082689886553
0.0091856182514527488087
0.0091869531863423715273
0.0091934961632266724157
0.0092239748146039305526
0.0093312093806867703327
0.0095639725526917174908
0.0098244989348482397035
0.010104287336010922202
0.010382481099176903497
0.010630936972739349691
0.010831545162635411797
0.010983457876935670203
0.011099982006671831047
0.011200732368261101871
0.011300882349503490326
0.011404244808664483479
0.011506394139006394586
0.011596094734450635225
0.011664704954795280731
0.011708501178384492572
0.01173079783908778824
0.011739553210181052911
0.011744050064876526696
0.011752677045872891859
0.011775796799309868126
0.01184939237500172958
0.012086127015348720887
0.01246804732020099192
0.012812220343644022125
0.013090676264757626288
0.013297595494805369148
0.013448427457736108342
0.013568492880500526362
0.013682130638709242426
0.013806539528787492577
0.013948606238103991931
0.014106619112586980466
0.014271402335725161953
0.014429017812808862462
0.014569236190255761831
0.01467999968697887396
0.01475545838051485828
0.01479536802171571748
0.014807102234244189087
0.014806994973110125871
0.014803324667292254088
0.014805160235665647955
0.014831208053932115956
0.014949532897413079363
0.015211256773957168575
0.015443083004918619142
0.015634722761142572783
0.01579894112244667817
0.015951837537034295467
0.016108612818850599757
0.016278591853845343629
0.016464849217127507097
0.016664924006740241408
0.016870406148449042238
0.017071446435350742105
0.017258192515087734942
0.01742392577676903781
0.017563230295903772826
0.017672580386991956075
0.017751433964825775319
0.017800366929877336347
0.01782436434169679812
0.017832072269485646498
0.017834002699849828971
0.017836414806452562803
0.017851325013111346562
0.017926370611813860489
0.018195775224534898457
0.018583216322243006208
0.01890883278177952348
0.019168748204039309097
0.019371547677978332574
0.019535311808305595715
0.019679116574786957583
0.019820032901652510915
0.019966899462319172287
0.020117875093856381341
0.020265661863233277312
0.020403217838690076991
0.02052108458051404849
0.020615966059635310037
0.020683836517768599411
0.020725093304490193463
0.022931298073943857246
0.022945757119025446402
0.023017077456956441806
0.023282573944229726509
0.023938135976983229702
0.02461299287518269388
0.025210172050952661671
0.025718935237369011659
0.026138919436364527887
0.026480964114023952671
0.026750354251178456999
0.026949129770222998714
0.027075785679572507425
0.027135378072345530537
0.02714759063512019871
0.027136100120841898792
0.0270572099760579797
0.026753086638632933569
0.026309022928633334776
0.025988606854880642871
0.025799626239254722787
0.025716718701202272851
0.025699944043369442326
0.025707610841164959398
0.025763649204203271925
0.025985798196268259513
0.026533224693509351727
0.02706974324235041085
0.027516178469869159717
0.027864514633954701184
0.028116589700810164232
0.028281473314023284488
0.028376299963508204438
0.028423271042263487801
0.02844461780166351178
0.028454691806863229714
0.028459955504017045436
0.028463412237708006491
0.02846309801832208955
0.028450727816567794592
0.028391359967623056026
0.028181662516128094809
0.027817753457024266273
0.027495968857201579655
0.027236824823876234353
0.027046364656957477823
0.026923551534678753089
0.026859663245719932884
0.026836285386260844144
0.026835654039597683224
0.026850278335361795617
0.026927531676371168484
0.027219256685090210957
0.027879323055141163462
0.028502753580622441215
0.029026088434831332635
0.029445604267344837462
0.029770195205090724949
0.030012597019365781781
0.030190864491590561208
0.030316360497859930895
0.030399321751280836135
0.030445443835501670438
0.030462823323307127582
0.03046285317266898135
0.03045471966691796345
0.030416785440873631008
0.03027883939740678293
0.029892599271120191134
0.029453822054768673266
0.029080183266393198199
0.028778040920638774808
0.028557953404371127365
0.028416015354021540579
0.028348211508905703931
0.028331816209080377261
0.028339332418992935897
0.028400569385601863448
0.028660377222481926013
0.029400175210271922016
0.030183722438850889291
0.030800630182608163682
0.031258934895440168567
0.031582873245709700005
0.031803438807739760341
0.031950163939410608505
0.032048537004707923492
0.032110403100390927378
0.03214427225159215834
0.032155493591134134967
0.032156054474317283254
0.032149514344524850185
0.032125701469899688167
0.032055657843802182194
0.031843288270656064376
0.031389471068407601151
0.03092249128812713313
0.030486401184443869677
0.030100396743702493435
0.029788366979211743091
0.029565746897994450021
0.029434626219899590049
0.029381337235531778534
0.029376296770586313167
0.029394080268757193097
0.029491199216952371925
0.029858296509759366111
0.030642831497984808486
0.031359253816594830078
0.031962979210321748602
0.032453675508191247301
0.032847293213188813454
0.033160127574678503748
0.033405654736027280693
0.033596679289290234949
0.033734357466704570361
0.033826740791389309226
0.033873376402467611501
0.033887005430788999516
0.033884748207781013873
0.033852826464893882863
0.033708371914771197153
0.033201172421087929432
0.032415592886783931026
0.031768357510872799465
0.031296682742145053024
0.030997550384783568306
0.030849674043010557462
0.030803161064675951136
0.030803576751010499496
0.03085296359203854033
0.031086255189776767355
0.031691814926307113054
0.032282298225056543783
0.03277007604161329829
0.033158277804836329417
0.033462711711848058815
0.033696509413451272708
0.033880050116312732111
0.034032164250342882006
0.034165694913802342747
0.034291110631319517144
0.03441144691160370056
0.034527291464159413914
0.034624487468673109669
0.034695838582875296319
0.034734441763005982629
0.03474370294005956622
0.034738104092556308655
0.034691876405958659013
0.034499837751470183167
0.033841016865651711576
0.032849585234973777137
0.032048283907742551591
0.031489971216846192326
0.031171108373108488004
0.031052263558044839592
0.031040293669858734504
0.031084878205418515346
0.031322574234399304383
0.032190812916176425595
0.03360864910645180309
0.034785053690418961392
0.035687272424075870692
0.036355298914051925596
0.036865793880706751451
0.037300201727876333702
0.037709103594723555886
0.038102179277682647618
0.038445114647220779425
0.038692915798219179591
0.038820977005183179842
0.038849439707922352183
0.038827168182196683532
0.038663557089514577481
0.037980100187969295655
0.036588964831258452559
0.035490408872241821503
0.034786379256601933363
0.034436941534313994517
0.03433250586019805789
0.034334347913297778854
0.034419854435316248054
0.034797257222935668031
0.03538806689177562137
0.035807219343396569367
0.036063463414927506012
0.036202960194209710121
0.036269568708390188816
0.036301097633148163291
0.036317800433054332754
0.036325531777507573394
0.03632786268530824314
0.036326549950318233473
0.036313124100278551531
0.036253712708195044712
0.036040764100966002359
0.035408063912599298251
0.034633841731470792202
0.033978792926423480314
0.033461529001035210384
0.033083230045269210184
0.032835062012561713751
0.032691570978310685591
0.032626520770550539174
0.032608177055255573029
0.032607690449991448556
0.032617620329150442959
0.032662429991394514861
0.032763565511339888536
0.03284978187160027957
0.032910446659876343989
0.032948699689460250739
0.032967401845901155022
0.032975024379793028972
0.032975440748313433748
0.032971312333477956202
0.032949050224497025696
0.032865027167318747181
0.032677159369795268085
0.032493807275600077034
0.032328615081440137402
0.03218552957269153747
0.032065028042420860854
0.0319677720016366268
0.031892578451369391068
0.031838392917113822467
0.031801199383931097464
0.031777934123464940397
0.031765650459696134766
0.031761368326858031852
0.031760497075366808661
0.031762083034202581722
0.031769415587223154285
0.031789315542796604819
0.031810292705084224074
0.03182709071324681116
0.031839518120716198135
0.031847799718488868648
0.03185265835744031937
0.031855614622558196813
0.031856827845851504177
0.03185581376656657776
0.031848913146944622665
0.031826919390571230262
0.031797044144582876923
0.031768047454857541168
0.031741279101949224084
0.03171809451494328469
0.031699466195625067289
0.031685972049460997546
0.031676804458602353387
0.031671354485297342762
0.031669321213096242318
0.031669001383156161755
3.7148880779708543941e-05
5.1162256221019975627e-05
6.8034227522893896329e-05
9.4424368559579302008e-05
0.0001142681715060738125
0.00012662378217269008515
0.00014896987347091483582
0.00020025237219083367427
0.00023915406568863855057
0.00026768398656084430812
0.00031178340239239776994
0.00036084188181491133
0.00039014132174423871808
0.00040982630447605527873
0.00044922824315675018983
0.00051584977915505631114
0.00057440312316087670241
0.00060714906889579734871
0.00063030870667836957303
0.00067591310455071345557
0.00076782341124326984952
0.00086013960930134472898
0.00093383391939011982374
0.00099911713933380393027
0.0010716412794271378082
0.0011488551212267565562
0.0012162064654450794546
0.0012641064006619843595
0.0013012682569541328403
0.001347214850853024979
0.0014150100737640189472
0.0014989527995727509012
0.0015794216724046171354
0.0016409383413105930582
0.001686504183571041959
0.0017424001782501477836
0.0018395888302768620935
0.0019885138292922567398
0.0021639476140865110745
0.0023192371088909583508
0.0024212132442853720633
0.0024704153967238574353
0.0024904777470129741031
0.002507217975705639066
0.0025390007382470746074
0.0026104089338417784706
0.0027448980027495279918
0.0029190295589693322602
0.0031101084626124131036
0.0032860778492032850437
0.0034155465177956399053
0.0034874287544669649135
0.0035217571870803684835
0.0035596353590898240776
0.0036446679084250243122
0.00385515217621357556
0.0041035038291692849804
0.0043062853504195908877
0.0044364465463166960144
0.0044969795063848896563
0.0045129879594664979933
0.004514717123899712227
0.0045196949580837853661
0.0045444253509079862025
0.0046471873973697183993
0.0049400630079886034482
0.0052399734622949906832
0.0054635378546743010308
0.0056120141832962100459
0.005694061732639149262
0.0057302884841927883425
0.0057487851369789665437
0.0057773544324139667824
0.0058457905677805170608
0.0060366516518346293244
0.0062981661532533301726
0.0065185744516921767869
0.0066714568735697157842
0.0067540873954110543578
0.0067857645814777059479
0.0067967845797086111348
0.0068126869197408729609
0.0068554578881744217267
0.0069858095164722442544
0.0071770867812495000443
0.0073509110120208668443
0.0075058390841088269349
0.0076483757155215523899
0.0077883859154576117259
0.007935776826655452712
0.008096925865522181312
0.008273058724284585233
0.0084644438893655762901
0.0086716785646127180626
0.0088933313085129486741
0.0091188912448651199966
0.0093281172539271053901
0.009497495222879506413
0.0096101632405940669301
0.0096666124894023586905
0.0096842552911550489753
0.0096870776131587725544
0.0096922889932295041432
0.0097198132362769536219
0.0098387660432975015262
0.010196619353695705185
0.010577074709004137196
0.010835581690545197792
0.010985559103064855904
0.011074260029316244577
0.011157754300572985534
0.011275273587974655662
0.011443225119703283321
0.011651357465845458769
0.011873292023941611414
0.012073183983740251937
0.012225489494164271109
0.012318794087719546135
0.012361528327377418676
0.012371325911850477794
0.012370124178522106523
0.012358686247187599186
0.012342475333031427409
0.012337434683151869697
0.012342156487045938262
0.012383639664105243125
0.012564928049143211583
0.01304102953513976669
0.013503097482858038639
0.013859158487941383373
0.014111632436149438435
0.014276535520264050511
0.014385400390571878235
0.014471089356765278258
0.014559784210720258177
0.01466608550417875835
0.014792990873154941364
0.014940225545194149928
0.01510171049610899846
0.01526922883526766854
0.015433743188851579975
0.015575876834396462298
0.015681859593036136941
0.015742524362837136132
0.015765011219900874201
0.015767478440804838513
0.015763527264268755584
0.015762682028636662568
0.015775045273158951747
0.015845653546436203052
0.016084782700569195263
0.016378943838766975988
0.016610425348079878999
0.016796444447551517332
0.016955679703784521523
0.01711134606648319692
0.017281361130157404243
0.01746911097120636483
0.017671868220579027564
0.017879076462527281055
0.018079134255435874018
0.018262622824886793477
0.018424203387587146513
0.018557404040980926552
0.018656700068527869163
0.01872180242775388706
0.018758403166319961158
0.01878210193125186625
0.018814276028401768354
0.018879438955476213896
0.019001727862908147221
0.019180195453347273493
0.019402794883394802739
0.019644777083493748793
0.01987729936848179127
0.020079023576363552034
0.020241146191672634153
0.020370319805567711074
0.020483801911385192407
0.020602411878940123102
0.020741302044827682888
0.020903589447953931091
0.021083249273893420184
0.021268413998016485328
0.021441921413042280137
0.021590355320966387459
0.021703933711608034557
0.021779184591424378264
0.02181713865079927539
0.024153267026307538579
0.024348756232840905456
0.024790775333771896544
0.025282675489821243575
0.025795723453528932728
0.026306446640953825428
0.026800552606044254766
0.027265808794598465903
0.027698300495372463886
0.028093647651503406149
0.02843515287944151787
0.028694875620633324143
0.028857018090153847834
0.028924445384927353897
0.028932102442038139939
0.028902254556964632887
0.028734318940705050327
0.028230400212125080633
0.027745574850427199426
0.027440306097262591456
0.02729102560833246427
0.027250444989769740528
0.027254704133822152401
0.027311872245203695081
0.027554916000172683527
0.0280768140627087881
0.028537672434611065925
0.028911247397110328289
0.029204534646938271059
0.029426797919074786092
0.029591293348575273964
0.029712780714817178807
0.029800958712737374984
0.02986370995926309474
0.029909210834330544199
0.029938010624074046923
0.02995265857328784434
0.029957322251648474398
0.029955036696539528301
0.029931876865238710161
0.029828501621504355246
0.02949601190757190558
0.02907635215134497797
0.028735601589059349414
0.028481826605350053089
0.028315445884174526847
0.028226258352012933289
0.028192122366561083585
0.028189917107576768773
0.02820466948434174545
0.028283621637083228295
0.028577089966143845445
0.029152039297782646882
0.029684726904011044663
0.030155353392122198619
0.0305627702200750688
0.030915186142922480156
0.031222142138268446643
0.031493491645344283414
0.031729954878832414278
0.031929103663742255947
0.032081052828907781482
0.032179169086381888276
0.032226922266862127742
0.032237681326220159195
0.032232336919975734801
0.032197920848436041574
0.032059157733231660736
0.031632684936431176848
0.031110423374667864338
0.030678432838793269488
0.03034096929228601025
0.030103665902006096489
0.029958089656318794697
0.029893160548990761055
0.029881246433604947282
0.029894065213802847869
0.02997911352839488161
0.03031960914424222317
0.031060143548487996468
0.03172288470149940004
0.032260241477388283682
0.032682932446230814061
0.033015062183225057924
0.033277136338877071065
0.033484411319208096103
0.033643501572502315655
0.033757592038293426917
0.033826439977921750335
0.033858033776585444441
0.033863236464172080664
0.033858886079101882527
0.033835351418799557155
0.033755472115478662998
0.033497165010182426703
0.032929227165129866528
0.032373620108686058938
0.031887247471458247949
0.031494572605525066045
0.031210678024005934772
0.031037468114071264935
0.030959656050419760709
0.030947023251863891441
0.030961459120923580379
0.031049751625506820385
0.031392009806234480451
0.032215792425882849859
0.033000866846529822163
0.033641063244493937812
0.034141224808866207918
0.034525166037587602663
0.034821997445706458219
0.035065733572552021391
0.03527403628292078569
0.035458611477096960152
0.035617060192421785836
0.035739082386281942338
0.035818252294481163489
0.035851525120167621052
0.035856468253265633139
0.035841074914702245047
0.035747421890210524797
0.03538095292186912294
0.034496097428420878506
0.033670731741722623176
0.033040651828896719366
0.032615130969280266282
0.032372521416500023295
0.032273666034979123229
0.032253785391987990772
0.032268601304099926719
0.032370958165086657909
0.032764258146787073045
0.033462892049734807576
0.03408472697269595425
0.034604863631015787828