/*--------------------------------*- C++ -*----------------------------------*\
  =========                 |
  \\      /  F ield         | OpenFOAM: The Open Source CFD Toolbox
   \\    /   O peration     | Website:  https://openfoam.org
    \\  /    A nd           | Version:  12
     \\/     M anipulation  |
\*---------------------------------------------------------------------------*/
FoamFile
{
    format      ascii;
    class       volScalarField;
    location    "0.0125";
    object      p_0;
}
// * * * * * * * * * * * * * * * * * * * * * * * * * * * * * * * * * * * * * //

dimensions      [1 -1 -2 0 0 0 0];

internalField   nonuniform List<scalar> 
75962
(
100069.41346534858167
99963.900037875690032
100213.469123343908
100228.65391240359168
100318.2225584507687
100385.60985392036673
100363.88752782349184
100352.38373126869556
100325.03215537857614
100293.92173162310792
100230.58924974119873
100172.82562890958798
100257.3828757438605
100410.9986766496877
100423.79199749947293
100312.5433155845094
100212.67661008390132
100196.76290394229
100252.29653819446685
100342.54883994851843
100414.32868315726228
100411.43212276414852
100342.07432212030108
100278.90928125577921
100271.24439595331205
100275.51269381909515
100257.65559188336192
100251.56079698713438
100271.31308191844437
100294.14768474487937
100327.59423001446703
100380.58294445183128
100412.96387176755525
100396.80149694577267
100365.33041512442287
100366.1020525949134
100398.40368398670398
100432.40900720086938
100448.93715594081732
100448.83470666313951
100447.98981356993318
100458.83869616599986
100485.1860203245742
100519.71686231839703
100546.37415674043586
100546.40599272042164
100513.47726299424539
100469.02473998739151
100453.59018289334199
100481.94879011560988
100525.75845435913652
100549.9114386196452
100548.68892254472303
100535.67549079919991
100520.39646516405628
100513.32321048872836
100508.8527298810659
100487.44698718636937
100434.8069138412684
100371.97210872378491
100334.92770629386359
100346.31127670155547
100395.29005591290479
100442.86269596831698
100457.01441520293884
100440.59158389261574
100426.8074954480835
100441.71609917262685
100475.74595373591001
100499.11725966389349
100497.1996409886633
100484.35289050117717
100481.18230103922542
100495.12896452641871
100503.79507034493145
100482.37537473253906
100427.16701228579041
100362.69429152856173
100323.73586693682591
100316.82846261326631
100332.12935683356773
100359.42427906651574
100385.23047800580389
100392.98019463209494
100377.81759883815539
100353.74018376458844
100340.59533547793399
100345.69879168301122
100356.86889022999094
100358.56454199852305
100346.60670540429419
100328.34190898723318
100307.86963399361412
100281.54789803845051
100245.13307994381466
100204.26677148710587
100177.22696752152115
100179.85532655677525
100211.44779170164838
100254.04175743997621
100288.36333947605453
100311.64087018255668
100334.46290257255896
100365.07923688506708
100397.2823802169296
100415.19880150163954
100408.76573128897871
100384.73697165652993
100363.04209780730889
100361.22101957100676
100382.81202798936283
100417.00483657246514
100447.87560297649179
100464.43991234351415
100467.22814458938956
100463.17585685198719
100455.4434295908577
100442.46095547942969
100422.75028700636176
100398.12586172670126
100375.48712336963217
100362.89886213657155
100362.91766690820805
100371.49412777187536
100380.58842904803168
100385.38976309848658
100387.80776897276519
100393.01491555175744
100403.2429667225224
100415.01472572081548
100421.90966580671375
100419.70434580778237
100410.45597790408647
100400.85412179163541
100396.7971322190715
100398.84879585351155
100399.82725378331088
100388.27140636763943
100359.99932095859549
100323.47307542836643
100295.7975157382898
100289.75090757779253
100304.0431972159713
100324.9670777561696
100337.63314631921821
100336.51102778433415
100327.25695497759443
100321.15096685109893
100325.48346597881755
100339.56583403534023
100357.153071051187
100372.6406084580376
100385.36582576468936
100398.04986519984959
100413.84099486304331
100432.03725615153962
100448.28682812707848
100457.32477700037998
100457.45923240941192
100451.89067811437417
100446.24880078693968
100443.85041852934228
100443.54753808310488
100442.21885429295071
100438.71531609511294
100436.42441489591147
100441.86564763824572
100458.96733509928163
100483.62983513029758
100505.11072524698102
100512.88240316897281
100503.40983739557851
100482.73803694880917
100462.62696749824681
100454.0633375265752
100460.80777812538145
100477.09990246145753
100490.95915592068923
100493.1009047714324
100483.63328021731286
100472.46260535469628
100472.15362898760941
100488.64084703540721
100516.68910756146943
100543.25784718047362
100554.50349689436553
100543.97426197551249
100515.23177790522459
100303.15179814226576
100287.4732410084107
100270.47413805950782
100254.9710465996468
100241.33056173678779
100228.60928098972363
100216.02526961595868
100203.68835743611271
100193.6860798823036
100188.45550042791001
100189.39769335564051
100195.91405666631181
100206.12984659921494
100217.4051953638118
100227.90734866177081
100236.85159699294309
100244.0626009824191
100249.61095742450561
100253.66580972826341
100256.97335377712443
100261.37743952311575
100269.24770174038713
100282.14075854499242
100300.02857655273692
100320.99123371846508
100341.99247454543365
100359.9201301830617
100372.54503359564114
100378.57854880565719
100378.3240575582895
100373.29472167030326
100367.15560242753418
100364.36983282855363
100369.26947835196916
100385.20314956255606
100412.47142124988022
100447.63218570305617
100484.84930864055059
100517.74637443151732
100541.77479565794056
100555.45312881085556
100560.1274905246828
100559.02016493411793
100555.9670246578462
100553.85930462203396
100554.14240220331703
100556.63252147998719
100560.06902192294365
100562.55796719634964
100562.43416376977984
100558.9353191981063
100552.3359884104284
100544.54580039822031
100538.65240047305997
100538.01215552634676
100544.77044175470655
100558.8390788022225
100577.31716796358523
100595.32448393781669
100608.01299769937759
100612.32179540031939
100608.32550654326042
100599.08381239333539
100588.69224974863755
100580.83543971506879
100577.73053500322567
100579.69898383664258
100585.8098790414515
100594.98677478283935
100606.84928635976394
100620.84073425782844
100635.93147012364352
100650.28507337580959
100661.31269275766681
100666.80848998285364
100666.07139770773938
100660.36087821780529
100652.57688715591212
100646.08569562196499
100643.62947558044107
100646.63594784135057
100654.72397416482272
100666.68555230367929
100680.28393401214271
100693.33698959005415
100703.63255684085016
100709.22624620162242
100708.66952975932509
100701.40481649973663
100687.75766494212439
100669.14335167304671
100647.79117822124681
100626.21072165119404
100606.4015794997249
100589.91387296108587
100577.34714177780552
100569.07565805777267
100564.87517131479399
100564.72720729280263
100568.36101393822173
100574.99443117498595
100582.76840452810575
100589.46778543459368
100592.90546455637377
100591.2778916687821
100584.18242115256726
100572.87392529106
100559.60709695774131
100546.8764967037132
100536.53426330347429
100529.54855329610291
100525.69801627460402
100524.07218144372746
100523.64164179028012
100523.57914567268745
100523.05611400850466
100521.21857707150048
100517.1413097622135
100510.06755083378812
100499.75938533329463
100486.35892661486287
100470.33962485310622
100452.75093588478921
100434.50303427754261
100416.28601729041839
100398.314753707411
100380.68125329837494
100363.24200003656733
100346.18765545370115
100330.43349698215025
100317.96959954888735
100311.38114072331518
100313.14940551870677
100324.62735608656658
100345.03741988139518
100371.37699075687851
100399.03263761122071
100422.95502352414769
100439.4871798070526
100447.07170187401061
100446.92578916580533
100442.05683658254566
100435.79062661193893
100430.56677634496009
100426.70217351289466
100422.73265315532626
100416.23880139927496
100404.81996496322972
100387.42691221910354
100364.63829864771105
100339.21465272504429
100314.6154754844174
100293.79099046392366
100278.84746256639482
100270.5742855577555
100268.46629277871398
100271.65772095684952
100279.42308807559311
100291.75517495925305
100308.7882370846346
100330.40655086222978
100355.26731894089608
100381.04457661694323
100404.31434256455395
100421.48327387840254
100429.75126464743516
100427.92963883806078
100417.00975522497902
100399.28568484353309
100378.05631976830773
100356.77385911754391
100337.67232218940626
100322.18482843213133
100310.33309619649663
100301.72415123420069
100295.60821010108339
100291.19427933913539
100288.0541827994748
100285.90181864604529
100284.6548366680654
100284.12499827692227
100283.88708778683213
100283.68211156284087
100283.49808741563174
100283.29196393095481
100283.40631278220098
100284.29673457631725
100285.95417189032014
100288.33254810135986
100290.93600527125818
100292.95069851138396
100293.67544190221815
100292.54476001289731
100289.51461458216363
100285.05440495026414
100279.95593335109879
100275.13839734326757
100271.24434515225585
100268.62407250418619
100267.22319555687136
100266.71283655625302
100266.90592898306204
100267.68634852916875
100269.2223931914923
100271.9236666548386
100276.102675329661
100281.85290112011717
100288.89062491890218
100296.67048534945934
100304.51970175417955
100311.85362209731829
100318.46262335438223
100324.67207621868874
100331.28222274447035
100339.15988868119894
100348.75636445276905
100359.88481486868113
100371.62659840122797
100382.31286035571247
100389.97315836555208
100392.84310200672189
100389.87127689084446
100381.06435071415035
100367.56443166626559
100351.17998426583654
100334.21553360574762
100318.87143560881668
100306.8748417073657
100299.32616902446898
100296.63131674048782
100298.57909098347591
100304.67128512542695
100314.2104606286739
100326.60319384677859
100341.31982004498423
100357.66527266557387
100374.77570259622007
100391.62321481223626
100407.16532075266878
100420.28220486440114
100430.06992213470221
100436.07128921207914
100438.27390792885853
100437.02477172158251
100432.9471391250263
100426.87988386591314
100419.68791220043204
100412.11802067252574
100404.67511190715595
100397.7738099329581
100391.75790193487774
100386.89310653183202
100383.32667942618718
100381.09573861207173
100418.38215965573909
100445.44657060015015
100451.28810897114454
100392.93322225048905
100339.96480129176052
100189.61070932316943
100152.94406508399697
100225.24106128953281
100249.17393688258016
100280.55970092346251
100301.04332431008515
100293.22313439106802
100364.61810557551507
100490.6026786557486
100501.17007104505319
100380.27718602094683
100287.35218535928288
100296.74841186702542
100341.91715620434843
100393.60394592791272
100449.95550953813654
100450.67474911590398
100365.25810357302544
100278.80551569844829
100274.69368058758846
100294.91341585299233
100274.51385315886
100244.69062662267243
100241.30817004159326
100260.03151289132074
100309.60449107296881
100390.80886592456955
100452.82991699893319
100459.87722524254059
100441.40582726316643
100438.69042080527288
100453.7280805430928
100460.37345813539287
100456.96936154378636
100443.13540448754793
100423.37180868712312
100415.07106698393181
100437.4184150465735
100489.17483995379007
100540.84657583170338
100555.24749111964775
100527.91882695330423
100489.46613807759422
100473.12569198702113
100484.00417844738695
100501.02014414394216
100505.33146897178085
100494.75563568886719
100476.93383531984
100464.54200485917681
100466.91154316115717
100476.18416072470427
100468.36399884495768
100429.33842750721669
100377.40132566160173
100346.77771616844984
100357.199112767732
100403.70985755034781
100456.9528959828167
100482.25152700877516
100473.95352780072426
100462.03523052179662
100476.18315623304807
100511.62701316241873
100536.59189486628748
100532.27289797713456
100509.07520065105928
100492.73264970733726
100494.08958582683408
100499.20814772389713
100483.15978762315353
100437.69696682554786
100385.36084778264922
100352.34274162928341
100344.17109022833756
100353.9211891869636
100368.76054932524858
100378.82264730255702
100376.63937783194706
100362.57813936512684
100348.26562546427886
100345.02502800313232
100353.77419835848559
100362.62306105149037
100359.59836611080391
100342.26385197941272
100317.43417558292276
100290.96282117477676
100262.84625339049671
100231.82065821057768
100201.04245860478841
100183.05432010801451
100191.2970143782004
100225.30692178428581
100267.4786560634675
100297.06276193264057
100311.13987737199932
100323.7248044940352
100349.69514605430595
100385.38114332772966
100410.4590847405052
100410.03336122063047
100388.60189770694706
100366.92394804258947
100365.09106854043785
100389.26324855495477
100425.21361447108211
100453.00983728306892
100459.08950577532232
100448.61073013141868
100434.70368135592435
100427.00947525500669
100425.09839119995013
100421.59891763032647
100411.80819314433029
100400.17201297415886
100392.22504853318969
100392.28091674242751
100396.73345867783064
100400.34000513718638
100400.58730374154402
100398.87777486415871
100397.27763458006666
100396.73518447394599
100397.90625324466964
100400.78030716181092
100404.23575439117849
100405.79885706825007
100405.7551784623065
100407.55108979981742
100414.44879341029446
100422.49087593065633
100419.03024910012027
100395.37809263462259
100357.30004968185676
100322.19943282293389
100306.58807449571032
100313.17936441519123
100330.7748547354422
100345.325404202973
100349.50779687197064
100345.75834868632955
100341.51776594761759
100342.11430163358455
100347.51551722201111
100354.10131991079834
100360.03474741980608
100367.34657553506258
100379.70472700710525
100398.25481227861019
100420.47622937247797
100440.38211053269333
100453.27725457744964
100458.31904417196347
100459.1547690659645
100458.79373602564738
100458.5637176346645
100455.41364591266029
100446.69917884976894
100434.98716251461883
100427.59704340773169
100432.62751956195279
100451.83360437306692
100477.24243085773196
100495.92600055385265
100497.87636888721318
100482.47115781244065
100458.62589968943212
100439.69292794003559
100435.59304485956091
100448.1755819155951
100468.00204265449429
100481.53067065410141
100478.88932685164036
100462.28544868750032
100444.07555806153687
100438.65006470435765
100453.36082990588329
100483.13267080110381
100513.35819727049966
100528.96904730740061
100521.58326987925102
100493.86977413401473
100455.91711728113296
100285.39160037660622
100273.91491931774362
100260.74236501990526
100248.13865662377793
100236.27266865978891
100223.72103953403712
100209.08694011603075
100192.8542738071701
100178.16908736957703
100168.90638023718202
100167.62071808287874
100174.38100072239467
100186.43838828553271
100200.13940492071561
100212.37539792851021
100221.37011864226952
100227.13730411911092
100230.80499963996408
100233.196205891305
100235.25530905881897
100238.50984899266041
100244.82966474760906
100255.75861376762623
100271.58829274856544
100291.22212873108219
100312.29555393500777
100332.35534149035811
100349.77201218481059
100363.73165503455675
100373.86715570995875
100379.66116788503132
100381.36814040623722
100380.32536743048695
100379.5346506863134
100383.13337714038789
100394.84639052105194
100416.33382738092041
100445.79496573969664
100478.33570675586816
100507.88918907324842
100529.46765555199818
100541.03739450919966
100543.67761865074863
100541.06524859709316
100537.6801019252307
100536.91242733120453
100540.30858197086491
100547.25792623887537
100555.34514778257289
100561.4042591254256
100562.88427290588152
100558.58152188258828
100549.3784255363571
100538.26317612080311
100529.56113781574822
100527.51247425477777
100534.48212080314988
100549.73889177911042
100569.42822215576598
100587.97342536988435
100600.01791433422477
100602.64050859482086
100596.40525532765605
100584.90326885141258
100572.96893122013716
100564.97257613543479
100563.20871852328128
100567.85482785729982
100577.3100709230057
100589.64806300432247
100603.36935865048144
100617.51700604453799
100630.98427591039217
100642.60991366085364
100651.20195685967337
100655.6746827531606
100655.58315549467807
100651.48164155673294
100644.9363779223786
100638.02451050507079
100632.94148306900752
100631.36758466449101
100634.79304979453445
100643.07112621454871
100655.62962896410318
100670.23312969433027
100683.78006890059623
100693.22187397895323
100695.87211857530929
100690.37279443717853
100676.88307256085682
100657.07555641827639
100633.35219265559863
100608.37673429591814
100584.62608259542321
100563.79589302795648
100547.05842962642782
100535.24724837801477
100528.85275854259089
100528.23585558396007
100533.27522394797415
100542.93223661022785
100555.15815540627227
100567.3275338208623
100576.75087203238218
100581.34235243285366
100580.29351671837503
100574.40870433747477
100565.63068307422509
100556.14250087449909
100547.40377785312012
100540.09243602387141
100534.27747480738617
100529.59360638748331
100525.50749693249236
100522.09359481238062
100519.13345617159212
100516.22884040411736
100512.93802870783838
100508.20626627226011
100501.20085566316266
100491.1916209400224
100478.22314948885469
100462.50765575488913
100445.12627885414986
100426.86080289595702
100408.23646257496148
100389.80010150154703
100371.89321159312385
100355.33242233344936
100341.40791700595582
100332.1602157081652
100329.87334977170394
100336.46180365636246
100352.34414790384471
100375.94614617542538
100403.64340436991188
100430.66339433313988
100452.41172720312898
100465.92317584491684
100470.85630197545106
100469.11518192461517
100463.97290666576009
100458.38993772443791
100454.19645358948037
100450.96480493857234
100446.70830545834906
100438.51741113977914
100424.42357059390633
100404.05272053970839
100378.50427637869143
100351.25585090574168
100325.73895758164872
100305.01153658848489
100290.70856103587721
100282.96334676547849
100281.04885922059475
100283.82447765312099
100290.69752323014836
100301.8554639044014
100317.74136559652106
100338.38501568573702
100362.6315523890371
100387.75657280051382
100409.94172325711406
100425.39577634830493
100431.47457822902652
100427.26968126810971
100414.10478359714034
100395.15696345192555
100374.13041213568067
100354.3023554514366
100338.23920373641886
100326.39702898502583
100318.27731951829628
100312.55018690245925
100308.05452617425181
100303.87490785610862
100299.58070459756709
100295.48007999123365
100291.83696644494194
100288.90357345818484
100286.83344534863136
100285.63310311974783
100285.19842785352375
100285.63906501061865
100286.6937407006626
100288.41703438166587
100290.74024662455486
100293.29204005401698
100295.61406275289482
100297.07140177063411
100297.27056619044743
100296.07739898632281
100293.75492892463808
100290.83224513668392
100287.96709768158325
100285.61366208837717
100284.04510588539415
100283.04876675715786
100282.33223144388467
100281.27357006868988
100279.87373855832266
100278.37732209272508
100277.32734116367646
100277.42464444128564
100279.25609586473729
100283.00101369463664
100288.39420620893361
100294.62529864547832
100300.94572086195694
100306.77719956212968
100311.9026120685885
100316.78857937143766
100322.27561600469926
100329.37177020264789
100338.71263247793831
100350.2556300664437
100363.14579960396804
100375.68606294394704
100385.75860213469423
100391.3320838152431
100391.00884975785448
100384.40391294495203
100372.33516701511689
100356.54838567230036
100339.29364182228164
100322.96399300952908
100309.58180527154764
100300.55697397280892
100296.57765906139684
100297.67794906487688
100303.38749010681931
100313.04501910370891
100325.89794089485076
100341.19051380894962
100358.10982222216262
100375.65939379460178
100392.73583350783156
100408.19796398186008
100420.99217668824713
100430.27259481798683
100435.59716497427144
100437.00469963323849
100434.96860555977037
100430.2463446729962
100423.70175630623999
100416.22442119654443
100408.6038228868274
100401.48071424358932
100395.28827410493977
100390.34651361135184
100386.86481678871496
100384.97561802597193
100384.62333625735482
100479.9278032703296
100590.04595004249131
100463.01517091252026
100341.35046832119406
100198.43823820778925
100139.26564388266706
100228.10663408091932
100277.8033506609936
100271.27296884807583
100355.38954810454743
100438.30119011524948
100430.47540432018286
100429.52713936973305
100490.96507022560399
100513.55482200760162
100440.84392663293693
100401.96449085637869
100434.0528596588847
100439.57739254245826
100420.67922082096629
100468.42155233454832
100512.90098466516065
100443.98280869929295
100340.4214790417318
100320.36807653450524
100342.17113887253799
100315.39487837388879
100257.23356091357709
100229.68672149667691
100253.04648113613075
100318.84740182363021
100407.06752186770609
100479.55142343160696
100511.62701583695889
100512.28640319510305
100502.34422008726688
100484.96546108777693
100472.8007798610779
100462.89202267001383
100442.47191331251815
100407.86222413083306
100383.89949763473123
100400.49120861304982
100458.76391115318984
100523.53564218810061
100551.76829131969134
100536.03053461613308
100503.73571329649712
100476.73891935027495
100456.90684665003209
100441.11133848087047
100428.96520175086334
100421.40319314562657
100415.65557234195876
100414.65532206442731
100425.4424247455172
100445.54554350406397
100455.05340330420586
100436.44744242505112
100400.15393723978195
100369.168430049991
100368.56076617921644
100405.39204979709757
100461.36337002205255
100501.45516498264624
100504.59863884013612
100489.40183576158597
100488.86080726856017
100513.3011060654535
100540.02776899460878
100542.14091985704727
100518.4340763699438
100491.56503771719872
100479.95379995153053
100480.87074789285543
100475.54394137300551
100453.4733351355826
100423.8627412225469
100394.9510758886463
100376.30528774342383
100367.23504592935205
100363.36452708633442
100360.21983828455268
100352.50779084333044
100340.56363064808829
100332.22125630632218
100332.22449536800559
100337.00600330413727
100339.98411899893836
100336.8308580020821
100324.97732790258306
100304.81484150230244
100279.14966840684065
100253.15007246848836
100230.68087495701911
100212.45589794528496
100203.59493608094635
100212.73980906694487
100240.52250505139818
100274.32929595511814
100296.53848831536015
100303.82118440071645
100310.23719369222817
100330.58879922702909
100362.95235244714422
100387.71284873454715
100389.62028105802892
100373.61732111453603
100360.52062469697557
100367.96696337652975
100395.9642220762471
100429.33158252194698
100445.56055805557116
100438.08700109914935
100415.70204555321834
100396.9273993793322
100394.51032466634933
100406.42532208474586
100419.95066797624168
100426.79108130343957
100428.81098792981356
100430.17213196294324
100432.73748705911567
100433.29280433652457
100430.27335297508398
100424.56471935733862
100416.63271338508639
100405.79397641784453
100393.14797411869222
100383.97566524641297
100383.26813744484389
100390.7854570637719
100399.89445576905564
100406.70638707658509
100415.15123204722477
100430.88571119462722
100449.7205290922866
100456.53621841641143
100439.0730075819738
100399.91975431991159
100357.41542967548594
100329.70230354153318
100323.99092613899847
100334.09078211942688
100348.77109299125732
100359.52664439298678
100364.28709575720131
100365.21330755657982
100364.49202131522179
100362.78125245272531
100359.9340955021471
100357.38038568323827
100358.93124276128947
100367.92820291125099
100385.50118949709577
100408.35752109969326
100430.66104657303367
100447.24882730031095
100457.26544109352108
100462.43639876469388
100464.53320043291023
100463.22042248312209
100455.92464930655842
100442.11082583658572
100426.8377415050636
100418.25699216996145
100423.52236453747901
100442.2721114642336
100464.87789361382602
100478.02647549960238
100473.88736042147502
100454.64208735452848
100430.22112164895225
100413.79285958368564
100413.78586822003126
100429.54129509659833
100450.23416275752243
100461.41122044203803
100454.84188711726165
100434.29388284482411
100413.05122110567754
100405.24674565157329
100418.01257721595175
100446.3929064986005
100475.65302684211929
100491.56691189840785
100486.57383325256524
100462.60875459542149
100428.51535987079842
100248.82229740105686
100237.77934650010138
100228.86655420500028
100221.84197061194573
100214.17585206670628
100203.41008724131098
100188.86837945181469
100172.93960520630935
100160.46643405823852
100155.42814008316782
100159.56066178271431
100170.82907210095436
100185.05698072418454
100198.55902732550749
100208.669029132172
100215.09267875821388
100218.72509656961483
100220.28187539344071
100220.77916660232586
100221.84128070058068
100225.73426836010185
100234.44943462351512
100249.25155773300503
100269.04623620242637
100291.34014687681338
100313.35963974698097
100332.69839765199868
100349.09655829794065
100363.49686003327952
100376.39307144007762
100387.29762638032844
100394.88027472342947
100398.3317607830686
100399.02561664972745
100400.18044852705498
100405.62500524529605
100418.40582253116008
100438.98483642254723
100464.3198209827533
100489.13210348018038
100508.40041372891574
100519.1222823857097
100521.73280259674357
100519.18902293022256
100515.93451934527548
100515.97989629067888
100521.19126662914641
100530.81810940716241
100541.93670322532125
100550.82002803398063
100554.26283310707367
100550.66718885974842
100541.21816226645024
100529.28932674055977
100519.86696563499572
100517.5081607868342
100524.51952778824489
100539.76910538773518
100559.16728620279173
100576.75575622385077
100587.37446854407608
100588.426462833595
100580.84988240050734
100568.60073241344071
100556.73891199164791
100549.44079578491801
100548.96080032234022
100555.02858072009985
100565.96510376618244
100579.28640920387988
100593.00644156230555
100605.88809710135683
100617.51988118195732
100627.63071838038741
100635.89005296403775
100641.81346080359071
100644.57623596434132
100643.55833508516662
100638.54842501232633
100630.50107907070196
100621.3083979722287
100613.80805273460282
100611.00911219793488
100614.93324955926801
100625.81647132104263
100641.2330334817525
100657.38591530793929
100669.76920524875459
100674.72408441198058
100670.40478771194466
100657.09605442854809
100636.66325997533568
100611.83196721096465
100585.54924658533128
100560.3295377343602
100537.75590860053489
100519.06715853963397
100505.22689846818685
100497.14162248290086
100495.4947213367268
100500.44770133178099
100511.30703669616196
100526.26939819281688
100542.61812616141106
100557.25247693635174
100567.82713104150025
100573.18888524240174
100573.31455311534228
100569.31342715711799
100562.75438099142048
100554.95130220882129
100546.62834073368867
100538.07911241798138
100529.7940636746207
100522.01094451145036
100514.9654652991303
100509.33574655125267
100505.26301503107243
100502.37952876988857
100499.82047256760416
100496.07625498561538
100490.01609499388724
100480.93551788116747
100468.72366364348272
100454.17867482590373
100438.00448470054835
100421.32327894229093
100404.78894694424525
100389.03710399607371
100375.08219273026043
100364.35212080569181
100358.74251161435677
100360.18181431981793
100369.91136477571854
100387.7406125812995
100411.62789658493421
100437.85973973439832
100461.93465225095861
100480.07384158307104
100490.23404061394103
100492.80049042160681
100489.98576362724998
100484.87638289277675
100480.02597631503886
100476.30433498577622
100472.83850417511712
100467.36442085407907
100457.40011350439454
100441.49284689672641
100419.85622933837294
100394.27883215488691
100367.99744189502962
100344.37242833996424
100325.80872594019456
100313.23160406725947
100306.41456636039948
100304.17883176587929
100305.58143820025725
100310.40975034999428
100319.12234269785404
100332.43478317312838
100350.26423142259591
100371.50621154838882
100393.68054961074085
100412.59586747043068
100424.40333342217491
100426.81719047967636
100419.7160704122216
100405.09700373247324
100386.34939644660335
100367.42975625480176
100351.36290354428638
100339.87501111715392
100333.30671004475153
100330.11753329529893
100328.35621391577297
100326.21228777326178
100322.97791703866096
100318.38404110273405
100312.84631106346205
100307.1551800827001
100302.22029231787019
100298.53186928825744
100296.18204940982105
100295.10355736472411
100295.13620470244496
100295.9777793057583
100297.41096681861382
100299.34132802049862
100301.32308127473516
100302.94921582333336
100303.84836933561019
100303.68371160907554
100302.58591607172275
100300.81039992654405
100298.91634669236373
100297.31022431161546
100296.40630117109686
100296.098232949269
100296.07087569615396
100295.7908382860187
100294.85824543336639
100293.11369725619443
100290.96982886576734
100288.9149194258207
100287.59233054694778
100287.50957798316085
100288.91407885066292
100291.46203988287016
100294.59015866396658
100297.66249077957764
100300.41325665829936
100303.05403364518133
100306.18353559252864
100310.68201961470186
100317.51495992786658
100327.33868134302611
100340.10296748465043
100354.77863406733377
100369.58674768981291
100382.28699601792323
100390.72016915933636
100393.31979719280207
100389.45416056776594
100379.64970504828671
100365.4599752373033
100349.06385825910547
100332.84733103198232
100318.93668588704895
100308.96962101951067
100303.84929773221666
100303.82197177778289
100308.58798159887374
100317.45126572501613
100329.5830786160368
100344.09784986950399
100360.06908807616855
100376.53961494834221
100392.42362376797246
100406.63998632950825
100418.23649699380621
100426.53416300522804
100431.14803325349931
100432.14041542356426
100429.98034270342032
100425.4127607193077
100419.26714046609413
100412.38507227915397
100405.53077182991547
100399.34187517310784
100394.27827416984655
100390.62041894582217
100388.45367931503279
100387.80492008721922
100388.6231181701005
100390.7444628776866
100343.74664136429783
100180.18087540389388
100391.39508419956837
100437.98197369999252
100241.25773066199326
100195.02029020189366
100296.60620386779192
100280.62687004850886
100270.32416275280411