/*--------------------------------*- C++ -*----------------------------------*\
  =========                 |
  \\      /  F ield         | OpenFOAM: The Open Source CFD Toolbox
   \\    /   O peration     | Website:  https://openfoam.org
    \\  /    A nd           | Version:  12
     \\/     M anipulation  |
\*---------------------------------------------------------------------------*/
FoamFile
{
    format      ascii;
    class       volScalarField;
    location    "0.0125";
    object      pMean;
}
// * * * * * * * * * * * * * * * * * * * * * * * * * * * * * * * * * * * * * //

dimensions      [1 -1 -2 0 0 0 0];

internalField   nonuniform List<scalar> 
75962
(
99646.311770352302119
99646.919652413329459
99646.677707995128003
99646.533510180044686
99646.497169433045201
99646.375198961963179
99646.186088702233974
99645.948000572709134
99645.6745314799482
99645.365372952306643
99645.015361713551101
99644.642474812833825
99644.250100669072708
99643.812657011600095
99643.338583107193699
99642.871686713493546
99642.427681179775391
99641.988713815997471
99641.530855727003654
99641.042338590646978
99640.528552730509546
99640.005981756141409
99639.496176850123447
99639.008664485460031
99638.532401028714958
99638.056582309567602
99637.587784216826549
99637.133014359656954
99636.686312699079281
99636.242091502994299
99635.798140946571948
99635.348472574667539
99634.891030946469982
99634.435442801594036
99633.991408428002615
99633.557118127224385
99633.124984637179296
99632.69479794963263
99632.269572455217713
99631.853500386030646
99631.447497064436902
99631.049254924146226
99630.655448493751464
99630.263045992935076
99629.871080147015164
99629.482780323407496
99629.104986832331633
99628.743074393874849
99628.394976248193416
99628.050634817525861
99627.700944778756821
99627.345897861989215
99626.991421938684653
99626.642287995506194
99626.300312654435402
99625.964628574933158
99625.633177209980204
99625.307209053920815
99624.992542208448867
99624.696475989476312
99624.417894318350591
99624.14714486442972
99623.872525065293303
99623.589347573681152
99623.303127098653931
99623.023023811605526
99622.752317502323422
99622.485475906913052
99622.214554455698817
99621.937413593972451
99621.658981200045673
99621.384443592658499
99621.114008179225493
99620.841997214898583
99620.564872540227952
99620.285818266027491
99620.013035628580838
99619.753236771575757
99619.50504702978651
99619.261604790895944
99619.017147619189927
99618.768388224329101
99618.513828082737746
99618.256064930174034
99618.000281251588603
99617.751057400761056
99617.507851513641072
99617.266347013384802
99617.02268790792732
99616.777111230636365
99616.533021319119143
99616.293444199152873
99616.059681041413569
99615.832749589651939
99615.615133100858657
99615.409498022054322
99615.214938419099781
99615.025834190251771
99614.834719823760679
99614.636853590185638
99614.433130511722993
99614.227213296398986
99614.02087154527544
99613.81255923336721
99613.600071744644083
99613.383777778290096
99613.16783642504015
99612.957565386153874
99612.755118944041897
99612.558404351468198
99612.362169539177557
99612.161695008719107
99611.955682203944889
99611.745660377535387
99611.534657891374081
99611.324938102261513
99611.117852785260766
99610.914702228954411
99610.71736816727207
99610.52789023196965
99610.346691806218587
99610.171752177731832
99609.999973746424075
99609.828944706896436
99609.657644162725774
99609.486851669062162
99609.317395817604847
99609.148780936244293
99608.979203992843395
99608.806953124934807
99608.631457733456045
99608.453688069319469
99608.275124801788479
99608.097001603135141
99607.918997194312396
99607.739655541110551
99607.557851891586324
99607.375170711937244
99607.195654381997883
99607.022720825043507
99606.856494977881084
99606.693408630904742
99606.528395160741638
99606.358109153356054
99606.183051667510881
99606.006502228454337
99605.831768738498795
99605.66027514837333
99605.490692320818198
99605.320948385066004
99605.149378257046919
99604.975830253213644
99604.800881339935586
99604.624937689426588
99604.447879555897089
99604.269406177510973
99604.089455858862493
99603.909510825775214
99603.731733614971745
99603.557862687768647
99603.388319644189323
99603.222336840102798
99603.058894538829918
99602.897595502246986
99602.739223963391851
99602.58443839289248
99602.43256308058335
99602.28133427145076
99602.128449271825957
99601.97298908814264
99601.816498288346338
99601.661993189394707
99601.512389962459565
99601.368607173484634
99601.229088439373299
99601.090336035937071
99600.949188324870192
99600.805055526318029
99600.659829115887987
99600.516691153636202
99600.377187975333072
99600.240152536061942
99600.102154824824538
99599.959278526366688
99599.810062485717935
99599.656290899394662
99599.501814434654079
99599.350809849303914
99594.112632856675191
99593.945525670482311
99593.780458756853477
99593.617408673933824
99593.456097444199258
99593.296361007276573
99593.138375746653765
99592.982282156401197
99592.828166514242184
99592.675772746544681
99592.524518461592379
99592.373792613710975
99592.223072019318352
99592.072089051085641
99591.920968335951329
99591.770002099714475
99591.619570452865446
99591.470345204696059
99591.322903407752165
99591.17786738765426
99591.035731637341087
99590.896345384579035
99590.759048326595803
99590.62293862462684
99590.487244534800993
99590.351692975164042
99590.216644218657166
99590.082848330028355
99589.951142816265929
99589.822419233270921
99589.697682308484218
99589.577532996059745
99589.461773490023916
99589.349374832469039
99589.238513083793805
99589.126906650722958
99589.012557196576381
99588.894225375915994
99588.771848254153156
99588.646253247759887
99588.518865904348786
99588.391086231917143
99588.263973069784697
99588.137876984619652
99588.012541324380436
99587.887345612529316
99587.761681952601066
99587.635395602192148
99587.508684143918799
99587.382097919908119
99587.256362939748215
99587.13220659137005
99587.010010286670877
99586.889597265748307
99586.770115181003348
99586.650046351016499
99586.527667771835695
99586.401648660757928
99586.271489928432857
99586.137855924258474
99586.002226781565696
99585.866344525376917
99585.731572267293814
99585.598490542877698
99585.466963993952959
99585.336324440533645
99585.205635338978027
99585.074145617996692
99584.941233747085789
99584.806518334546126
99584.66968665549939
99584.530451302736765
99584.38882126637327
99584.245056050567655
99584.099784795209416
99583.954043123754673
99583.808843919672654
99583.66497997638362
99583.52268283480953
99583.381610739685129
99583.241004682538914
99583.099929288684507
99582.957506912454846
99582.813069233292481
99582.666270567206084
99582.517092881083954
99582.365943656055606
99582.213621778879315
99582.061273838175111
99581.910164234723197
99581.761247662623646
99581.615208017159603
99581.47229699404852
99581.332323409034871
99581.194777548473212
99581.058952766557923
99580.924076522962423
99580.789320044743363
99580.653904471590067
99580.517135036527179
99580.378506436682073
99580.237796063389396
99580.095010938443011
99579.950493957090657
99579.80488931365835
99579.658962116358452
99579.513428903563181
99579.368693491196609
99579.224810845524189
99579.081347145649488
99578.937656335619977
99578.793147743694135
99578.647461007436505
99578.500422441560659
99578.351966055750381
99578.202117076041759
99578.050966762049939
99577.89869995265326
99577.745671332158963
99577.592396113221184
99577.439417165078339
99577.287202868901659
99577.136044573300751
99576.986037356778979
99576.837100066535641
99576.689108322520042
99576.541985958785517
99576.395728023388074
99576.250430545478594
99576.106174866712536
99575.96281909586105
99575.819784414052265
99575.675945005787071
99575.529848459918867
99575.379838918481255
99575.224537064263131
99575.063241943440516
99574.896136632596608
99574.724177053358289
99574.548881225593504
99574.37191354870447
99574.194583630247507
99574.017619687438128
99573.841158629045822
99573.66498072075774
99573.488914142755675
99573.313149268113193
99573.138190606186981
99572.964850585034583
99572.793940004034084
99572.625975765593466
99572.460942282399628
99572.298401220759843
99572.13753208972048
99571.97743990777235
99571.817315185413463
99571.656431939714821
99571.49416266795015
99571.329920145784854
99571.163078854777268
99570.992852185692755
99570.818531205455656
99570.639592282779631
99570.456050987209892
99570.268421710570692
99570.077748375217197
99569.88547467700846
99569.693161377101205
99569.502127099854988
99569.313209594300133
99569.126698510648566
99568.942374980586465
99568.759720920075779
99568.578067770198686
99568.396772289226647
99568.215366169853951
99568.033405643567676
99567.850612841590191
99567.666806149980403
99567.481969190892414
99567.296151661110343
99567.109451382915722
99566.922046288149431
99566.734161742744618
99566.54592223338841
99566.357341372931842
99566.168318706782884
99565.978757134405896
99565.788583681875025
99565.597802820411744
99565.406531927626929
99565.215006922517205
99565.023547228600364
99564.832502328601549
99564.642146709287772
99564.452664810334682
99564.264135212084511
99564.076531396887731
99563.889722365202033
99563.703528347017709
99563.51777251745807
99563.332347654592013
99563.147202748208656
99562.962251952747465
99562.777340705666575
99562.592258336240775
99562.406827245096792
99562.22090900571493
99562.03446956386324
99561.847616314596962
99561.660550229178625
99561.47353051189566
99561.286795055537368
99561.100455767707899
99560.914459669103962
99560.728612716295174
99560.542647512484109
99560.356373638802324
99560.169794849003665
99559.983225840638625
99559.797293079362134
99559.612919470004272
99559.431244678460644
99559.253418259293539
99559.080404243475641
99558.912888096238021
99558.751214415300637
99558.595421071673627
99558.445350633774069
99558.300738939404255
99558.161244411836378
99558.02655008052534
99557.896464278324856
99557.770884286408545
99557.649802967134747
99557.53332214729744
99557.421712156574358
99557.315394235105487
99557.214925489024608
99557.120985878034844
99557.034369997156318
99556.955965563844074
99556.886700257789926
99556.827530339549412
99556.779429622722091
99556.743336442537839
99556.720072859621723
99556.710344829436508
99556.714789220917737
99556.733988474195939
99556.768486696513719
99556.818831349039101
99556.88557281451358
99556.969268675486092
99647.135146720000193
99647.343845215364126
99646.363969649057253
99646.289741868007695
99646.324276312720031
99646.199273034202633
99646.019021425730898
99645.804706715527573
99645.548825531630428
99645.249043919015094
99644.90271697701246
99644.532846961214091
99644.14364798067254
99643.711638117281836
99643.242178951055394
99642.776661072348361
99642.331580227037193
99641.88594004479819
99641.424021496175556
99640.942921460795333
99640.441014624651871
99639.924849363407702
99639.415873030942748
99638.93349912710255
99638.468341546642478
99638.002288570583914
99637.541524268657668
99637.094091169085004
99636.654019651861745
99636.214585999870906
99635.772211335293832
99635.320174772277824
99634.856513479127898
99634.392352914554067
99633.938855837113806
99633.495638651191257
99633.055691372166621
99632.617755770712392
99632.187767659401288
99631.770089411904337
99631.367637613366242
99630.977513755773543
99630.59191833656223
99630.201995874260319
99629.805018182538333
99629.407134119304828
99629.019733928143978
99628.648981469887076
99628.290721462413785
99627.936895889622974
99627.582334318678477
99627.228269395884126
99626.878309985026135
99626.535996717109811
99626.202758025479852
99625.875550512893824
99625.550884140568087
99625.228995904530166
99624.916801063605817
99624.621275256125955
99624.341969381697709
99624.070131486834725
99623.795057831972372
99623.510793725843541
99623.220447653104202
99622.934004368638853
99622.657801294350065
99622.387156793003669
99622.113041870034067
99621.832339072905597
99621.550067887743353
99621.272692281476338
99621.002568874959252
99620.735285946750082
99620.465469624919933
99620.194338648201665
99619.928270083619282
99619.672360508149723
99619.424859216902405
99619.180870148949907
99618.935684944299283
99618.68687272995885
99618.434713438793551
99618.181669413941563
99617.931317490263609
99617.685919309646124
99617.443867127120029
99617.200982383263181
99616.955419266378158
99616.708044457656797
99616.462769914302044
99616.222899002081249
99615.990418055385817
99615.766853834997164
99615.553519616150879
99615.35100931089255
99615.15735411120113
99614.967220214326517
99614.774198263155995
99614.574144339901977
99614.368281578252208
99614.160985790120321
99613.955327222080086
99613.750012305885321
99613.541384831332834
99613.328200393545558
99613.114016196021112
99612.904425012529828
99612.702318406532868
99612.505697213011445
99612.309288030621246
99612.108243215523544
99611.901628588922904
99611.692996357043739
99611.486600896299933
99611.284465507429559
99611.086408856979688
99610.890939371485729
99610.697725771417026
99610.507988183700945
99610.322927402914502
99610.142528338124976
99609.965065231182962
99609.789048640377587
99609.61436136829434
99609.441542479675263
99609.270777063517016
99609.101384283509105
99608.932215639812057
99608.762383787907311
99608.591022915032227
99608.41752967069624
99608.24220992816845
99608.065666077207425
99607.88803548742726
99607.70856184620061
99607.526061785538332
99607.341416817493155
99607.158258809475228
99606.98098548053531
99606.811289469944313
99606.646667384222383
99606.481941150093917
99606.313181307777995
99606.139787010368309
99605.963926392883877
99605.788651937284158
99605.615694684529444
99605.444702635533758
99605.274656806446728
99605.104910631256644
99604.935402936913306
99604.766109707037685
99604.596543824824039
99604.42573886916216
99604.252677589189261
99604.077329255407676
99603.900973588431953
99603.725544465298299
99603.55248694398324
99603.382296080046217
99603.214888510105084
99603.050114190860768
99602.888623688369989
99602.731624882886535
99602.579574087169021
99602.430925455395482
99602.282638404343743
99602.132208479073597
99601.978993496362818
99601.825020488831797
99601.673834945308045
99601.52838020172203
99601.388651268542162
99601.251914686334203
99601.114518066795426
99600.973556680633919
99600.829038518000743
99600.683613604298444
99600.540978247649036
99600.40280841322965
99600.267875369812828
99600.132219319493743
99599.991298509354237
99599.843018507555826
99599.688823527583736
99599.532781328234705
99599.379461109696422
99599.231971094108303
99594.260207365761744
99594.094566467800178
99593.929939643508988
99593.766305240627844
99593.603690837800968
99593.442329840298044
99593.282688282270101
99593.125480200775201
99592.971045662445249
99592.819122382978094
99592.66887717616919
99592.519044919885346
99592.368652976729209
99592.21750011468248
99592.065855295280926
99591.914210268194438
99591.763101701406413
99591.613185298323515
99591.465189571230439
99591.319511840076302
99591.176320229249541
99591.035716317419428
99590.897469496747362
99590.760970689181704
99590.625557518957066
99590.490746631432557
99590.356443567943643
99590.222959953433019
99590.090702905828948
99589.959991835392429
99589.83141658938257
99589.705627473304048
99589.583192194884759
99589.464343830302823
99589.34869232395431
99589.235136490358855
99589.121921399331768
99589.007095532593667
99588.88920169256744
99588.767767453580745
99588.643350343743805
99588.517208526332979
99588.390740739763714
99588.265079073840752
99588.140503346992773
99588.016538254101761
99587.892260577136767
99587.766821866578539
99587.639794412665651
99587.511361555836629
99587.382301235134946
99587.253766638037632
99587.127025553476415
99587.00287446580478
99586.881204815785168
99586.760954429351841
99586.640445688564796
99586.517764658390661
99586.391465703374706
99586.261081038363045
99586.127214891181211
99585.99148856739339
99585.855688872252358
99585.721149232587777
99585.588435727288015
99585.457328206175589
99585.326957537734415
99585.196288435559836
99585.064336137773353
99584.930484694603365
99584.794472405221313
99584.65629022930807
99584.516056836480857
99584.37399706983706
99584.230471847637091
99584.085981515483581
99583.941214064223459
99583.796942805303843
99583.653801579959691
99583.512196925381431
99583.372165279404726
99583.233281685912516
99583.094783300010022
99582.955696542077931
99582.8150267618621
99582.671924166352255
99582.525992696580943
99582.377439851465169
99582.22707041092508
99582.076182961289305
99581.926274113648105
99581.778554519216414
99581.633863147959346
99581.49263781317859
99581.354875699573313
99581.220257661465439
99581.088071733378456
99580.95746728379163
99580.827440436522011
99580.697052024072036
99580.565482416655868
99580.432000953005627
99580.296096942925942
99580.157603749335976
99580.016782543432782
99579.874237399853882
99579.730770768903312
99579.587164823518833
99579.443866055575199
99579.301019713122514
99579.158369018958183
99579.015520230444963
99578.872153929463821
99578.728104886205983
99578.583315193012822
99578.437706096257898
99578.291242938023061
99578.143833901951439
99577.995403766166419
99577.846051343207364
99577.696089413380832
99577.546034502345719
99577.396456014175783
99577.2478494617244
99577.100516785139916
99576.954527912705089
99576.809877269464778
99576.666476282669464
99576.524265495521831
99576.383197325601941
99576.243151703645708
99576.103739014142775
99575.964216086169472
99575.823478905818774
99575.680136249706266
99575.53271422367834
99575.380060711366241
99575.221770057731192
99575.058242890139809
99574.890501394911553
99574.72002768990933
99574.548244933757815
99574.37618478362856
99574.204287884145742
99574.032536958475248
99573.860780792601872
99573.689047439474962
99573.51774966850644
99573.347691087299609
99573.179930111742578
99573.015361251062131
99572.854362660989864
99572.696782638144214
99572.541941329880501
99572.388832845463185
99572.236471167241689
99572.083992322572158
99571.930733996749041
99571.77617877915327
99571.619830518495291
99571.461130672119907
99571.299335555784637
99571.133672169438796
99570.963528726322693
99570.7888563387678
99570.610300732849282
99570.429128793330165
99570.246928779029986
99570.065245899619185
99569.885284761592629
99569.707734678217093
99569.532668673520675
99569.35968578903703
99569.188119656289928
99569.017192598606925
99568.84638985908532
99568.675376671832055
99568.503926032863092
99568.33198840363184
99568.159554818470497
99567.986680752132088
99567.813446769447182
99567.639934361766791
99567.466212449158775
99567.292295920473407
99567.118229182335199
99566.943998189366539
99566.769570586431655
99566.594886488106567
99566.419912231576745
99566.244668434737832
99566.069264337871573
99565.893910836617579
99565.718914875789778
99565.5445883351058
99565.371165454096626
99565.198725963797187
99565.027267270575976
99564.856733717984753
99564.68704405266908
99564.518178063066443
99564.350155826017726
99564.183017808245495
99564.01678263656504
99563.851416808320209
99563.68685615096183
99563.522938994632568
99563.359459431958385
99563.196236777483136
99563.033224043872906
99562.87053222884424
99562.708411483326927
99562.547146646989859
99562.38694637628214
99562.227899840145255
99562.069947221432813
99561.912896744397585
99561.756497970491182
99561.600506730173947
99561.444831412038184
99561.289691303798463
99561.135667662703781
99560.983631635070196
99560.834635852530482
99560.689796491176821
99560.550158405603725
99560.416533913536114
99560.289433322279365
99560.169046374096069
99560.055265021175728
99559.947761154006002
99559.846104636235395
99559.749895705564995
99559.658858496171888
99559.572857534032664
99559.491873758961447
99559.416030267631868
99559.345602872534073
99559.281056000007084
99559.223025435188902
99559.172276812547352
99559.129684483035817
99559.0961849449086
99559.072738007613225
99559.060277661075816
99559.059701026722905
99559.071824276048574
99559.097389102593297
99559.137062459514709
99559.191439525529859
99559.261072352193878
99559.346508193717455
99559.448238420038251
99559.566718324902467
99559.702350335239316
99644.309654430820956
99645.575422459514812
99645.471723488575662
99645.485842832335038
99645.595932145850384
99645.582807636266807
99645.464587057460449
99645.302225768755306
99645.11829928412044
99644.88624099806475
99644.581979345035506
99644.232188107547699
99643.856147261481965
99643.450133253500098
99643.014513437650749
99642.577910510095535
99642.152699551428668
99641.710924759172485
99641.244550342584262
99640.775808159189182
99640.300250132917427
99639.799226023620577
99639.294875435618451
99638.816736516033416
99638.356641503487481
99637.893474527198123
99637.43292402572115
99636.992440998292295
99636.572746391742839
99636.159857064631069
99635.738120444264496
99635.297052239853656
99634.83651434755302
99634.366106597095495
99633.89818969683256
99633.438584267802071
99632.987658970319899
99632.546096932303044
99632.112680237216409
99631.687549662950914
99631.275049294097698
99630.878756840145797
99630.493807571736397
99630.109336571214953
99629.717896684931475
99629.322504227122408
99628.932440462856903
99628.553500710841035
99628.186398091333103
99627.828905978720286
99627.480013938475167
99627.139137796431896
99626.803724180950667
99626.471825550950598
99626.143387163247098
99625.817537637485657
99625.492268458561739
99625.167783859345946
99624.850479827829986
99624.546630791883217
99624.258557548833778
99623.981380240395083
99623.705835744724027
99623.42378753394587
99623.134770745557034
99622.846285319654271
99622.566519960309961
99622.295054750196869
99622.023590685756062
99621.74669731555332
99621.466840716748266
99621.190619881337625
99620.921969103452284
99620.658446942354203
99620.395193128540996
99620.129700734978542
99619.864817392852274
99619.604188975936268
99619.349445343061234
99619.099549002174172
99618.852241110100294
99618.60534618634847
99618.358407000807347
99618.11249797376513
99617.869695361150661
99617.630256647433271
99617.392849271956948
99617.154839582653949
99616.915417611497105
99616.67540645803092
99616.436679735314101
99616.201382388841012
99615.971929278806783
99615.750129999039927
99615.535892099884222
99615.329051708817133
99615.128188585658791
99614.930218068446266
99614.73023390986782
99614.525006834053784
99614.31634923753154
99614.108656971977325
99613.904320595640456
99613.701292391473544
99613.495029325509677
99613.284234428196214
99613.072793630082742
99612.866743185004452
99612.668448250260553
99612.47489209419291
99612.280512975412421
99612.080771584864124
99611.875853644713061
99611.670138227127609
99611.468329071634798
99611.272645299439318
99611.081540975384996
99610.891830115753692
99610.702074021814042
99610.512781715966412
99610.324997116826125
99610.138821508793626
99609.95426467237121
99609.771207485595369
99609.590577176015358
99609.412914945554803
99609.238476508602616
99609.067182265833253
99608.898681381368078
99608.732379022651003
99608.566311949456576
99608.397872986781294
99608.225749503370025
99608.050347390380921
99607.872364245820791
99607.690835491826874
99607.504541513641016
99607.314936229260638
99607.12606578147097
99606.94338985835202
99606.770158880055533
99606.604571066098288
99606.441631946974667
99606.276679083253839
99606.107415638020029
99605.934473797969986
99605.760030142206233
99605.586195842086454
99605.413893110322533
99605.243512900575297
99605.075095437277923
99604.908425156740122
99604.743054075501277
99604.577856730727945
99604.411410729328054
99604.242499741347274
99604.070925927735516
99603.897461540254881
99603.724064195674146
99603.552423261993681
99603.383371670570341
99603.217198593061767
99603.05432339986146
99602.895688312026323
99602.742121756455163
99602.593525061674882
99602.447677468662732
99602.301402755590971
99602.152639183579595
99602.001628100682865
99601.850894787319703
99601.703747747393209
99601.562331609689863
99601.426049720641458
99601.291583030411857
99601.155036129945074
99601.013814973848639
99600.868677984748501
99600.723101832540124
99600.58086537955387
99600.443537086917786
99600.309745624064817
99600.17525581047812
99600.035572254520957
99599.888518241830752
99599.735292962708627
99599.579788183691562
99599.426284187240526
99599.277726733896998
99594.24508234388486
99594.082653132019914
99593.920956354049849
99593.759537449630443
99593.59839623591688
99593.438204742866219
99593.279935038837721
99593.12450738849293
99592.972123262530658
99592.822026636495139
99592.673001117655076
99592.523824091578717
99592.373715778929181
99592.222662197906175
99592.071136759768706
99591.919791259613703
99591.769398209900828
99591.620716399920639
99591.474168285902124
99591.330182081248495
99591.188976367004216
99591.050382258690661
99590.91378427046584
99590.778331582492683
99590.643459679718944
99590.508926405833336
99590.374930120669887
99590.241791515945806
99590.109884063276695
99589.979431894360459
99589.850527457645512
99589.723420652153436
99589.598603757258388
99589.476623042923165
99589.357716078375233
99589.241457412470481
99589.126615972461877
99589.011435179272667
99588.894315111625474
99588.774359558898141
99588.651711592377978
99588.527452184353024
99588.402906461808016
99588.278954843539395
99588.155765842966503
99588.032891117603867
99587.909388835789287
99587.784273814948392
99587.657030640853918
99587.527700981125236
99587.397104572533863
99587.266661545014358
99587.137942088273121
99587.011994196946034
99586.888843317472492
99586.767473885207437
99586.64605824710452
99586.522587273415411
99586.395556677860441
99586.264532959990902
99586.130220149672823
99585.994126340578077
99585.858058390615042
99585.723396225366741
99585.590698274871102
99585.459649328986416
99585.329202463501133
99585.198179494051146
99585.065539683157112
99584.930772620762582
99584.793912534849369
99584.655135440378217
99584.514786055093282
99584.373143225166132
99584.230396893428406
99584.086794598624692
99583.942747666922514
99583.798933941347059
99583.656003568292363
99583.514609966427088
99583.375176528934389
99583.237716843766975
99583.101577052657376
99582.965710389093147
99582.828682615683647
99582.689255788864102
99582.546683824606589
99582.401026722494862
99582.253095283638686
99582.104274981160415
99581.956182058551349
99581.810246474909945
99581.667470865490031
99581.528346351056825
99581.392880100946059
99581.260765297207399
99581.131498893038952
99581.004314835809055
99580.878225547043257
99580.752200593604357
99580.625169628154254
99580.496231621771585
99580.364769868654548
99580.230461811137502
99580.093381628365023
99579.953999506644323
99579.81308026536135
99579.671404914406594
99579.529523659613915
99579.387667259128648
99579.245886385760969
99579.104015192220686
99578.96191102929879
99578.819624534487957
99578.677237554758904
99578.534715245637926
99578.391937059190241
99578.248659990247688
99578.104636624411796
99577.959786442574114
99577.814166468800977
99577.668131819096743
99577.522179983905517
99577.376994396283408
99577.232987743162084
99577.090358464032761
99576.949207154830219
99576.809512893480132
99576.671150828624377
99576.533856116380775
99576.397255671297899
99576.260815807705512
99576.123808510848903
99575.985220466347528
99575.843745144564309
99575.698222659309977
99575.547820833337028
99575.392326125860563
99575.232320758645074
99575.06890552326513
99574.903464535833336
99574.737208145350451
99574.570874804034247
99574.404740137164481
99574.238704289731686
99574.072660200501559
99573.906729549256852
99573.741396071083727
99573.577543972554849
99573.416281774523668
99573.258399326106883
99573.10418659284187
99572.953359003397054
99572.805217558925506
99572.658837725073681
99572.513256211866974
99572.367607349326136
99572.221299792130594
99572.073933024686994
99571.92508222979086
99571.774170486503863
99571.620453898169217
99571.463171052193502
99571.301855171477655
99571.136459927627584
99570.967731266835472
99570.797016170283314
99570.625939534016652
99570.456043087251601
99570.288401554731536
99570.123435859248275
99569.96095163479913
99569.800271440370125
99569.640566854024655
99569.481123176694382
99569.321436179438024
99569.161319095772342
99569.000814172468381
99568.840050545026315
99568.679224447769229
99568.5184595726314
99568.357816007526708
99568.197303383261897
99568.036943080558558
99567.876751894669724
99567.716731391847134
99567.556896593552665
99567.397222257233807
99567.237673609794001
99567.078270454745507
99566.919092407624703
99566.760292380844476
99566.602037125980132
99566.444522748628515
99566.287906759520411
99566.132293841568753
99565.977724857613794
99565.824193795197061
99565.67170457811153
99565.520252037385944
99565.369862906562048
99565.22062995620945
99565.072676278650761
99564.926094421723974
99564.780923639977118
99564.637123920183512
99564.494595424621366
99564.353195599745959
99564.212849172661663
99564.073582851007814
99563.935541136583197
99563.798976509497152
99563.66418310199515
99563.531363834612421
99563.400550972670317
99563.271594739708235
99563.144214406580431
99563.018088901502779
99562.892938518358278
99562.768644073599717
99562.645365179589135
99562.523641322681215
99562.404314074345166
99562.28839150944259
99562.176960450000479
99562.071055293839891
99561.971561805839883
99561.879096119489986
99561.79392574627127
99561.715993959689513
99561.645036105139297
99561.580680662838859
99561.522503860265715
99561.470092832067166
99561.423178202108829
99561.381778204609873
99561.34615457408654
99561.316711699968437
99561.293942067277385
99561.27844068504055
99561.27092822585837
99561.272236115459236
99561.283286274468992
99561.305034858567524
99561.338424814282916
99561.384314146751422
99561.443465153352008
99561.516528960972209
99561.604040499820258
99561.706468036427395
99561.824275738195865
99561.957932476332644
99562.107921267321217
99562.274708221928449
99562.45871994108893
99562.66033813157992
99645.039775246274075
99646.032356943134801
99645.770502562314505
99645.589693658359465
99645.593671126756817
99645.609125631497591
99645.498766309989151
99645.305144743906567