/*--------------------------------*- C++ -*----------------------------------*\
  =========                 |
  \\      /  F ield         | OpenFOAM: The Open Source CFD Toolbox
   \\    /   O peration     | Website:  https://openfoam.org
    \\  /    A nd           | Version:  12
     \\/     M anipulation  |
\*---------------------------------------------------------------------------*/
FoamFile
{
    format      ascii;
    class       volScalarField;
    location    "0.0125";
    object      T;
}
// * * * * * * * * * * * * * * * * * * * * * * * * * * * * * * * * * * * * * //

dimensions      [0 0 0 1 0 0 0];

internalField   nonuniform List<scalar> 
75962
(
299.71289519421691239
299.41382281635134177
299.59315692507783524
299.69882716432192638
299.94781870896144937
300.13917059613379479
300.13947628607616025
300.0622033375887554
299.95013210753677413
299.87040856239150344
299.825652920379639
299.83121555310879103
299.96121567317442214
300.11341635089365809
300.09002962101112644
299.92102218263653413
299.75665395954854375
299.68404390938962933
299.70470622331231425
299.7941706476606214
299.90689366190400733
299.97205858748355922
299.95150553707981089
299.86770941524304135
299.76161392545185436
299.63742429709509452
299.52282736010135977
299.48677237241702187
299.54387962109677801
299.64284556735714204
299.74747581891296022
299.83430022675270266
299.8564301252314408
299.79433696136186427
299.69495796278357602
299.62507767134076175
299.60427480728344563
299.6101536751381218
299.61249296733757319
299.59196070384950872
299.55044808436491621
299.50340660490059008
299.47202519980191937
299.46945354312748577
299.49051242542560658
299.51200723027932327
299.51025571282696092
299.48497020808520119
299.46213097816428217
299.45793271415419667
299.45850134942105569
299.44321687558897338
299.41147752309586849
299.37352931902785258
299.33289196368571083
299.29503440780865731
299.25529233335038271
299.20006013135758849
299.12128154841428795
299.04096935972791016
298.99411526599891431
299.00363504452644747
299.06215523002197187
299.13444867490943579
299.18638005297663085
299.21002328253808855
299.22368589131912131
299.24436790225865934
299.26545726762117283
299.26859925224232484
299.2504582896796137
299.23054993607581764
299.228681878334271
299.24774340427234165
299.26159822080654749
299.24243375162785696
299.18447539981514183
299.11158614935419564
299.06125754824961405
299.04753131335900207
299.06711462041607774
299.11197629761994676
299.16734008200239714
299.21339328479689357
299.24031422980880279
299.2564164072098265
299.27735854533699467
299.30917168264750217
299.34054419778698275
299.35610031721006408
299.35006731439466421
299.32808213408759457
299.29519553129011911
299.25160075621130318
299.19738866155080359
299.140174472566855
299.09727439008969441
299.08329902206338602
299.09894528927111423
299.13103136934472559
299.16571259443037434
299.20291675376154217
299.25241991626643312
299.31908817410521806
299.39220961105115748
299.45072006012787824
299.47897253236033066
299.47909703785404645
299.46954575645662544
299.47094771745395292
299.4931484168340603
299.53125379544979978
299.57100723368438366
299.59795969180680686
299.60557417028695681
299.59533654617143839
299.57082815179410318
299.53737280395807829
299.50351609982476475
299.47952593247174491
299.47513631289689329
299.49426437701430359
299.53048412783459753
299.56964349686523974
299.59676353865557985
299.60594301010740992
299.60444285960670641
299.60750800396453997
299.62826195458461598
299.67009547394502533
299.72557343130785057
299.78084700631205806
299.82286643943547233
299.84372139109979116
299.84148316310614746
299.81907068100730385
299.781317586368516
299.73356848691594223
299.68593923919110011
299.65332189356342951
299.6500555328051405
299.68011698856224712
299.73213712487381599
299.78489986856016003
299.82008975928602013
299.8326793301976636
299.83171230174980337
299.83343986709377305
299.85052394280802446
299.88642058435669924
299.93642290303876052
299.99318680677123439
300.0515795367401779
300.10864067522032883
300.16223054100828449
300.20792535871748896
300.23971185261825667
300.25254152755650239
300.24681348708833184
300.22943015706880487
300.21137502984953471
300.20226344279899422
300.20641071280050483
300.22324787885850128
300.24970560429636635
300.28302294777512316
300.32166925373945787
300.36318234854837783
300.40182436214229256
300.4307825601483728
300.44736746410842443
300.45675704053849131
300.47125460812770825
300.50415297006878745
300.56237609203424199
300.64114101600438289
300.72385764505406769
300.78830875175702886
300.81823371797793243
300.81162942581858033
300.78196513049033456
300.75031353224346731
300.73402261241841416
300.73901043478042538
300.7596811850921199
300.78374347616625073
300.79999069581054982
300.80297211960566983
300.89401003850139205
300.89325146351268359
300.88544366549314191
300.87676914306473464
300.87112357708457466
300.86966063560799967
300.87097248050662301
300.87175879225816288
300.86861552230453754
300.85843748007346221
300.83912686916909252
300.81028492764039584
300.77450145970220774
300.7372372123542732
300.70664623649884106
300.69155815126163134
300.69879021655452789
300.73100777507795556
300.78590668219766258
300.85693474030756533
300.93527317378965336
301.01169022446617873
301.07785522241812259
301.12770599305059704
301.15828343292292857
301.17032399986749169
301.16804168443303524
301.1581008277634055
301.14738085014761282
301.14158774044602751
301.14351475498483524
301.15370314186276346
301.17023627955973097
301.18976404897318844
301.20899703078475795
301.22479852413249546
301.2345958709649949
301.23754902792836674
301.23523237360495841
301.23215479462766098
301.23484368436260183
301.24987480190912947
301.28165098985817849
301.33079357647199004
301.39317680241100561
301.46088274846607646
301.52425466365230022
301.57469330498395266
301.60696423022699264
301.62071566778075749
301.62057148445057919
301.61461996868183633
301.61255491539748164
301.62289688139537702
301.65043600890481912
301.69432847660698371
301.74785945827733258
301.79981574266395228
301.83768032269188097
301.85177659046303233
301.8384354646523775
301.80152751257543287
301.75138859613213071
301.70125097289587757
301.66370400389291717
301.64769337024682727
301.65671816459445154
301.6889267899088054
301.73876894621236033
301.79913987395372033
301.86252014029372504
301.92253379305549288
301.97483939445811529
302.01755810857349616
302.05166695284322032
302.08066061614988485
302.10938086023509186
302.14235751451167289
302.18197350757827735
302.22745814551836929
302.27502351357435373
302.31874655735890656
302.35286396570506895
302.37280223115459421
302.37680178245909701
302.36575224546601248
302.34268648215930853
302.31183357056005434
302.27773411621262767
302.24431795466222184
302.21456822075543869
302.19030337126849872
302.17213539618643381
302.15951256427388216
302.15157808631494163
302.14736474138106814
302.14682070048985452
302.15041097935574044
302.15945909640981881
302.17524410379519395
302.19817897079667546
302.22688277118629685
302.25859505111776571
302.28964456725634591
302.31610204004516618
302.33512424188558043
302.34560927409205533
302.34791414863661885
302.3433004700765423
302.3331881550802791
302.31873972250247107
302.30048024342005419
302.27859608161116967
302.25332653036770125
302.2252212946415284
302.19495563123001602
302.16333118513250611
302.13126852091704677
302.1000100017519685
302.07131261144883183
302.04713786091735983
302.029299404696701
302.01938827986623437
302.01793909574178087
302.02431374670118203
302.03660361234705078
302.05219252579507838
302.06800391025882391
302.08138853760038955
302.09083619073430782
302.09661068936833317
302.10045480469693757
302.10499449363589974
302.11263176319170043
302.12439150248337683
302.13944219162885929
302.15526514635138255
302.16837617761257206
302.17577462740649707
302.17556672406306006
302.16775809860592972
302.15373251481645411
302.13542785024696968
302.11465196834080871
302.09230723207542724
302.06875843079632205
302.04437567847236323
302.02005300401992827
301.99779832522392553
301.98050049182069188
301.97186392359088813
301.97492127658080108
301.99083058965868531
302.01880978007113754
302.05615734756497659
302.09884618969806525
302.1429044415071985
302.18519672615195759
302.22395210331416138
302.25803898833390804
302.28628829246929399
302.30636496760047294
302.31498973000304886
302.30811727551207468
302.28226234748950674
302.23591635702837266
302.1707422515777921
302.09226375762114003
302.00892330816174081
301.93123051208505103
301.86997354249297132
301.83383870015109096
301.82844646671406963
301.85485413032751012
301.90989779679711091
301.98646046242043894
302.07476087003027487
302.16424447227927885
302.24511885910271758
302.30976117948330284
302.35325025266286048
302.37327964795190383
302.37007105573252375
302.34579169955259204
302.30382296180465573
302.24862568657061956
302.18535958584573109
302.11915605259503081
302.0552545257551742
301.99824910393596156
301.95177418444444584
301.91849843915866813
301.89984835624227344
301.89616313992428331
301.90670041291139114
301.9295892990000425
301.96191972638786183
301.99977890284850446
302.03869486001400446
302.07402587843836272
302.10155321340732826
302.11821384108634447
302.1222776896462392
302.11367318085666511
302.09389838155283314
302.06558251030105566
302.03209059806880532
301.9970162310319779
301.96386039062457485
301.93573934223383048
301.91524271762665421
301.9044589462034196
301.90503930469003535
301.91818699646739788
301.94440877689322633
301.98323712315124112
302.03317366823108614
302.09169567421457714
302.15531464775500581
302.22002608494852893
302.28181098280572314
302.33717074492375332
302.38352754612117224
302.41941660103077538
302.4441805294304686
302.45790296947609477
302.46093990691088038
302.4536308162515752
302.4361681037063363
302.40853997653476881
302.37059040946110144
302.32229670410146127
302.26382230180917077
302.19574732429617825
302.11898999062498206
302.03455388771442358
301.9434489835185218
301.84662615421842702
301.74504338419404803
301.63954448586474655
301.53105210286605598
301.42071485843848677
301.30988130941847203
301.19999822417906898
301.09253396762193233
300.98892821965006306
300.89045259257051157
300.79811080479987595
300.71254860181147706
300.63421587565539994
300.5634014531439675
300.5002562662751302
300.44475800302831203
300.3967267452188139
299.96502325834660496
299.87115603924445395
299.81214052218513189
299.85750828093762266
299.99620245853907363
299.99234714554205539
299.95763709056478774
299.93247542584032317
299.8535069897690164
299.82833239573250239
299.86516796438900201
299.92413588696848592
300.05151974417776728
300.18879565158289324
300.17294511805766888
299.9985452510985624
299.83049266914815689
299.76460227769030098
299.76530887290977034
299.82033495051024374
299.92891428582470326
300.01288190147414525
299.9941817327352851
299.89939481391735399
299.79615296754116116
299.67662049199680041
299.5454975792064829
299.47558785206206267
299.50544689514924812
299.60101247391196466
299.7247141936729804
299.84263686993176634
299.89587794618262251
299.85637376902957385
299.76773817301551617
299.69211523151483334
299.65345156626801781
299.63522845800895311
299.62377540214646388
299.59756661147912382
299.54390171754607763
299.47821583395221978
299.43472177430055581
299.43621633875994803
299.47187496257390649
299.50581045740761965
299.51505702589503244
299.50365938334107341
299.48731236809680922
299.4710055189917739
299.44667860383850666
299.40961079057336747
299.36495432852495924
299.31992149052240393
299.28161517232302913
299.25445943363178003
299.23068081052150546
299.19130781912497241
299.12693833925294484
299.05644892672808055
299.01301292913439056
299.0176681929341953
299.06944532554371108
299.14350920057580652
299.20485902602689521
299.238004287940214
299.2567761719079158
299.27939274436204187
299.3018545753758417
299.30367543393646201
299.27853304618889752
299.24414247174036063
299.226390723089537
299.23276694310720814
299.24534870416420063
299.23611992513866653
299.19428026494495043
299.14007483388024866
299.10162406525688539
299.09005904858418035
299.10401042738425303
299.13350215755826866
299.16782064336382518
299.19674667874170382
299.21702800058358207
299.23660788352111695
299.26461996992361492
299.30132680576411985
299.33456028357898049
299.35059412812421442
299.34367848425750935
299.31789145523839579
299.27959731472236626
299.23302010361788916
299.18253418763146101
299.13537928272882027
299.10453731726255455
299.10171097663567252
299.12582253067711235
299.16187509972843372
299.19341938359195865
299.22020978168791316
299.25601717920972078
299.31293544530029749
299.38368213060749667
299.44360065354129574
299.47232531948060341
299.46944552790813532
299.45418547426947953
299.45044920305298319
299.47210200666131641
299.51281833958523748
299.55552997927691194
299.58209566172024552
299.58783205187620524
299.57710546429035503
299.5574887408978384
299.53508153736640907
299.51426276912002322
299.50124328981837607
299.5050198456605699
299.52779830594136001
299.56417526575279453
299.59902469529748714
299.61838120602607205
299.61781874992226449
299.60497767848119111
299.59422163749849233
299.599529672253027
299.62915227931620166
299.68154042403500625
299.74494213931649256
299.80120784563973757
299.83544127902922583
299.84241651469346834
299.82694159551328994
299.79688903255589594
299.757269596206811
299.71497417490758153
299.68298724855543469
299.67614345697228373
299.70146532631719083
299.75070071935471105
299.80414182679788837
299.84352952840686157
299.86188195055126471
299.86535339532991884
299.86696057288520478
299.8777166929314717
299.90167105260320568
299.93660228714361438
299.97890548680106804
300.02653483969334047
300.07815712478441128
300.13040611083602016
300.17748936377813607
300.21180242524877713
300.22862667763536137
300.22886518924417487
300.21984714849071452
300.21041541215225834
300.20849815576372066
300.21679357166169666
300.23481099882417311
300.26209162079015869
300.29845757267952422
300.34263113591720185
300.38891652415355793
300.426960817730901
300.44738267454084735
300.44844977541532671
300.43973064043325394
300.43881217530866934
300.46312337975018636
300.52041438863068379
300.60423724645590937
300.69354440313429677
300.76282672179644351
300.79359367004872183
300.78468169209338612
300.75147804352320691
300.71680726702578568
300.69959795378321132
300.70634984701882786
300.73056807647014921
300.75944721731218578
300.78059895296689774
300.78795932932956703
300.78153438216429549
300.84753811498364939
300.85384868782625745
300.84985297023138173
300.8410447171165174
300.832462383499319
300.82723173380901471
300.82627701839385281
300.82899573776774105
300.83411510272668465
300.83919952568243161
300.84071240301614125
300.83480068478638714
300.81842512980938409
300.79163662670339363
300.75851386354594297
300.72664970542712126
300.70568662789327163
300.7044585025661263
300.72771130448944632
300.77508328170802088
300.84151550966964805
300.91839563860304452
300.99543732336894664
301.06257639953668104
301.11221290218418289
301.14071976691661803
301.14954540165661001
301.14478554250649722
301.13500975076334498
301.12845272844253941
301.13027295158781271
301.14203988991584993
301.16196198453792476
301.1864197191868584
301.21143084033525383
301.23341015285154754
301.24953511667916928
301.25768810244380802
301.25707241674933812
301.24918204998175497
301.23836704044668977
301.23164080886368765
301.2367835938221674
301.26009976156859693
301.30383855744776156
301.36468535592644002
301.4344760609928926
301.50227905705764897
301.55740539883004203
301.5925855413910881
301.60630146908238203
301.60304892845942959
301.59223051901744839
301.58550759061915869
301.59339309619792857
301.6219733590705232
301.67058806840316265
301.73157181086912715
301.79216406798047956
301.83832395618793498
301.85891795812472083
301.8493769617115845
301.81322494250701993
301.76103105876160271
301.70711397801471776
301.66567117608366289
301.64700668270228334
301.65567827168916892
301.68997537610653126
301.74353912827740487
301.80754645125455227
301.87295119241622388
301.93218038542789827
301.98080328951522233
302.01803388175966347
302.04629018997161438
302.07018061671766418
302.09496416014434317
302.12489256648149194
302.16174539889630069
302.20440167782044227
302.24905543984056067
302.29089994509081407
302.32454373788436897
302.34634339294518668
302.3541833359167299
302.34801107522480379
302.3299249330997327
302.3032617885843365
302.27215253441238474
302.24063936293038068
302.21206314868589971
302.18834784083259137
302.17002680637926915
302.15658389980524134
302.14686167524962457
302.14001010440898654
302.13605118550691486
302.13592069269162721
302.14126837457359898
302.15360421002162639
302.17333701010426239
302.19930484367466761
302.22899187134714794
302.25905583366431983
302.28611161168350918
302.30763200325930029
302.32251235456772065
302.33085915652247877
302.33333202804800521
302.33036306994796405
302.32209230388474452
302.30852194922363196
302.28966149683577669
302.26583890462279669
302.23834695703180842
302.20862497265284219
302.17830975054317832
302.1491741321778477
302.1224706670701039
302.09944545464799148
302.08103362108829515
302.06829463978141348
302.06170680759163361
302.06163861100407075
302.06731693385006565
302.07695306821113945
302.08829863890656497
302.09882661970203799
302.10672715828633272
302.11131539822986269
302.11347316901259319
302.11525046717400755
302.11922428672721708
302.12725191928814183
302.13972600593393736
302.15518400440976166
302.17082138451235096
302.18344463296517688
302.19064534476945028
302.1916449689403521
302.18710462343261725
302.17859667700872706
302.16748541085490842
302.15456444828816984
302.13940715555474981
302.12115494980025687
302.09906758192397547
302.07388468307004814
302.04791624458312072
302.02439706315584544
302.00777965702945949
302.00131606186772615
302.00674840132580812
302.02365265437697417
302.0497689672749857
302.08203263761760127
302.1172790113935207
302.15320910155224965
302.18853276372556138
302.22229072709654929
302.25304335497867214
302.27810590566389237
302.29330252393174305
302.29372385633723752
302.2752411220118347
302.23613305004016638
302.17809497766495497
302.10685086199765692
302.0314910966016555
301.96249880749172689
301.90984169461910369
301.88146897179956341
301.88110645289100376
301.90860333205250754
301.95984630273215998
302.02816402962673692
302.1053200174178528
302.18290505101617782
302.25371163230045113
302.31182596349685809
302.35305203363259352
302.37488030032392317
302.3763748649344052
302.35810149145646619
302.32223715909373141
302.27209497111533665
302.21243005468596721
302.14866081858372127
302.08616864665714274
302.02993658399066135
301.98396301190859958
301.95122247018491635
301.93342580985381574
301.9310384325279415
301.94322911782450092
301.96794659914098702
302.00188288222932442
302.04084755603344092
302.07994020035459926
302.11430251709793993
302.13937644961225715
302.15210959925826728
302.15095837707002602
302.13611535561881283
302.10938223048680129
302.0738447685656638
302.03327583297937053
301.99174288807756739
301.95303369903564317
301.92072231166486063
301.89786604080620691
301.88686389801091536
301.88960383311126634
301.90717838636686565
301.93983022733470989
301.9866846683556787
302.04571731095461473
302.11385816556810369
302.18712329074531908
302.26109438974151544
302.33141522040608606
302.39431753828205274
302.44696509445736865
302.48764645900030246
302.51557807688243429
302.53057666028217909
302.5328244984829098
302.52250059870561927
302.49966927474025624
302.46427768680649706
302.41629363148700804
302.35589090321417416
302.28371037353321071
302.20089187683180398
302.10904528431098015
302.01004384360908261
301.90574667554875532
301.79787623969173183
301.6879300872026306
301.57717167640635125
301.46664999551995834
301.35733997626141445
301.2502112395692393
301.14623716651072982
301.04631465795722534
300.95119849899629116
300.86149619554663559
300.77764753840938283
300.69992680861497547
300.62845394352444828
300.56328283481184371
300.50444780648211918
300.45196459914893694
300.40574703359885689
300.04397581073874335
300.00636057813875368
299.83778566944806698
299.81549173473564451
299.87449361709417417
299.96105964444296887
300.0459666971145225
299.98934142216302234
299.85999346594178405
299.87271234508693851
299.97795000018572864
300.05406233018157991
300.12048575802941741
300.18881876227584371
300.1726272321458282
300.04071313923554953
299.9268044935623152
299.88647834062896891
299.85537277689434177
299.85049364212937917
299.95384945033015356
300.07945476527117989
300.0743792919651014
299.9565328571303553
299.82737511459760071
299.70019367761233298
299.56260834272507054
299.47435525317416705
299.49174118526440225
299.59628658102263898
299.73097860014041771
299.84282735329099978
299.88881249027429021
299.85968127405169525
299.78840492993253974
299.71940019997782656
299.67177557330740001
299.65458757827315139
299.64810490236413898
299.61835364580610985
299.5484218035415438
299.46512001617963961
299.41606515710219583
299.42604277936305834
299.47535265695137241
299.51783652745677955
299.52567667305248733
299.50335025631534336
299.46268531663639578
299.41095032875847437
299.35680379552201202
299.30936765203739469
299.27320431751803653
299.2446026411550406
299.22285766366712778
299.2117482092417049
299.20871549350044916
299.19655390609472079
299.15942715133212459
299.10674525609886132
299.06147254355823861
299.0509427918068468
299.08703759298873592
299.15573805160170195
299.221733588897564
299.25590600371526762
299.26290541196243566
299.26560975262930242
299.27542208800156232
299.28078391872605835
299.26767371641801674
299.24114134102399021
299.22203917824549535
299.22304166146398074
299.23597166826124294
299.23917149725332365
299.22073622819812044
299.18982648719816098
299.15797297237349994
299.13876660754158365
299.13567747106912975
299.14606685625597038
299.16451467166905331
299.18332540127249786
299.19970777319514355
299.21878848637408055
299.24430094695333082
299.27286356257172883
299.2971029260026512
299.31025531188714695
299.30701621923151379
299.28604600936796487
299.25079397896524824
299.20932042417024377
299.17008793179689974
299.13795940792175543
299.11945627220103461
299.12211785747348358
299.14582253491789743
299.17965940488375054
299.20928916647739015
299.23321532400228762
299.26438469479074911
299.31454021066679161
299.3781396457984556
299.43198124012138805
299.45654837770467793
299.45290109460967187
299.4413327936413225
299.44424029248864372
299.4703129912585382
299.51185031800707748
299.54840957933856771
299.56686124358861889
299.56474827314877984
299.55067625989426006
299.53524345463290501
299.52397915644189652
299.51756352557021046
299.51977886428676356
299.53743101952727557
299.57133250420326931
299.61294065100906892
299.64646979777904789
299.66036697952972645
299.65284305823632849
299.63089151713728597
299.60707265797736909
299.59655544578623676
299.61299095096472911
299.66056679505442162
299.72903082383180617
299.79612650526161133
299.84186681222280413
299.85951712825237792
299.85430823256280064
299.8330850210258518
299.79891219469072894
299.75689058690704769
299.71910627864639309
299.70278461723228247
299.71717706271380166
299.7574180365724601
299.80696584646602787
299.84872912437100467
299.87369813784130201
299.88358458221887304
299.88675329161168293
299.89181430495102632
299.90420151005486105
299.92584759348005718
299.95730162612017011
299.99905934850039557
300.04992427199914573
300.10614093539658143
300.16017146191290976
300.20301594647833099
300.22800449069603701
300.23482681044418996
300.22879180430493307
300.21815851454937274
300.21068514301174446
300.21097063721936138
300.22140078505913152
300.24387275787415774
300.2782539338022616
300.32146998599120025
300.36558514458505442
300.39941630877569878
300.41475627410903826
300.41349248153915141
300.40851312855801325
300.41756584851572143
300.45544650281510712
300.52510887943236639
300.61467522609541447
300.70029662223322475
300.7565877943810051
300.76946332812281071
300.74322019275865614
300.69777503679159736
300.65801132438446075
300.64298065830257656
300.65775794751471039
300.69298545990659477
300.73338369602163311
300.76462474457730423
300.77853893480317993
300.77402107006201959
300.81297270313029912
300.811409090758616
300.80553990101100226
300.79972666854706631
300.79665477255451833
300.79763075368720138
300.80265477727868983
300.81103453781162216
300.82140988610450449
300.83047876697185075
300.83398766777793298
300.82739697620866082
300.80853454631773047
300.77979478636473232
300.74750241816087737
300.72119267914200691
300.7103166493704407
300.72104633057239198
300.75520029176266235
300.81000992347821921
300.87891346374971135
300.95264527560516399
301.02149350117139193
301.07648835587582425
301.11200372972018613
301.12729752944176198
301.12627565649984263
301.1173284529327816
301.11018069470338787
301.11234704812136442
301.12686975026480241
301.15171907776749549
301.18127850228148645
301.20928297401400187
301.23066417642706938
301.24267046835529982
301.24538767229284986
301.24088845257199409
301.23206610287428475
301.22250176896744733
301.21678929314134621
301.22007161911562889
301.23741413440052384
301.27179477548787645
301.32283766882727605
301.38603820881019146
301.45314841159398611
301.51424207656185672
301.56051784526385973
301.58708539861055442
301.59436423307039377
301.58791354234898563
301.57729168845372669
301.5731133430891191
301.58444171441959725
301.6156737959231009
301.66480990075069712
301.72332939623271386
301.77856539737024377
301.81712164315422342
301.82952789345449673
301.81327282328146566
301.77384412344093789
301.72312598102467973
301.67564480885647527
301.64442987515565164
301.63796477858898015
301.65828551618540132
301.70167360319663885
301.76004874382044818
301.82387562541373427
301.88458573222129644
301.93657128582339055
301.97780070226457383
302.00968367103286027
302.03596725774036713
302.06094222051393672
302.08814715849752019
302.11927783846562079
302.15424657928298302
302.19119978664525661
302.22740935825032693
302.25986904593133886
302.28564054767059588
302.30246814681413525
302.30854263615481159
302.30367271007168029
302.28908534469451297
302.26746792041035405
302.24241512103617424
302.21759523221373911
302.19572729065481553
302.17808598756346328
302.16458420796772089
302.15412479897315734
302.14516259887227534
302.13691560415242066
302.12972159434048081
302.12518435264451
302.12559753031246146
302.13310531684885518
302.1488172617039254
302.17214685345919634
302.2007932354241575
302.2312174701834806
302.2599141367443849
302.28412595660830675
302.30212176763564003
302.31346395284907658
302.31851990019487175
302.31778215579680591
302.31153576600422639
302.29985941194263432
302.28317264332980585
302.26191527780628121
302.23692443926876194
302.20993461211156728
302.18275173318812676
302.15722700849181592
302.13497335863814897
302.11694837401324776
302.10390467621220978
302.09620376688587839
302.09369242786260656
302.09609090581142254
302.10215786307298913
302.1104397082478954
302.11887384376103682
302.12553925939710098
302.12935276201255874
302.13036492064588856
302.12987376691518193
302.13006337995523154
302.13318994089803482
302.14067277845975923
302.15243492145981463
302.1667670863831745
302.18086578704941303
302.19200863991801498
302.19840269042845193
302.19987839870941571
302.19751537145003795
302.1929946345752569
302.1875383083532256
302.18115580105865092
302.17272693975536413
302.16048246498002072
302.14308925357477165
302.12071120853460116
302.09528657384583994
302.07020243842765694
302.04967166664135902
302.03735232104645547
302.03520359047399779
302.04306697702088513
302.05920403606859281
302.08077138464284417
302.10517527549757233
302.13076852892197621
302.15690734351875335
302.18344414383739149
302.20956662084915934
302.23332509227418541
302.25102245600800188
302.25715037207777414
302.24652904656824148
302.21628513118770343
302.1672010642041073
302.10423215155981325
302.03589091766866659
301.97279885536767097
301.92505182390107166
301.90043283022885134
301.90300549743466263
301.93198824107162181
301.98304224495717563
302.04924536209318831
302.12295049184405116
302.19625032009503229
302.26213413982128486
302.31501853876187624
302.35099920624475089
302.36769043355201347
302.36432169619718024
302.34188981313127442
302.30301971543968875
302.25152488014254004
302.19224051780685159
302.13060628480917558
302.07178967945793602
302.02055226645262564
301.98074784323597441
301.95492555624718989
301.94439265969418784
301.94887468583573309
301.96678203005120622
301.9951493328985066
302.0302191862916743
302.06742977229527014
302.10217492772272863
302.13016299049201052
302.14804839688599714
302.15372986660895549
302.14674046786677764
302.12781841462032162
302.09889221517101987
302.06267747158955217
302.02241261987001053
301.98132585740228251
301.94270543377302829
301.90974302185895795
301.88559622214438605
301.87318838341946048
301.87488086541799248
301.89221977771990169
301.92574545004629272
301.97475407715000983
302.03714711045466856
302.10944865536504267
302.18724735619412058
302.26566354004916093
302.33997040402516632
302.40612129398766683
302.46109244031339358
302.50307125107542561
302.53133566087956297
302.54589151015471771
302.54711545491971947
302.5353848304641815
302.51094676063780753
302.47379242807403443
302.42382663787071806
302.36105169130195236
302.28575564234705553
302.19875647791229767
302.10141540651977721
301.99554018138906031
301.8832186223111762
301.76653653389001875
301.64747935402607482
301.52786245179686375
301.40932303386307467
301.29325305655623879
301.18091282942771159
301.07342503181376969
300.97173476339361287
300.87653301543883799
300.7882935443532233
300.70729368785089264
300.63364811377221031
300.56732571716116809
300.50817713701655975
300.45594383348111478
300.41036370342050077
300.37115958075133904
300.33797083964191188
300.0125388917497844
299.68061805653184138
299.79352506033438885
299.92839383435494938
299.93743330512711509
300.01871256097615515
300.1029889530191781
299.98290279430517558