/*--------------------------------*- C++ -*----------------------------------*\
  =========                 |
  \\      /  F ield         | OpenFOAM: The Open Source CFD Toolbox
   \\    /   O peration     | Website:  https://openfoam.org
    \\  /    A nd           | Version:  12
     \\/     M anipulation  |
\*---------------------------------------------------------------------------*/
FoamFile
{
    format      ascii;
    class       volScalarField;
    location    "0.007";
    object      p;
}
// * * * * * * * * * * * * * * * * * * * * * * * * * * * * * * * * * * * * * //

dimensions      [1 -1 -2 0 0 0 0];

internalField   nonuniform List<scalar> 
106891
(
99865.20336693135323
99854.508663635497214
99841.24143917519541
99826.642604807668249
99811.860370755923213
99797.802860074225464
99785.331332106114132
99775.277288368582958
99768.519438506322331
99765.801578328158939
99767.582752566493582
99628.032187519245781
99641.945838598461705
99657.485728750209091
99670.534140407777159
99676.168081167023047
99672.133076473837718
99660.703962205516291
99647.78304789410322
99640.008020626963116
99640.952262910956051
99648.89378119824687
99658.013239214138594
99662.87094735163555
99662.83533767015615
99662.763237227060017
99669.422075817376026
99686.522003334888723
99711.809793698659632
99738.261558608224732
99758.558052208201843
99769.534954621602083
99773.381093794800108
99774.581292535047396
99775.765750386315631
99775.644195801927708
99770.216642213490559
99757.255780419363873
99738.676562363194535
99719.34599229003652
99704.355091971621732
99696.495585140946787
99695.851602173570427
99700.958656052098377
99710.274945570432465
99722.244756782980403
99734.505488059105119
99744.304688073243597
99749.753285874452558
99797.539009265499772
99808.085087850253331
99821.708030199064524
99837.07618946430739
99852.338422152766725
99865.480930042496766
99874.754680673111579
99879.041414224382606
99877.979001490661176
99871.881243484240258
99861.580676189099904
99848.203407988097752
99833.059774953639135
99817.569792168171261
99803.013009819755098
99790.413861868146341
99780.555257120417082
99774.224068672119756
99771.989482213437441
99774.224588583558216
99652.159437041234924
99662.654604878320242
99668.736891260763514
99668.642167590180179
99662.208377608068986
99651.979456734392443
99642.813267688630731
99639.56292839042726
99643.883518575195922
99653.129412653492182
99661.63955133134732
99664.64260983929853
99662.534240997149027
99661.23754774365807
99668.248634243165725
99687.287795023570652
99715.362992079841206
99744.352269310009433
99766.169634699006565
99777.510877103282837
99780.979037447032169
99781.940431303562946
99783.955640274711186
99786.146190085273702
99784.595852682527038
99776.122105388305499
99760.882118299152353
99742.487652104609879
99726.001823524260544
99715.164802132814657
99711.529635334314662
99715.035861274256604
99724.874967473107972
99739.501038033879013
99756.048661000837456
99770.803116242328542
99792.348677446731017
99803.751910037084599
99818.089006234615226
99834.12606462968688
99850.190522952165338
99864.351054412632948
99874.777699778438546
99880.144120281649521
99879.931834456889192
99874.404120654347935
99864.440265332523268
99851.295810980955139
99836.348093429638539
99821.038692205183906
99806.795378167516901
99794.831603023849311
99785.938665650057374
99780.732576589361997
99779.430749557417585
99782.081918949101237
99663.722954637865769
99665.572915234297398
99662.811612798264832
99657.145003359095426
99650.260702182684327
99644.071730602372554
99640.879258260305505
99642.54898740092176
99648.841563193011098
99656.758220863484894
99662.095977456876426
99662.491097464837367
99659.901006403568317
99660.179388583172113
99669.630593254652922
99690.760441628546687
99719.927902256225934
99749.090160643900163
99770.521318049213733
99781.179150711293914
99783.683386866105138
99783.418247323206742
99784.336324653559132
99786.745325929732644
99787.653883483711979
99783.576756478447351
99773.331034508461016
99758.842781208877568
99744.276470718235942
99733.661288166797021
99729.683111640275456
99733.417834275736823
99744.724763877587975
99762.249241791767417
99782.969643728531082
99802.506343734610709
99798.329472257988527
99812.926854058037861
99829.16602365829749
99845.445867689224542
99859.942716284582275
99870.864061534477514
99876.771605547881336
99876.958162021634053
99871.621921355719678
99861.750147643455421
99848.848357967435732
99834.559395035568741
99820.38360184301564
99807.619578016296146
99797.341797961431439
99790.16703438469267
99786.457800240881625
99786.099628316311282
99788.874210430571111
99663.735845305083785
99652.471806934176129
99643.441139970484073
99639.024602228615549
99639.323227651882917
99643.280491768789943
99649.202190621886984
99655.059089129907079
99658.657210413875873
99658.669326931049
99655.976123097396339
99654.245054295606678
99658.492863007224514
99672.515656429415685
99696.303081674559508
99725.348626084989519
99752.55388281159685
99771.666848118082271
99780.337097440453363
99780.860738020768622
99778.121494268925744
99776.523430744637153
99777.747411882242886
99780.142074483956094
99780.43226208841952
99776.403500846980023
99768.349183706770418
99758.807578754058341
99751.482498349854723
99749.663525014126208
99755.414398647495545
99769.156402240478201
99789.582622472706134
99813.494729195837863
99778.406588286772603
99790.024310641223565
99804.54881007244694
99820.706997942237649
99836.801151130202925
99850.998743716016179
99861.568393479596125
99867.184301393383066
99867.184332875025575
99861.738015331386123
99851.868923674512189
99839.253595139467507
99825.83924906764878
99813.342627688121866
99802.941201310590259
99795.296587081131293
99790.523502167401602
99788.561882674184744
99788.991170553752454
99791.492022130798432
99656.672636599454563
99640.356384606420761
99631.318248960189521
99631.780809795265668
99639.443103994941339
99649.861005440892768
99658.406935175225954
99661.742325923900353
99659.025132878043223
99652.415107734384947
99646.270836457464611
99645.732601688214345
99654.7105754136428
99674.10641739986022
99701.044686140943668
99729.873585431574611
99754.407185226533329
99770.410196548196836
99776.612752639121027
99774.707283019670285
99768.975227908114903
99764.260625870214426
99763.593447282459238
99766.978375594670069
99771.868504868209129
99774.972252351144562
99774.592462398941279
99771.684802284071338
99769.41313729005924
99771.311201440534205
99780.012032165861456
99796.102648659201805
99818.053739829687402
99776.605560228825198
99790.92215010750806
99806.853209047971177
99822.535119166917866
99836.009738406675751
99845.573139937012456
99850.072106978943339
99849.157275882622343
99843.285070516169071
99833.619770159377367
99821.829948244645493
99809.772173402991029
99799.126272528068512
99791.018790914284182
99785.902645016118186
99783.548760719713755
99783.479796941959648
99784.893093506980222
99787.305610106355743
99629.663254320941633
99624.725807665643515
99631.503724773501744
99645.464023393578827
99659.796028094526264
99668.382872313406551
99667.740616589275305
99658.5869999138813
99645.701303933339659
99636.074061789084226
99635.973114851192804
99648.412009781954112
99671.884512007265585
99701.402412357987487
99730.609550242807018
99753.980298502370715
99768.365527185465908
99773.127405597057077
99769.809179589021369
99762.086191986774793
99754.948116504456266
99752.696745460736565
99756.933792781434022
99765.640063636252307
99774.818646277592052
99781.250617893630988
99784.492552290743333
99787.187236601443146
99792.795574102041428
99803.819424192261067
99820.600281041042763
99841.453464112884831
99756.895255802024622
99770.700755217956612
99785.894434804649791
99800.625364145991625
99812.939422204857692
99821.241085398462019
99824.54847523207718
99822.720317302955664
99816.471349617422675
99807.153434816777008
99796.492275462835096
99786.18489150593814
99777.595284343609819
99771.624374060163973
99768.547681826690678
99767.991728302295087
99769.417732873960631
99771.914632873798837
99774.839075797979604
99625.911601849991712
99638.728399522515247
99656.012698501508567
99670.466161900243605
99676.264014142463566
99671.423830595653271
99657.933549790264806
99641.492284307634691
99629.541394457104616
99628.567833942375728
99641.393353993131313
99665.875571129188756
99696.333460773705156
99725.998913395829732
99749.784898242680356
99764.956253442054731
99770.769342013081769
99768.502337831407203
99761.472312211175449
99754.65566638148448
99752.862044818641152
99758.1912080518523
99769.009769561278517
99781.156313139974372
99791.039978217711905
99797.579823979962384
99802.701571604513447
99809.825827667751582
99820.87639051975566
99835.830248187034158
99743.628630766790593
99757.58137412542419
99770.736464523972245
99781.423154149495531
99788.332105505673098
99790.775661900959676
99788.741616654442623
99782.951015143597033
99774.69929895142559
99765.529826572645106
99756.953312175275641
99750.160086698830128
99745.836703889843193
99744.155202619222109
99744.772544996900251
99747.204797164537013
99750.670677030881052
99754.587984216894256
99650.576840594876558
99667.348548389709322
99677.834407918111538
99678.924047783075366
99671.159727556543658
99657.344560589554021
99642.134633676701924
99630.92813251260668
99628.768344892654568
99638.694447241723537
99659.850718566653086
99687.792511016799835
99716.911784815281862
99741.719029843647149
99758.875751568150008
99768.107659150424297
99770.827372430954711
99769.692930708712083
99768.211977431012201
99769.921541277246433
99776.465393113190657
99786.637510860251496
99797.033833328343462
99804.81227868021233
99809.757536113625974
99813.555092850263463
99819.049164493495482
99827.103303377749398
99706.457392333468306
99718.984471624760772
99730.64288837913773
99740.141381067252951
99746.445853395271115
99749.030649446023745
99747.971431791302166
99743.861111090169288
99737.732498408324318
99730.83025799060124
99724.357429047129699
99719.332151333946967
99716.410600272589363
99715.828439820223139
99717.408168359557749
99720.777883552538697
99725.229917470263899
99730.242016608448466
99673.38041462135152
99677.54437574945041
99674.607344010248198
99667.514893026993377
99659.019146198406816
99650.373476963941357
99643.678737324662507
99642.196344995507388
99648.227313485956984
99662.536383019338246
99683.116147568565793
99706.203630950491061
99728.222390869996161
99747.091304364163079
99762.392050361493602
99774.843758774135495
99785.24617320127436
99794.366310054741916
99802.778813088254537
99810.722205435289652
99817.188325568815344
99821.035474875374348
99821.725414309985354
99820.246476690444979
99818.87865348077321
99819.227985312958481
99821.110584233028931
99667.645050868726685
99677.938449684588704
99686.883742118792725
99693.648245179778314
99697.687673606880708
99698.872069608099991
99697.536825030692853
99694.476877890105243
99690.662209656933555
99687.093091097936849
99684.65273792546941
99683.890421486750711
99685.059120039397385
99688.094667947298149
99692.707960202547838
99698.337718768714694
99704.50081653293455
99663.355384048336418
99670.346255936368834
99672.437205415481003
99671.35685780136555
99669.115107399818953
99667.338256797127542
99666.431241242753458
99666.672707908641314
99668.202893851557747
99671.900096915313043
99678.605454844946507
99688.356942128186347
99700.183457116479985
99714.005787722824607
99730.804837735631736
99750.765041599297547
99772.525621097855037
99794.067206962834462
99813.616984485444846
99829.293665457764291
99839.535545785285649
99843.534151336280047
99841.387547562582768
99834.643886234989623
99825.872889322083211
99817.80260463723971
99811.577307577623287
99616.357036299363244
99624.934470161388163
99632.448999165804707
99638.269387463747989
99642.078462954465067
99643.962943850376178
99644.413087408203864
99644.241604718219605
99644.34660777534009
99645.475043210171862
99648.098671131068841
99652.324967348657083
99657.918245935434243
99664.503250839406974
99671.480582112926641
99678.38419331748446
99660.137370312600979
99665.646645331740729
99669.253602437558584
99672.07844289271452
99673.834235581409303
99674.567879503461882
99676.511699414753821
99681.61386902652157
99689.781424130109372
99698.421549883889384
99704.302503037819406
99706.569006639503641
99707.762353835234535
99712.260768816035124
99723.288082307582954
99740.942850534062018
99762.881094650016166
99786.335862341831671
99808.612836315543973
99827.378065746437642
99840.669554388121469
99847.192449887035764
99846.533054762971005
99839.548592324441415
99828.634533160278806
99816.867979662652942
99806.388220985696535
99798.134576626005583
99573.524771530253929
99581.398303937749006
99588.294806662015617
99593.850630218963488
99598.150825394681306
99601.576806854922324
99604.782054287585197
99608.521620695362799
99613.290919569990365
99619.351276385001256
99626.704865124862408
99634.969033271205262
99643.631050714378944
99652.122359086279175
99659.968769603699911
99663.91290661887615
99669.943598584912252
99675.255715328545193
99677.932813005521894
99678.906527834042208
99682.189563003877993
99691.241964551343699
99705.815743059836677
99720.706873326169443
99729.388398690251051
99729.556337086061831
99725.097441549936775
99722.591922425679513
99726.802870963409077
99738.334206327504944
99754.795085535180988
99773.147354418950272
99791.428707626750111
99808.895023361968924
99824.286792316488572
99835.226331667363411
99839.598763395071728
99836.699839016713668
99828.074872911209241
99816.565965269765002
99805.148518557587522
99796.054030180603149
99545.605032449486316
99553.332561192277353
99560.318619409707026
99566.563822728116065
99572.43182807280391
99578.415561291491031
99585.032320555808838
99592.690527461556485
99601.452190916141262
99611.157479180212249
99621.439849096845137
99631.683448457319173
99641.323056358101894
99649.967589240754023
99671.679186036853935
99677.186012434933218
99678.925461492457543
99679.460463299270486
99684.514259884788771
99697.936628888026462
99718.497360986773856
99739.716873027166002
99753.479236214538105
99755.932699658966158
99750.233680443372577
99743.411727419806994
99740.762535454661702
99743.361086714547127
99749.616443246311974
99757.728586635814281
99767.633137890094076
99780.432058447157033
99796.017900941558764
99811.612682493185275
99822.995156671488076
99827.238120693102246
99824.288184239761904
99816.352240314430674
99806.831953026878182
99798.958403052209178
99529.082510028645629
99537.557457140705083
99545.843687672662782
99554.091618823382305
99562.626837799456553
99571.75959440349834
99581.691259886618354
99592.416300270662759
99603.671398968901485
99615.105657343272469
99626.24562766130839
99636.548696449579438
99645.645052621039213
99675.788256339015788
99675.783351746591507
99676.580828304126044
99684.19501376489643
99702.32219044464
99728.462785438227002
99754.997731867202674
99773.810453915066319
99780.941394499430317
99777.958257462392794
99770.134248313261196
99762.272237905810471
99755.926249217038276
99750.714729548533796
99746.907055660107289
99746.561691053822869
99752.31537254723662
99765.121723725198535
99782.679207342443988
99799.914949164536665
99811.835213174927048
99816.189716118853539
99814.051350438880036
99808.665033414043137
99804.034962629782967
99525.212677619012538
99535.527578878056374
99546.069100868684473
99556.858335526107112
99567.980179508740548
99579.393584421108244
99591.027886519557796
99602.770002997043775
99614.295745488154353
99625.349484249585657
99635.702905525526148
99644.958384639103315
99668.97604971351393
99670.901776001628605
99682.214934480944066
99705.036594167278963
99735.678346287502791
99766.453543044568505
99789.479682342862361
99800.925194914947497
99801.800856272529927
99795.709840611190884
99785.603583770047408
99773.181464051143848
99759.032409274892416
99744.963057631277479
99734.820853236364201
99732.626049859158229
99740.310338528826833
99756.265632096372428
99775.740987262048293
99792.977733389270725
99803.876610777428141
99807.972866016105399
99807.940492446927237
99807.870241148484638
99664.151853250106797
99679.1926887913869
99705.930634915115661
99739.931595755042508
99773.45988620936987
99799.64619885016873
99814.587456535387901
99818.540596446982818
99814.242527829963365
99804.525323626919999
99790.399906468053814
99772.407195304243942
99752.612256237160182
99735.251285196354729
99725.445624376487103
99726.560181880253367
99738.168387157769757
99756.208241129832459
99774.849419108475558
99789.284315887387493
99797.950397399632493
99802.720851502555888
99807.324119433629676
99704.784617206532857
99740.690090137723018
99776.108016922997194
99804.189642104436643
99821.2622124357149
99827.188694679702166
99824.458224819260067
99815.901785279522301
99803.042676088298322
99786.189459129804163
99766.122283670483739
99745.949164163190289
99730.814663042430766
99725.269790384409134
99730.618650195203372
99744.181822939266567
99760.671754091323237
99775.124383716814918
99785.545422497336403
99793.332668113769614
99801.631226259851246
99821.686906985632959
99828.052504496488837
99826.034166075973189
99819.3288793257816
99809.696088195225457
99796.820184273834457
99780.249775686606881
99761.412505626969505
99744.420829541137209
99734.101965555892093
99733.225396696885582
99740.624355644802563
99752.190549607796129
99763.628793360185227
99772.969709094206337
99781.443096788643743
99791.589779665591777
99809.829698811998242
99802.751384779825457
99791.737012698431499
99776.634767038980499
99760.608552755904384
99748.273809084843379
99742.875099120588857
99744.381030803677277
99749.837004321190761
99756.011139720285428
99761.786337582423585
99768.638560687642894
99778.615533014453831
99802.204765020287596
99797.733932336777798
99787.991600634879433
99774.83166213108052
99762.668694794178009
99755.04448178941675
99752.326071799761849
99752.234073702100432
99752.602557402118691
99753.446050879341783
99756.755607525454252
99764.604347279804642
99485.575864385187742
99442.670761740591843
99398.693245156784542
99363.614442483973107
99344.496088843938196
99344.86689443285286
99364.512560455972562
99397.43781854165718
99431.893969821830979
99455.929370601268602
99464.587893981486559
99463.138646875071572
99461.371965055092005
99466.209146486406098
99478.12080083147157
99493.370145170440082
99508.95794007575023
99525.442274949440616
99544.500133907597046
99566.016576944108238
99516.319815486567677
99485.815373389341403
99443.242279286670964
99398.444489592802711
99360.128743302120711
99336.538158263239893
99333.313550137623679
99352.183633171007386
99387.250382368263672
99424.627251702419017
99450.102840079198359
99458.082441191945691
99455.153467415671912
99453.13195219442423
99460.148953913725563
99476.15811081197171
99495.531947654395481
99513.500474289845442
99529.814308729255572
99547.052559195886715
99566.48404720662802
99585.742810655676294
99530.700501026964048
99530.955202412893414
99515.752712054614676
99485.836676370396162
99444.318162160212523
99398.624457409896422
99357.302707658585859
99329.283377990024746
99322.672791868957574
99341.03028177806118
99378.250445792364189
99418.576857834501425
99445.37541324517224
99452.768963055845234
99448.427041840797756
99446.234028173639672
99455.331952648659353
99475.100605895378976
99498.157099657604704
99518.121520379616413
99534.001182117077406
99549.404738951052423
99566.906984255780117
99585.488639935967512
99601.038281450702925
99610.122715019359021
99526.258070069496171
99536.023668972571613
99532.304300395189784
99515.355114494028385
99485.842723057445255
99445.654962988337502
99399.074269348056987
99355.001684189162916
99322.766445517816464
99312.96155202043883
99331.127517774250009
99370.547136554741883
99413.763857683821698
99441.836692871016567
99448.618726960557979
99442.877677220501937
99440.43804972844373
99451.47028028103523
99474.668801786552649
99501.015301627849112
99522.58031745266635
99537.925044483286911
99551.474753780581523
99567.278168210643344
99585.392430500782211
99601.675246173428604
99611.487348220136482
99614.2137763765204
99512.870932924546651
99534.14341398520628
99540.542271701939171
99533.492354599307873
99514.911786043361644
99485.924709501370671
99446.816345744824503
99399.916048603117815
99352.922348100342788
99316.976416198580409
99304.325616966001689
99322.448446721289656
99364.211605831413181
99410.169210659427335
99439.489823999800137
99445.510749001550721
99438.30118857191701
99435.539052513209754
99448.342953293642495
99474.662759886472486
99503.923748759334558
99526.68815721788269
99541.41752614408324
99553.177324346353998
99567.527727149441489
99585.369541886087973
99602.473346824815962
99613.046443654428003
99615.113495653073187
99612.585020520258695
99485.286897587691783
99520.148715977993561
99540.879191154017462
99544.431132762707421
99534.276839217709494
99514.514899531350238
99485.993217914845445
99447.959084154936136
99400.82065995458106
99351.064716685476014
99311.728472399801831
99296.786568461946445
99314.941249314026209
99359.144814307626802
99407.655765257644816
99438.169531461127917
99443.340869461899274
99434.701456346636405
99431.558767906899448
99445.829288968961919
99474.892741891802871
99506.613109203259228
99530.340384079783689
99544.408773460643715
99554.566300329868682
99567.659476212051231
99585.386901532619959
99603.321233093287447
99614.649724263654207
99616.100404649987468
99611.410601218871307
99609.963256980685401
99489.018354741972871
99525.804539873613976
99546.131132452268503
99547.317830882777344
99534.770987031719415
99514.017533035206725
99486.126445057729143
99448.917631291697035
99401.626848178304499
99349.568110928463284
99307.201050164789194
99290.588307586731389
99308.880041308177169
99355.393861488075345
99406.213287536884309
99437.665419461816782
99441.955112138006371
99431.896364606072893
99428.335740476904903
99443.786862137290882
99475.140639007775462
99508.858296031161444
99533.375862506567501
99546.794523675227538
99555.592246961125056
99567.637135629032855
99585.407479252462508
99604.113377695844974
99616.152576189415413
99617.056997189909453
99610.50897216940939
99606.784933069444378
99616.19318609815673
99745.49099887641205
99620.674936958748731
99554.432674870171468
99569.561225052791997
99647.453291327168699
99729.636998878908344
99491.45490024695755
99529.770158353174338
99549.821683882153593
99549.357675394581747
99535.168722328511649
99513.694689096519141
99486.273495380359236
99449.710346422245493
99402.206921832330409
99348.510549357713899
99303.758455246061203
99285.868341331952251
99304.537166547117522
99352.846078824382857
99405.575315419613617
99437.623724871154991
99441.218467424187111
99429.952794343058486
99426.029671073381905
99442.355736571582383
99475.402698419915396
99510.594214444688987
99535.647071400526329
99548.535944312257925
99556.267200426911586
99567.551703376899241
99585.395695615516161
99604.723224015455344
99617.294385965389665
99617.779818248338415
99609.813910369877703
99604.441806054062909
99612.910321824761922
99638.469401302572805
99875.576177458176971
99744.390914216506644
99614.894256516665337
99547.413398695192882
99564.942549427476479
99646.198462477856083
99731.605325104828808
99492.639766920910915
99531.808661734408815
99551.698181307583582
99550.369309710120433
99535.283560136900633
99513.542638605082175
99486.295492841221858
99450.132688847166719
99402.39216684323037
99347.857023254415253
99301.620970084710279
99283.197868286079029
99302.323354001753614
99351.676599530197564
99405.55591059368453
99437.739999429002637
99440.890179026697297
99428.905823038134258
99424.745008409954607
99441.600754984436207
99475.579878999778884
99511.588988778254134
99536.876314401903073
99549.455588561788318
99556.581465747818584
99567.492629310523625
99585.406113528952119
99605.137294912565267
99617.947607509093359
99618.197102944366634
99609.369566195528023
99603.150146125684842
99611.176876481418731
99637.007084868542734
99672.62874671111058
99822.480261629360029
99819.586773156814161
99817.072756448425935
99815.681990278957528
99815.880966322380118
99817.786118982359767
99821.080042961606523
99825.002484629716491
99828.569535805887426
99830.796558824120439
99831.093703399950755
99603.023959378711879
99609.602014850097476
99622.967422275090939
99646.21190387783281
99678.012095040467102
99712.559080596329295
99742.241438701181323
99761.497450724651571
99769.673895302417804
99770.356784910443821
99767.752978386546602
99764.062999024812598
99759.854267007991439
99755.474388081507641
99752.754111266374821
99753.502038163103862
99756.773485343990615
99757.789014049631078
99750.199862158871838
99731.017127267987235
99704.800812005909393
99681.444721945867059
99670.099797112867236
99677.099088883362128
99702.401614787551807
99739.319093442289159
99777.2741394500772
99806.274093613974401
99820.302128514522337
99819.100441201604553
99807.598847299203044
99793.209925317190937
99782.746992697269889
99780.412621050898451
99787.175427149617462
99801.154559186601546
99780.567402005952317
99779.990877585485578
99782.123219348752173
99786.982885742952931
99794.05930249474477
99802.407081844678032
99810.858308174982085
99818.313436414202442
99823.957914016849827
99827.434244659496471
99828.928479179230635
99829.109856005918118
99828.875561040418688
99828.949679204146378
99829.647282555568381
99830.883664092936669
99832.272344575554598
99833.206611590489047
99833.075206770387013
99831.336700157437008
99827.92901935588452
99576.140479877372854
99584.971937372261891
99607.242992053666967
99643.948261635363451
99690.141334053842002
99736.075444382804562
99772.020605619632988
99791.99474210749031
99797.022920939300093
99792.588529168802779
99784.98278205069073
99777.039955123560503
99768.489023065252695
99759.368519660172751
99751.586134194454644
99747.796286913551739
99748.57529511366738
99751.085614938798244
99750.521445707432576
99743.089813233018504
99729.224735357711324
99715.561020768538583
99709.724322149486397
99716.766115293721668
99737.303609777838574
99766.929874503315659
99797.946500832578749
99822.163671879694448
99833.864905103982892
99832.068362380145118
99820.649542574334191
99806.508847055578372
99796.787415212253109
99796.136469352641143
99805.439702081683208
99821.982280743919546
99761.650740725875949
99760.193936658586608
99761.78394022192515
99766.645184936525766
99774.413750991312554
99784.277694810458343
99795.186127966633649
99806.052645311574452
99815.911097063799389
99824.073178704435122
99830.252020072337473
99834.566306640466792
99837.404793943860568
99839.149965745629743
99839.976375089332578
99839.844547486485681
99838.567844429955585
99835.83987742489262
99831.509643413417507
99825.570131313608726
99818.568952868154156
99565.39868256423506
99597.568922443126212
99646.325072733758134
99703.507601877732668
99756.602380584605271
99794.073393075697822
99811.342303541343426
99811.74912948187557
99802.103797653238871
99789.450369281024905
99777.648198742390377
99766.795402032148559
99755.884244078173651
99745.687803149485262
99739.32671591208782
99739.550630940197152
99745.727264118482708
99753.889575586319552
99759.771160219752346
99760.788405047802371
99757.963591871157405
99756.405480315952445
99760.244405476434622
99771.730817002404365
99790.157234192214673
99811.660443658940494
99830.346583819511579
99840.796022650887608
99840.552528066371451
99831.60719590280496
99819.917093613752513
99812.400488241561106
99813.893777637422318
99825.236107234944939
99741.972316258223145
99741.936301406662096
99745.332118176753283
99752.232464052431169
99762.222208814986516
99774.499028801292297
99788.030125078861602
99801.730466637178324
99814.578087830290315
99825.69704971658939
99834.478109852294438
99840.634742718917551
99844.116849356956664
99844.935929806903005
99843.119631395675242
99838.807484983219183
99832.230388307201792
99823.894340823884704
99814.400161110053887
99804.83902231886168
99559.162485829991056
99598.97915099473903
99654.112164018806652
99713.790930938179372
99765.358787071323604
99799.079798896986176
99811.915170913678594
99807.019975763672846
99793.29172896889213
99778.384078895498533
99766.098509952949826
99756.175135988902184
99746.971532469484373
99738.477929354892694
99733.343545936921146
99734.990009933331748
99744.750936012162128
99760.436205737569253
99777.254097892451682
99790.737346348032588
99797.837523055452039
99799.282788472846732
99798.966287331364583
99800.945576809725026
99808.008783944067545
99820.058321354241343
99833.679690770353773
99843.76373540883651
99846.37485177135386
99841.539551243913593
99833.473804268694948
99828.629359587997897
99831.566276928264415
99842.784966419334523
99725.386018707475159
99722.533723211396136
99723.224913494646898
99728.002261501998873
99736.891172918345546
99749.392222072769073
99764.55132662653341
99781.120931595505681
99797.753715088430909
99813.077590717162821
99825.835632321541198
99835.094293926318642
99840.332988266454777
99841.40092581922363
99838.446533703783643
99831.93222555986722
99822.592213764975895
99811.577936467831023
99800.084485012703226
99789.684230938612018
99612.342352041916456
99663.221744857772137
99713.648730894245091
99754.518164936991525
99779.577576091978699
99787.369756554471678
99781.484708427844453
99768.62593798810849
99755.641359270070097
99746.223431105390773
99740.768148317874875
99737.392597501631826
99734.624504571038415
99733.537027334561571
99737.110313131925068
99747.999119904459803
99766.037150882868445
99787.908481760867289
99808.205749054483022
99822.028486837749369
99827.384921586417477
99825.498437089292565
99821.46773575845873
99820.784507744800067
99826.045446996969986
99835.665879085980123
99845.09512460033875
99849.806780520215398
99848.270910808831104
99843.53146188845858
99840.448412855068455
99843.086859169750824
99704.668147780321306
99701.884768163290573
99703.6943656677322
99710.581429883226519
99722.263035909229075
99737.78293824067805
99755.667925111076329
99774.214410926695564
99791.758075250210823
99806.775521516436129
99818.010125058863196
99824.635262479772791
99826.366049115851638