/*--------------------------------*- C++ -*----------------------------------*\
  =========                 |
  \\      /  F ield         | OpenFOAM: The Open Source CFD Toolbox
   \\    /   O peration     | Website:  https://openfoam.org
    \\  /    A nd           | Version:  12
     \\/     M anipulation  |
\*---------------------------------------------------------------------------*/
FoamFile
{
    format      ascii;
    class       volScalarField;
    location    "0.007";
    object      p_0;
}
// * * * * * * * * * * * * * * * * * * * * * * * * * * * * * * * * * * * * * //

dimensions      [1 -1 -2 0 0 0 0];

internalField   nonuniform List<scalar> 
106891
(
99865.205514741974184
99854.30883177020587
99840.898781936673913
99826.221855027688434
99811.429641570139211
99797.42891684701317
99785.072584686728078
99775.18094583551283
99768.62436613997852
99766.139535139838699
99768.175807273801183
99627.896793041494675
99641.998113850728259
99657.591134516056627
99670.484208443114767
99675.802002594209625
99671.449629439535784
99659.871550851443317
99647.05765038151003
99639.593249460376683
99640.876509331341367
99648.98529828430037
99658.019968165797764
99662.651421114860568
99662.472587937561912
99662.500448445207439
99669.486596264847321
99686.961649089367711
99712.447758086462272
99738.811641116422834
99758.800254492802196
99769.436782332908479
99773.060044227066101
99774.162499778540223
99775.257364300836343
99774.929124849266373
99769.158621805108851
99755.879107035463676
99737.131303516376647
99717.854264561115997
99703.087647894048132
99695.514136055891868
99695.126418508167262
99700.42767707031453
99709.879087056600838
99721.90458313790441
99734.114627821734757
99743.768739844119409
99749.051407571765594
99798.225002195715206
99809.022341572068399
99822.829919571668142
99838.284863629174652
99853.524622673503472
99866.539418050437234
99875.598209446994588
99879.615746300492901
99878.266085001683678
99871.899459114501951
99861.380589616615907
99847.851802130404394
99832.625914592092158
99817.119999968199409
99802.611897013266571
99790.125170859784703
99780.435577989206649
99774.315656877763104
99772.318157004629029
99774.8020440449327
99652.161039685262949
99662.569149367467617
99668.469684317096835
99668.14736287316191
99661.536458363523707
99651.285480516438838
99642.29939386137994
99639.357551358378259
99643.952709983408567
99653.284736317029456
99661.640768741170177
99664.376947034063051
99662.125785574462498
99660.969946335710119
99668.369347939791624
99687.831449063887703
99716.120070291566662
99745.000418609692133
99766.475181087007513
99777.450637064393959
99780.695402355777333
99781.592082575036329
99783.575530082147452
99785.62218349223258
99783.786062550294446
99774.980168800742831
99759.50542398878315
99741.075978950233548
99724.747088025877019
99714.176965105463751
99710.834418817132246
99714.608146006212337
99724.664530643363832
99739.413570811913814
99755.947322348947637
99770.552463219981291
99793.010685214103432
99804.653675339999609
99819.172982214658987
99835.302012573301909
99851.349371805277769
99865.388919605786214
99875.609075981963542
99880.712337647186359
99880.215753421056434
99874.417437559139216
99864.231173922060407
99850.936657803118578
99835.918559675395954
99820.612688084525871
99806.432911659227102
99794.58127459170646
99785.842011200424167
99780.820945079030935
99779.722902448178502
99782.587077144198702
99663.496247222195962
99665.161722499062307
99662.271642327352311
99656.548480277415365
99649.685602330850088
99643.611033961802605
99640.620924011964235
99642.521957618984743
99648.96339264078415
99656.857207662877045
99662.010559485366684
99662.19289678777568
99659.542983620471205
99660.013865645742044
99669.854719862138154
99691.374460002145497
99720.712584994078497
99749.73828070377931
99770.820271102973493
99781.11478846395039
99783.400025002265465
99783.079922490229364
99784.007613036505063
99786.362795326276682
99787.089031050534686
99782.753515890581184
99772.285562708741054
99757.716790699400008
99743.249888511796598
99732.866923638794105
99729.185512059368193
99733.21983935040771
99744.783966414819588
99762.47086707255221
99783.19492668856401
99802.561095273907995
99799.147808148904005
99813.917585584335029
99830.249502331847907
99846.518268861007527
99860.895732612058055
99871.608930210670223
99877.252649392248713
99877.159105904604075
99871.563053522564587
99861.483329182490706
99848.45089630545408
99834.118177156182355
99819.977718593581812
99807.307362737206859
99797.154517080154619
99790.11610561569978
99786.546473717753543
99786.328403766499832
99789.246631701957085
99662.956674430344719
99651.702064229612006
99642.837743800875614
99638.644753428074182
99639.156541759191896
99643.272725024522515
99649.272026820108294
99655.10294465876359
99658.580004169256426
99658.437452844445943
99655.664167983908555
99654.019803922899882
99658.534863423541537
99672.914094160980312
99696.985771208681399
99726.10139938336215
99753.125365458821761
99771.89477067309781
99780.220979160207207
99780.533664930335362
99777.749158138365601
99776.210118716961006
99777.487965198917664
99779.844139252643799
99779.999825243226951
99775.819944691596902
99767.688753457347048
99758.198786458888208
99751.052317512192531
99749.500307006193907
99755.546129941401887
99769.543305145154591
99790.122065130286501
99814.011935354385059
99778.911192242740071
99790.73668486198585
99805.421786078557489
99821.6620660644694
99837.737470805281191
99851.807313659839565
99862.156531648375676
99867.497719869686989
99867.216679950957769
99861.528584169092937
99851.487062878062716
99838.782136687732418
99825.361623911216157
99812.929736334641348
99802.64112654440396
99795.128756111749681
99790.480426672002068
99788.621047011911287
99789.128359749767696
99791.696485298089101
99655.637322785405559
99639.489078305341536
99630.817890050821006
99631.655716755762114
99639.563276197150117
99650.045218712490168
99658.483998951996909
99661.611307892133482
99658.693958962234319
99652.000650768226478
99645.950545516083366
99645.678490885649808
99655.019104240040178
99674.741962774758576
99701.844289026936167
99730.615390470047714
99754.905185492782039
99770.572379014789476
99776.45327324650134
99774.338882065450889
99768.567415836718283
99763.961659704917111
99763.461543015524512
99766.97173826303333
99771.884299651457695
99774.925162757310318
99774.472607161151245
99771.568916928605177
99769.418845864216564
99771.535712588491151
99780.491642810127814
99796.790172908469685
99818.836046932934551
99777.208855417280574
99791.665527342149289
99807.654771158806398
99823.293889376858715
99836.624047080345917
99845.957867092161905
99850.179297747439705
99848.987331763899419
99842.886378011215129
99833.077395136264386
99821.240398267080309
99809.221119765803451
99798.674173747422174
99790.692840894102119
99785.701525773925823
99783.45107073309191
99783.451548508790438
99784.901787230366608
99787.334951106575318
99628.911280240179622
99624.451537701796042
99631.644669855988468
99645.796929775198805
99660.061899402411655
99668.379764073484694
99667.397789780487074
99658.003215698321583
99645.106787044860539
99635.729877970879897
99636.063858385867206
99648.960502730318694
99672.755409041943494
99702.370019992842572
99731.445530379482079
99754.52741576898552
99768.568620424557594
99773.013323640392628
99769.479236632425454
99761.706885380292078
99754.701714840106433
99752.706139222646016
99757.201854634666233
99766.058520887250779
99775.250137528171763
99781.617999305512058
99784.824251427868148
99787.589640139281983
99793.358390119377873
99804.564404891556478
99821.470894041834981
99842.333493293845095
99757.41821538071963
99771.333637728894246
99786.547223545101588
99801.196548086823896
99813.33821201135288
99821.401632869499736
99824.440419211430708
99822.358371229973272
99815.908026752469596
99806.468672526054434
99795.778956612368347
99785.526250902126776
99777.048077944738907
99771.209779969067313
99768.25381258976995
99767.787971211757394
99769.266540387892746
99771.781574446926243
99774.706040093471529
99625.948758087281021
99639.08205829198414
99656.430302613531239
99670.681562290192232
99676.121157474350184
99670.913021383399609
99657.202578045529663
99640.803969825647073
99629.177556897950126
99628.721970124533982
99642.074476513487753
99666.920202369743492
99697.482969290984329
99727.014994994693552
99750.520742752501974
99765.352553942444501
99770.839130043445039
99768.336251587781589
99761.238178868545219
99754.555317306076176
99753.044684405918815
99758.674918601478566
99769.67915153085778
99781.848918579678866
99791.661553493264364
99798.13817523122998
99803.2918080977106
99810.527938600062043
99821.6981433070614
99836.708343731530476
99744.117221338572563
99758.061108695037547
99771.11845648563758
99781.628757007449167
99788.311818665853934
99790.514032745326404
99788.258928260329412
99782.29953783248493
99773.948408516065683
99764.753400106928893
99756.218104117768235
99749.514822269979049
99745.30682515449007
99743.738440643443028
99744.444386455114
99746.932779612980084
99750.422677878756076
99754.340236679388909
99651.050462224360672
99667.701714890426956
99677.894314829754876
99678.639542284727213
99670.602353291862528
99656.662105520925252
99641.532099713731441
99630.618806685932213
99628.92520309468091
99639.367115771892713
99660.92661571931967
99689.061556302069221
99718.14155966610997
99742.717430171847809
99759.570564330817433
99768.524006097897654
99771.044642444307101
99769.828307486182894
99768.413816560845589
99770.301770412930637
99777.034740260263789
99787.313694350305013
99797.675844288009102
99805.367306730477139
99810.243939238644089
99814.058464932779316
99819.636640010416158
99827.750292936485494
99706.721708848766866
99719.225837258869433
99730.800936358296894
99740.162245513216476
99746.293240293947747
99748.692768938562949
99747.459942698449595
99743.210660201002611
99736.996335443967837
99730.06424382662226
99723.612394080642844
99718.650073786571738
99715.815331678444636
99715.327100423586671
99716.994677656664862
99720.43100230456912
99724.92134036848438
99729.947330715498538
99673.546496573937475
99677.417433228096343
99674.28316415855079
99667.121719594390015
99658.637117597609176
99650.046766715531703
99643.541411459169467
99642.352096456525032
99648.761355727299815
99663.42535522414255
99684.236455648540868
99707.388459191221045
99729.342593451176072
99748.078456616654876
99763.242390074345167
99775.584345553696039
99785.905369914777111
99794.966405020837556
99803.331143058894668
99811.221092957843211
99817.591745150071802
99821.32185475085862
99821.892973614158109
99820.367492793797283
99819.03794368171657
99819.462294363387628
99821.37523027836869
99667.639801703946432
99677.891712801996619
99686.764201492536813
99693.425474463932915
99697.345360083156265
99698.407897889977903
99696.965945586271118
99693.830501753924182
99689.981194157953723
99686.42234898856259
99684.028527685281006
99683.334441520797554
99684.578627412483911
99687.682883477798896
99692.349587562202942
99698.011597988763242
99704.181832761110854
99663.603517594048753
99670.377374673786107
99672.334593069797847
99671.198084127609036
99668.978777195661678
99667.253803819970926
99666.424177293665707
99666.735968749795575
99668.377258350767079
99672.221443282978726
99679.10676277911989
99689.016448521477287
99700.968593113022507
99714.923545993660809
99731.866727406595601
99751.928893763179076
99773.700383571223938
99795.162356469256338
99814.547359837044496
99829.99470654912875
99839.960268413226004
99843.668207005452132
99841.270588740619132
99834.362883992842399
99825.550652408681344
99817.533295099492534
99811.399063205855782
99616.180233630293515
99624.746781454363372
99632.224323462869506
99637.982065679621883
99641.715271939800004
99643.526164624738158
99643.921584956260631
99643.728319004643708
99643.846909820160363
99645.017122080622357
99647.697909319918836
99651.979870421273517
99657.612949968475732
99664.21433603510377
99671.183704578594188
99678.060771588701755
99660.25937929310021
99665.650115247233771
99669.227744741845527
99672.041498240607325
99673.772456798935309
99674.52447637070145
99676.573601724885521
99681.830420725702425
99690.103105021320516
99698.736504783912096
99704.526069272993482
99706.738305887483875
99708.022944497832214
99712.762132731615566
99724.082156900942209
99741.959020191803575
99763.999124744339497
99787.43694690715347
99809.585553206503391
99828.130507403955562
99841.13613639101095
99847.337117480448796
99846.366270799975609
99839.134992881445214
99828.10202307846339
99816.345149291490088
99805.972902002788032
99797.881241926981602
99573.329664232558571
99581.209497610252583
99588.086372136953287
99593.608014055673266
99597.87325376989611
99601.27590346217039
99604.484509449248435
99608.250963573183981
99613.058460632470087
99619.162572220622678
99626.550087468785932
99634.823006715814699
99643.469224207743537
99651.922038713048096
99659.709797709001577
99663.934183909062995
99669.969428356314893
99675.225268039372168
99677.806964705654536
99678.790257378976094
99682.245372324687196
99691.550797446587239
99706.277411509523517
99721.077819966201787
99729.481776945176534
99729.40985459696094
99724.933318520998
99722.63954261863546
99727.157810431599501
99738.942694082899834
99755.532711968247895
99773.905624384657131
99792.160559928030125
99809.562974403088447
99824.814599208344589
99835.512009833706543
99839.576671275412082
99836.385369675859693
99827.566916353476699
99816.004202883283142
99804.674561089879717
99795.77378117913031
99545.441675482870778
99553.185852014139527
99560.169671692841803
99566.407450417915243
99572.276736342522781
99578.274115524123772
99584.918986297692754
99592.612655851888121
99601.405373013258213
99611.127357827062951
99621.401532237956417
99631.611725173570449
99641.198078197689028
99649.770234706200426
99671.669899375076056
99677.040634240664076
99678.659323219952057
99679.249318369824323
99684.569437794649275
99698.323901612995542
99719.070769233177998
99740.175105393340345
99753.567391019241768
99755.633306643838296
99749.760555036598817
99743.021888055547606
99740.575122581591131
99743.354464584073867
99749.716957559474395
99757.903974557339097
99767.923707747264416
99780.875594503842876
99796.554776628967375
99812.08547906910826
99823.235814622661564
99827.178572245291434
99823.97377906703332
99815.909549431744381
99806.422657709234045
99798.733502936651348
99528.978543969467864
99537.481185856231605
99545.782276662415825
99554.041467737188214
99562.588612162770005
99571.736314014240634
99581.689823494307348
99592.430024883899023
99603.684782848969917
99615.106631220056443
99626.211446300992975
99636.456929739302723
99645.48656833874702
99675.464695219445275
99675.379242776558385
99676.314410797436722
99684.280370519627468
99702.801131078958861
99729.128141424254864
99755.527142841630848
99773.952712990518194
99780.640487394761294
99777.344382282812148
99769.414212484174641
99761.574296355727711
99755.272656758039375
99750.110342356856563
99746.420395555876894
99746.315847393896547
99752.404521018499509
99765.527744073784561
99783.241489333289792
99800.403436327935196
99812.080410081354785
99816.155597914985265
99813.830534608481685
99808.419461796365795
99803.941624790735659
99525.196522200771142
99535.542424019688042
99546.094116486929124
99556.879477022244828
99567.993277453468181
99579.395480481063714
99591.018138568906579
99602.74788154179987
99614.254790185950696
99625.283225276580197
99635.601175101284753
99644.804585763777141
99668.471070509258425
99670.649645761077409
99682.384856815100648
99705.604689393570879
99736.418580501209362
99767.043014565293561
99789.677253662724979
99800.664027430626447
99801.170354368470726
99794.826707460306352
99784.559162831428694
99772.031404198205564
99757.84231746995647
99743.878522011116729
99734.039189483053633
99732.294486874408904
99740.448460024068481
99756.742424289739574
99776.326366080611479
99793.442315218868316
99804.102693756678491
99807.99987667305686
99807.908938720342121
99807.947797267712303
99663.954698905799887
99679.459236748618423
99706.579320882607135
99740.717928077225224
99774.085701361604151
99799.891230376262683
99814.369279176855343
99817.908142511252663
99813.302429649527767
99803.34975920211582
99789.017349434798234
99770.889712827454787
99751.121830267496989
99734.016037276393035
99724.677344398354762
99726.34231033064134
99738.412947049655486
99756.702501048232079
99775.354584097396582
99789.64741362562927
99798.158569091552636
99802.880298516596667
99807.571993115139776
99705.474723231163807
99741.503184844565112
99776.754007527488284
99804.453976298071211
99821.066815943253459
99826.571130667987745
99823.517575018689968
99814.721836991928285
99801.662008523053373
99784.634869619563688
99764.491394482160104
99744.443197551445337
99729.677250589666073
99724.655566398141673
99730.520665670323069
99744.434204551755101
99761.048824740602868
99775.463375262595946
99785.811024668306345
99793.603438213671325
99802.00567706565198
99821.485715312373941
99827.433510961040156
99825.134379610943142
99818.251775020442437
99808.465480093538645
99795.416982183363871
99778.702865965111414
99759.855491913476726
99743.07003998674918
99733.158547891638591
99732.756309699296253
99740.533753399504349
99752.299593398463912
99763.797354262802401
99773.161442207056098
99781.713559332987643
99792.002194513202994
99808.845214119501179
99801.619854078569915
99790.402253023697995
99775.176597493860754
99759.214521231362596
99747.140576347592287
99742.104648727050517
99743.94110907902359
99749.608647915621987
99755.898195526766358
99761.782214069593465
99768.799386158629204
99778.972244034390314
99801.389254631125368
99796.700066164426971
99786.737726300503709
99773.513554179517087
99761.483544311675359
99754.101989975912147
99751.611912334017688
99751.676277305639815
99752.166496877209283
99753.170205882241135
99756.714865294008632
99764.81757074604684
99483.844575334340334
99440.833537222802988
99397.113514728611335
99362.547371114778798
99344.112988792126998
99345.209035751657211
99365.488815754710231
99398.742454702296527
99433.117762620953727
99456.760112269752426
99465.029817833259585
99463.465429642921663
99461.871623546234332
99466.985166734986706
99479.071744112137822
99494.346308523250627
99509.894012724704226
99526.381254519947106
99545.47945806584903
99566.970746735096327
99515.008757419214817
99484.081982501913444
99441.395349861704744
99396.782889825786697
99358.921977220728877
99335.996299026097404
99333.572190343649709
99353.190672368786181
99388.662992095225491
99425.948223186846008
99450.969045464327792
99458.50911030296993
99455.477389014500659
99453.700310205371352
99461.075095219173818
99477.289667577686487
99496.648014507241896
99514.485742850258248
99530.71293211520242
99547.947350557165919
99567.36996264634945
99586.504775152876391
99530.122861504059983
99529.985082431972842
99514.386734001207515
99484.142845790076535
99442.463504372208263
99396.893239469529362
99355.952097115921788
99328.593083718355047
99322.859405909155612
99342.068738634188776
99379.77229628994246
99419.992200062231859
99446.273061113926815
99453.180352885494358
99448.744674953573849
99446.867038655327633
99456.391883862685063
99476.392687827785267
99499.389678474268294
99519.138485212941305
99534.853201899299165
99550.217536032840144
99567.727069345419295
99586.238016774383141
99601.592301297438098
99610.460225473128958
99525.864658055099426
99535.267035314900568
99531.207733111616108
99513.958074513604515
99484.181154150137445
99443.805240010668058
99397.271538428132772
99353.515043525971123
99321.929159419320058
99313.083541655942099
99332.20606017888349
99372.174675384056172
99415.271190712926909
99442.760845167795196
99449.010932464749203
99443.186283512011869
99441.125227668540902
99452.649260686914204
99476.103522372359294
99502.344713282218436
99523.613552604700089
99538.724076420097845
99552.208434465370374
99568.040498873378965
99586.133396485238336
99602.244719906142564
99611.806235486947116
99614.361700447203475
99512.785940276269685
99533.640698706993135
99539.637548880753457
99532.284859010367654
99513.479530719239847
99484.284723756514722
99444.987616049867938
99398.03552471655712
99351.312870578141883
99316.013310365029611
99304.388308147230418
99323.576958363773883
99365.941488407770521
99411.764778149561607
99440.434091690607602
99445.876571697634063
99438.594864479702665
99436.268893883752753
99449.627989357642946
99476.220918395541958
99505.332264571581618
99527.727959326934069
99542.160732724587433
99553.839699469521292
99568.243032908256282
99586.107080439076526
99603.062428906792775
99613.35384935363254
99615.187949720144388
99612.6700877804833
99485.483436210575746
99520.069049335535965
99540.289043492564815
99543.387405833447701
99532.964679928991245
99513.061687586043263
99484.379282217996661
99446.145929980571964
99398.883181351047824
99349.323687482057721
99310.660308698468725
99296.802453240845352
99316.123593558237189
99360.976236157555832
99409.328802824369632
99439.129769627965288
99443.674097962109954
99434.975279271238833
99432.320734835288022
99447.206057659437647
99476.553318576916354
99508.087401340089855
99531.381616368482355
99545.10107405774761
99555.163586795504671
99568.339975049791974
99586.127239562061732
99603.931951005273731
99614.947840139633627
99616.107714109282824
99611.388478338369168
99610.277381322870497
99489.288447208324214
99525.742147712720907
99545.473392091167625
99546.163148449297296
99533.382882587262429
99512.547788104551728
99484.544122408653493
99447.116262771451147
99399.638607049346319
99347.717117329710163
99306.045769558026223
99290.562000249352423
99310.113218777769362
99357.319930435667629
99407.9487318097963
99438.635621707668179
99442.25220076982805
99432.146541405847529
99429.119714595508412
99445.238054667512188
99476.884256295437808
99510.384141867878498
99534.416200937193935
99547.441849663722678
99556.132893274218077
99568.293926842306973
99586.156720805403893
99604.746648057684069
99616.444456537603401
99617.006710597299389
99610.396349410657422
99607.020973915743525
99617.044231390944333
99740.658825129197794
99617.009185077913571
99553.295847872155719
99571.048705625114962
99650.263178887995309
99731.734559614589671
99491.785912524588639
99529.722773294852232
99549.117392468615435
99548.135861933798878
99533.726569326914614
99512.215712203353178
99484.71230894481414
99447.918239548394922
99400.178945824925904
99346.580738945005578
99302.524049923056737
99285.840113099242444
99305.80797928897664
99354.848613988418947
99407.357118128085858
99438.598047723018681
99441.484464797220426
99430.180561622590176
99426.829257076577051
99443.859949110788875
99477.208908130647615
99512.156037364678923
99536.685625757367234
99549.147544075967744
99556.767075035895687
99568.192069856479065
99586.157190092839301
99605.37336221851001
99617.58464765555982
99617.687153571110684
99609.634956599198631
99604.623289148294134
99613.749638434674125
99639.888101137243211
99871.635589260607958
99739.364738883159589
99611.10909783403622
99546.290905010260758
99566.511772410711274
99649.125658196295262
99733.769189782993635
99493.002961969104945
99531.768421309665428
99550.971551090711728
99549.110777037873049
99533.819561063559377
99512.056692452199059
99484.745307196761132
99448.343184303608723
99400.340727953327587
99345.883676298166392
99300.337190490608918
99283.178243583446601
99303.618987134090276
99353.725047993080807
99407.361364074196899
99438.709668463416165
99441.139670461052447
99429.117829817711026
99425.554666832176736
99443.133382264219108
99477.421794821770163
99513.168812966992846
99537.912007517996244
99550.046800373413134
99557.060263821360422
99568.125061245504185
99586.177449530761805
99605.796135092023178
99618.237344588895212
99618.080283237461117
99609.154351135613979
99603.303958015007083
99612.01232581055956
99638.451326607624651
99674.259698072346509
99822.824028576549608
99819.924645424369373
99817.467196648634854
99816.183197405131068
99816.503778407772188
99818.504298269501305
99821.839355045041884
99825.738739624503069
99829.224681636071182
99831.333139620095608
99831.502408349784673
99602.749736814075732
99609.552117591927527
99623.288069791160524
99646.957784304191591
99679.040084489490255
99713.592744259847677
99743.000906175584532
99761.84516011121741
99769.652672944910591
99770.120665861322777
99767.419686859109788
99763.676764748975984
99759.41643629517057
99755.012562655218062
99752.331871614180272
99753.130516580262338
99756.336490209287149
99757.068118722687359
99749.023736896080663
99729.444175189506495
99703.181322943302803
99680.162862098426558
99669.47447403355909
99677.25185515130579
99703.16978847332939
99740.314374625100754
99778.053545741277048
99806.506124730673037
99819.870678784020129
99818.124237871568766
99806.352153577041463
99791.992718810040969
99781.779423095562379
99779.790516555891372
99786.868196818744764
99801.044191384629812
99780.750343873209204
99780.34529098875646
99782.660939775130828
99787.68314802875102
99794.872527869563783
99803.267402338344255
99811.699888327508233
99819.08516030467581
99824.631521923321998
99828.007754356629448
99829.423972189746564
99829.564851314178668
99829.330991955401259
99829.438781491640839
99830.18354244803777
99831.451976078140433
99832.832192297908477
99833.706717186360038
99833.470029208736378
99831.603603069394012
99828.080000228568679
99575.959111477219267
99585.291902326134732
99608.173425335728098
99645.420375953064649
99691.838060103487805
99737.589397234653006
99773.014020213202457
99792.35356433178822
99796.876938192130183
99792.169602210386074
99784.473720527428668
99776.476034866573173
99767.855831750755897
99758.70057497957896
99750.976369141018949
99747.304829792599776
99748.156542371289106
99750.597834656946361
99749.808787729984033
99742.098207909948542
99728.109095282125054
99714.651180700588156
99709.250813667982584
99716.843427109022741
99737.82955762479105
99767.639968900170061
99798.504509984093602
99822.286882515269099
99833.429396913663368
99831.153176153165987
99819.490435532134143
99805.398264378454769
99795.960077210038435
99795.691576584853465
99805.32474935380742
99822.035981036809972
99761.673939991378575
99760.414015252143145
99762.218555845989613
99767.288288530427963
99775.23421873744519
99785.220334134690347
99796.178803559174412
99807.024694310704945
99816.81156753799587
99824.875743024618714
99830.950715794868302
99835.170906906088931
99837.932954945659731
99839.616990844850079
99840.389118787497864
99840.197221750422614
99838.842155491816811
99836.014411897791433
99831.573584152953117
99825.533569565683138
99818.4687714685424
99566.147394469735445
99599.094227311114082
99648.376056137363776
99705.672802335800952
99758.361674820858752
99795.083359931741143
99811.588708346083877
99811.423968422779581
99801.487126569496468
99788.761407239217078
99776.965136184095172
99766.096666325756814
99755.160007024649531
99745.017662706086412
99738.835222063047695
99739.289480454244767
99745.604931384630618
99753.74320601252839
99759.474286714699701
99760.302328664256493
99757.428343127190601
99755.99768741337175
99760.09076739558077
99771.854484127150499
99790.466543966569589
99811.956652340842993
99830.405641208824818
99840.467510370028322
99839.836562809257885
99830.669710699221469
99819.016412438839325
99811.773403643368511
99813.644306203132146
99825.287365496595157
99741.959588148049079
99742.150863693721476
99745.790095698248479
99752.92297073834925
99763.111899440933485
99775.532972364497255
99789.133248014331912
99802.822397799580358
99815.591104781749891
99826.584401463100221
99835.214190497121308
99841.209912617516238
99844.530127824662486
99845.191626092549996
99843.226213966103387
99838.774835199161316
99832.073072723200312
99823.640650715853553
99814.097158196673263
99804.551974313624669
99560.284012676449493
99600.850188832017011
99656.398169479434728
99715.989036583094276
99767.008083510751021
99799.921780577889876
99811.93516967650794
99806.481135377413011
99792.539223124767886
99777.648811876613763
99765.449849860960967
99755.568863033477101
99746.378302153811092
99737.951703031314537
99733.011274414675427
99734.95138926692016
99744.989215291265282
99760.804507596418262
99777.559061217616545
99790.823126257659169
99797.633384839020437
99798.911163705706713
99798.575441859153216
99800.689088401384652
99807.952191534495796
99820.143114916514605
99833.741521536561777
99843.6189140836359
99845.938223438875866
99840.900118395496975
99832.842895264839171
99828.217210453105508
99831.454251706658397
99842.906375629740069
99725.104268080525799
99722.457028417091351
99723.405839785540593
99728.466577304541715
99737.628932745676138
99750.358856853214093
99765.670596996278618
99782.295471102333977
99798.881977568700677
99814.070011302348576
99826.62657902938372
99835.645773367199581
99840.632956168992678
99841.45943831220211
99838.290903328394052
99831.603951712560956
99822.144109414279228
99811.071867518156068
99799.592675276304362
99789.287755466444651
99614.134913592133671
99665.177469659029157
99715.367904748141882
99755.692266031939653
99780.060516731624375
99787.219595483969897
99780.911976941570174
99767.931358073328738
99755.025782580385567
99745.769094464776572
99740.4445381861442
99737.124645141797373
99734.396362226179917
99733.430838470900198
99737.242268227302702
99748.420460263718269
99766.67316347247106
99788.571295723086223
99808.67246778109984
99822.149193887453293
99827.146711001609219
99825.029697175094043
99821.01662964715797
99820.532084005462821
99826.031195575982565
99835.76963466606685
99845.123683118727058
99849.63185700631584
99847.914603903467651
99843.135608192838845
99840.186679752005148
99843.027436441276222
99704.291912849541404
99701.772266535452218
99703.900158972202917
99711.115654189037741
99723.09043049273896
99738.825959333131323
99756.812904321181122
99775.334737509547267
99792.739341071181116
99807.530339977703989
99818.484711636192515
99824.810656131623546
99826.256897173836478