/*--------------------------------*- C++ -*----------------------------------*\
  =========                 |
  \\      /  F ield         | OpenFOAM: The Open Source CFD Toolbox
   \\    /   O peration     | Website:  https://openfoam.org
    \\  /    A nd           | Version:  12
     \\/     M anipulation  |
\*---------------------------------------------------------------------------*/
FoamFile
{
    format      ascii;
    class       volScalarField;
    location    "0.007";
    object      pPrime2Mean;
}
// * * * * * * * * * * * * * * * * * * * * * * * * * * * * * * * * * * * * * //

dimensions      [2 -2 -4 0 0 0 0];

internalField   nonuniform List<scalar> 
106891
(
197954.9633903503418
197797.78073692321777
197646.62068176269531
197501.85979080200195
197369.81566619873047
197255.32410430908203
197167.6989574432373
197106.87930679321289
197076.35124969482422
197074.5880298614502
197087.55197143554688
482764.5054874420166
481376.34152030944824
479994.20869255065918
478611.90011978149414
477225.72080612182617
475834.99160385131836
474440.85557174682617
473043.78812026977539
471643.38447189331055
470239.89701271057129
468833.54799842834473
467423.67326164245605
466010.9774227142334
464599.07682037353516
463190.42100143432617
461781.52018356323242
460364.94724273681641
458935.21025466918945
457492.4838924407959
456043.26236915588379
454597.82953262329102
453163.75646591186523
451743.52924728393555
450339.40376472473145
448958.49012565612793
447612.07338714599609
446310.78844833374023
445059.96608543395996
443858.29569816589355
442697.66613960266113
441563.59853553771973
440439.71930122375488
439315.87467956542969
438191.34108352661133
437069.03076362609863
435948.27429580688477
434824.53381156921387
433694.2916259765625
199503.69866371154785
199262.72443962097168
199029.74275779724121
198801.81229782104492
198579.38988876342773
198366.10151290893555
198166.78472900390625
197984.75168991088867
197819.41023254394531
197666.41133880615234
197519.41664695739746
197374.51626968383789
197231.02778816223145
197094.84151268005371
196971.63273048400879
196871.8054313659668
196797.30241394042969
196752.77775192260742
196737.17188453674316
196737.02127456665039
481391.62179565429688
479995.72927665710449
478607.00431632995605
477219.68363952636719
475831.1071720123291
474441.5019474029541
473050.77305603027344
471658.30850982666016
470265.45930290222168
468873.87729644775391
467482.37184906005859
466090.07252311706543
464700.06926536560059
463315.28643798828125
461931.61948394775391
460539.16796684265137
459130.07639694213867
457704.27924919128418
456269.88617324829102
454838.39276123046875
453417.8288459777832
452011.33564376831055
450622.06690406799316
449256.78830337524414
447924.53817558288574
446632.71254539489746
445384.49700355529785
444178.52130889892578
443008.37449073791504
441861.47371482849121
440721.05770683288574
439573.59860420227051
438415.35848045349121
437250.48580169677734
436083.36967277526855
434913.89714813232422
199159.63759613037109
198923.41549491882324
198693.70806694030762
198466.85247802734375
198243.64434814453125
198028.73053932189941
197828.03621864318848
197645.59694480895996
197481.15651321411133
197330.41481018066406
197186.91687774658203
197046.12941932678223
196906.3324089050293
196771.75797843933105
196646.87887763977051
196541.13603210449219
196457.04853057861328
196399.9167308807373
196369.43053436279297
196353.47890472412109
481590.11599731445312
480157.73049545288086
478737.96077919006348
477322.91765594482422
475909.6297550201416
474499.65805053710938
473094.01749420166016
471693.13238525390625
470299.18382453918457
468913.73505592346191
467534.50690841674805
466159.20956993103027
464790.49242401123047
463431.60320854187012
462077.79420471191406
460716.45876121520996
459337.2000732421875
457940.10784339904785
456534.6315803527832
455132.68333435058594
453742.56447601318359
452368.25236892700195
451012.73022651672363
449679.91473579406738
448374.07781028747559
447098.89698600769043
445855.85724449157715
444643.99305534362793
443459.27039909362793
442292.50369262695312
441128.62515258789062
439951.98502159118652
438755.48239517211914
437543.43853569030762
436324.28470993041992
435102.04447364807129
198571.96393013000488
198343.96308708190918
198121.03454399108887
197901.5522575378418
197687.87729072570801
197484.48221969604492
197295.34582138061523
197121.63916206359863
196961.33968353271484
196810.30717468261719
196665.42375755310059
196525.21003150939941
196392.52004241943359
196269.90470695495605
196164.39891242980957
196077.49138259887695
196014.03399658203125
195974.19648742675781
195947.43568992614746
480539.87209320068359
479068.52119064331055
477602.34109306335449
476140.45488739013672
474687.81472778320312
473247.97443199157715
471822.34830474853516
470413.46907997131348
469022.99052238464355
467648.43109321594238
466286.86081314086914
464939.57091522216797
463608.56523513793945
462288.1236743927002
460964.45096778869629
459625.75558280944824
458271.35676383972168
456910.50098037719727
455554.48796272277832
454210.98179626464844
452883.69302368164062
451573.95934677124023
450282.06782150268555
449009.03596115112305
447756.74596786499023
446525.74613571166992
445313.54085922241211
444115.67788124084473
442925.3814754486084
441730.95432472229004
440518.01669311523438
439278.51008796691895
438016.53018760681152
436742.89225387573242
198535.0475902557373
198277.28556251525879
198038.07543182373047
197811.08758735656738
197592.08787727355957
197379.7120475769043
197175.09513282775879
196980.54996490478516
196797.64153671264648
196626.33768844604492
196465.07036018371582
196312.783447265625
196169.02334403991699
196036.01670837402344
195914.81874656677246
195810.08144950866699
195721.91227531433105
195654.2337646484375
195607.68877029418945
195573.48864555358887
481216.93503379821777
479683.05169105529785
478153.48779487609863
476629.5324878692627
475119.51311302185059
473630.73255348205566
472166.98843383789062
470731.32169532775879
469326.37573432922363
467951.8047924041748
466604.5784969329834
465282.09555625915527
463981.2296257019043
462693.94327354431152
461407.41194534301758
460111.54604911804199
458806.49765205383301
457500.28509902954102
456200.96701812744141
454912.94888496398926
453637.53671264648438
452373.58853149414062
451119.73938941955566
449877.52462387084961
448650.33766174316406
447438.1098747253418
446234.71484375
445031.37062454223633
443820.3222827911377
442593.3231315612793
441340.31074714660645
440055.69058036804199
438744.88638305664062
198147.6350269317627
197883.92831802368164
197638.59472846984863
197407.25308227539062
197186.72744369506836
196975.80559158325195
196775.11982536315918
196585.8885383605957
196408.82877159118652
196243.672119140625
196090.31790161132812
195948.6063175201416
195819.84844398498535
195703.53431129455566
195601.91175079345703
195513.59612274169922
195441.48907661437988
195386.93751335144043
195342.95771980285645
480570.5218391418457
478978.97555541992188
477393.20937919616699
475823.35322761535645
474280.70554161071777
472772.36755180358887
471302.38007545471191
469874.45612907409668
468490.99845886230469
467150.41553115844727
465846.72867584228516
464570.62510108947754
463310.51117134094238
462055.06584548950195
460798.20328140258789
459541.83980941772461
458291.65599822998047
457050.25052833557129
455815.9326343536377
454586.32949256896973
453360.6617259979248
452140.23987007141113
450929.12969589233398
449731.5699577331543
448545.45129585266113
447359.27610969543457
446158.20493316650391
444931.90141105651855
443675.14109039306641
442384.415771484375
441059.74482154846191
439709.30955123901367
198264.56160926818848
197975.59933662414551
197706.74051666259766
197454.66172218322754
197216.56591606140137
196991.2934398651123
196779.54961204528809
196582.71282768249512
196401.58600234985352
196235.88311767578125
196085.36387252807617
195949.66380500793457
195829.14994049072266
195721.95561027526855
195627.96072196960449
195544.0024471282959
195471.26978874206543
195411.25154113769531
195357.87252998352051
479991.89602661132812
478345.04668426513672
476715.04265785217285
475116.34160804748535
473559.64470863342285
472049.98191833496094
470590.03739547729492
469182.73883247375488
467828.88274002075195
466523.110107421875
465253.26348495483398
464005.22218704223633
462768.83786582946777
461540.6815357208252
460322.5045337677002
459115.98262786865234
457917.68165969848633
456720.92337989807129
455522.87910842895508
454327.1503963470459
453139.21465682983398
451962.72650909423828
450797.84154319763184
449637.98094367980957
448468.65301132202148
447272.95299911499023
446040.25004196166992
444767.96897888183594
443458.26146507263184
442116.64140701293945
198349.30097389221191
198059.48087120056152
197787.63692855834961
197531.91508483886719
197291.52724075317383
197067.01722145080566
196859.56088638305664
196670.20730972290039
196499.30463027954102
196347.09028816223145
196213.16058540344238
196097.10033226013184
195995.99181175231934
195908.03379821777344
195828.98062133789062
195758.37778854370117
195697.28705978393555
195639.11347389221191
479427.45516204833984
477732.56183242797852
476075.50319862365723
474470.32986450195312
472921.6964282989502
471427.32182121276855
469986.17008972167969
468600.36845397949219
467268.59059715270996
465982.37943649291992
464730.41693496704102
463503.07644081115723
462294.08498191833496
461100.57649612426758
459920.46613311767578
458747.14415168762207
457572.03800964355469
456393.31866645812988
455217.95130729675293
454053.67546081542969
452901.53021049499512
451756.35860443115234
450608.76904106140137
449445.95160484313965
448253.57375335693359
447022.00171852111816
445749.9212474822998
444442.34210205078125
199073.31278228759766
198765.56410598754883
198476.97344779968262
198206.60546112060547
197953.34268379211426
197716.63525199890137
197496.70498085021973
197294.54635238647461
197111.36292266845703
196948.39728927612305
196805.87558174133301
196683.24709510803223
196577.30461883544922
196485.52252960205078
196403.43754959106445
196329.45645332336426
196264.60301971435547
196201.80362129211426
478972.13253402709961
477259.48140525817871
475607.17601203918457
474017.64626121520996
472484.74784088134766
471004.85515785217285
469580.34132194519043
468212.06485366821289
466896.70188140869141
465627.77291107177734
464396.71394348144531
463194.56854438781738
462015.4280834197998
460855.02579498291016
459705.08340454101562
458554.01161766052246
457395.82978057861328
456234.66329574584961
455077.39499282836914
453925.82361221313477
452776.28552055358887
451622.79428100585938
450457.25264549255371
449270.35871887207031
448054.01110649108887
446804.00567245483398
445520.98660659790039
199900.8276309967041
199601.37378311157227
199319.54170227050781
199054.69534301757812
198805.94910049438477
198572.94915962219238
198356.38718414306641
198157.60665130615234
197978.17133331298828
197818.44087028503418
197677.90118408203125
197553.89883613586426
197444.54332160949707
197346.58963584899902
197258.38408279418945
197181.03774261474609
197106.19327163696289
482182.13102340698242
480385.11188888549805
478636.54238319396973
476946.62771987915039
475319.16486358642578
473751.66364669799805
472241.82701110839844
470789.91872406005859
469395.64976692199707
468054.97248458862305
466761.72163009643555
465509.48528099060059
464293.46396636962891
463111.6513614654541
461961.83245277404785
460834.92969703674316
459714.84456062316895
458587.21030235290527
457446.80309295654297
456296.43439292907715
455140.69702911376953
453982.57376289367676
452822.4000129699707
451656.87596893310547
450479.77573013305664
449283.18301582336426
448059.23418235778809
201143.59769058227539
200863.030517578125
200595.82079124450684
200341.5385684967041
200100.47111892700195
199873.63313293457031
199662.08112525939941
199466.41343116760254
199285.89278984069824
199119.54993629455566
198965.6970157623291
198824.39958763122559
198695.32215118408203
198578.23884963989258
198475.14218330383301
198376.55977249145508
483260.39273262023926
481464.19611167907715
479715.0422306060791
478015.97543334960938
476371.19128227233887
474784.90352058410645
473260.02504348754883
471796.47172164916992
470388.70632553100586
469025.92887115478516
467698.47516441345215
466404.11430740356445
465147.5697021484375
463934.94245910644531
462766.92118072509766
461634.36153221130371
460520.02702140808105
459405.95136070251465
458280.84549522399902
457142.35497856140137
455994.13574028015137
454840.63208198547363
453683.45458793640137
452520.27211761474609
451346.00815391540527
450153.93866729736328
448937.51593208312988
447693.5800838470459
202287.40590286254883
202023.87905120849609
201771.71682548522949
201531.03353691101074
201302.04056930541992
201084.47763061523438
200877.53377914428711
200679.64055633544922
200490.08209419250488
200308.57738304138184
200136.90154838562012
199976.48944854736328
199827.84507179260254
199693.46433448791504
199564.22817993164062
482557.69528579711914
480815.02550315856934
479115.94762420654297
477464.03287315368652
475867.69542694091797
474332.70438003540039
472857.22471618652344
471430.78265953063965
470037.65160751342773
468666.32339668273926
467317.94553565979004
466004.93280410766602
464740.55406188964844
463529.22762489318848
462363.68655014038086
461228.03410720825195
460104.56851959228516
458980.51277160644531
457849.87595176696777
456711.56142234802246
455566.06172752380371
454412.77642059326172
453249.23337936401367
452070.98998260498047
450872.78028678894043
449650.95637512207031
448405.68118286132812
203613.39055442810059
203362.05976867675781
203121.69501876831055
202891.41700744628906
202669.77606964111328
202455.0676326751709
202245.54139137268066
202040.87098121643066
201841.42243194580078
201649.60468673706055
201467.62069511413574
201296.28940200805664
201138.47630882263184
200985.33876419067383
482081.09337997436523
480379.69455718994141
478720.02873802185059
477112.86428642272949
475564.7482795715332
474070.51779365539551
472615.50003623962402
471182.12559127807617
469758.92422866821289
468349.11410522460938
466969.64331245422363
465638.94051933288574
464365.42653846740723
463145.20043182373047
461966.04224586486816
460813.4704761505127
459675.26608085632324
458542.52048873901367
457408.3807487487793
456267.0244312286377
455113.79530906677246
453945.6562442779541
452760.02748680114746
451553.53716850280762
450323.87842178344727
449071.86366653442383
205085.7299633026123
204840.6944408416748
204604.49141311645508
204374.88183975219727
204149.90017127990723
203928.16218376159668
203709.77958679199219
203495.27102088928223
203286.98279190063477
203087.2248706817627
202897.14579963684082
202720.26929092407227
202548.53280067443848
481803.57106590270996
480133.83825492858887
478513.77556419372559
476949.44919586181641
475432.66261863708496
473945.30971145629883
472469.31840133666992
470994.99560165405273
469527.09645462036133
468083.44001770019531
466684.44123268127441
465342.06351661682129
464057.06915473937988
462822.62173271179199
461628.75740814208984
460464.65369606018066
459318.88456344604492
458179.8671703338623
457036.77442359924316
455881.35179901123047
454709.58287811279297
453520.08448600769043
452310.41046714782715
451076.87421417236328
449817.84292793273926
206687.30267524719238
206441.89497566223145
206201.56315231323242
205964.58974456787109
205730.31646347045898
205499.17038917541504
205271.38358306884766
205048.62947082519531
204832.89064598083496
204625.90713310241699
204432.09844017028809
204244.26446342468262
481687.72311019897461
480053.08382797241211
478470.88642311096191
476930.40326118469238
475411.4284610748291
473895.91595458984375
472376.72244453430176
470860.43404388427734
469364.13790893554688
467906.62369155883789
466501.07810401916504
465152.54599952697754
463860.11682510375977
462619.49094581604004
461422.34313774108887
460255.5543041229248
459103.75008201599121
457952.9456787109375
456793.23209381103516
455620.08588218688965
454432.04577445983887
453225.25192260742188
451992.22502326965332
450727.16010093688965
481745.34827423095703
480142.90261840820312
478577.16501045227051
477027.16240882873535
475475.52130126953125
473917.65204429626465
472361.86180686950684
470823.55390548706055
469318.69931411743164
467859.38834571838379
466453.2984561920166
465104.769775390625
463814.74576377868652
462577.97234153747559
461381.44591522216797
460207.73550224304199
459041.60048675537109
457873.37160873413086
456698.02949905395508
455511.52889442443848
454305.96436500549316
453070.22056579589844
451796.84113693237305
480392.26658248901367
478810.55547904968262
477223.95913696289062
475628.72037506103516
474033.84920310974121
472454.5214786529541
470905.37216758728027
469397.85716819763184
467940.60807418823242
466539.94241333007812
465199.53237342834473
463917.20852279663086
462681.94929504394531
461477.05902671813965
460287.90613746643066
459105.22964859008789
457922.25018310546875
456730.07589340209961
455515.82160186767578
454266.90707015991211
452977.64549446105957
475837.01666831970215
474213.26807022094727
472619.69711112976074
471068.14801406860352
469565.79966354370117
468117.37610054016113
466726.61876487731934
465394.0095329284668
464112.40259552001953
462868.31028175354004
461648.52953910827637
460443.06307220458984
459241.65587615966797
458030.34828948974609
456793.11650657653809
455518.59184455871582
454205.06297302246094
471273.39994239807129
469782.92571258544922
468344.28313446044922
466960.04010772705078
465627.81280708312988
464338.62625503540039
463080.84004592895508
461842.77653503417969
460610.73963737487793
459367.55082130432129
458096.78824615478516
456789.85544776916504
455448.41537094116211
471503.04014778137207
470022.03685569763184
468589.29859161376953
467207.65490341186523
465872.75005912780762
464573.54288864135742
463296.13705253601074
462024.75622367858887
460742.07981109619141
459433.61871147155762
458093.67964172363281
456725.49430465698242
637924.56402778625488
636762.01366996765137
635643.01313209533691
634533.07589340209961
633409.06384468078613
632256.05267906188965
631061.42512702941895
629812.71268081665039
628498.49443244934082
627110.67262077331543
625647.57448387145996
624113.98409080505371
622520.34665298461914
620879.38622283935547
619204.08034896850586
617507.71903991699219
615803.95087432861328
614103.92293357849121
612411.11334991455078
610721.06536102294922
640746.6593189239502
639527.62102699279785
638388.56245803833008
637290.0289134979248
636197.20885467529297
635087.63931465148926
633946.38204765319824
632760.13584327697754
631513.84412384033203
630193.04328918457031
628788.63419342041016
627299.98822975158691
625735.00993537902832
624108.2834644317627
622436.60670280456543
620734.46136093139648
619014.06852149963379
617287.40110206604004
615565.46773910522461
613853.40266418457031
612148.6146411895752
610447.37911987304688
644916.00444602966309
643498.9891529083252
642192.96339797973633
640993.70952415466309
639873.40232849121094
638791.24482917785645
637711.67343330383301
636612.8181037902832
635480.04767608642578
634299.04830169677734
633052.53230476379395
631723.10171699523926
630300.49681282043457
628785.39493942260742
627188.74000549316406
625529.39322853088379
623828.19396209716797
622101.24834632873535
620359.47196197509766
618612.91695594787598
616872.18947601318359
615143.89192199707031
613427.18400001525879
611719.41661071777344
610024.16135597229004
608352.68981552124023
647688.84218215942383
646182.54178237915039
644777.80656242370605
643485.03182792663574
642299.37218856811523
641191.53783798217773
640119.62698173522949
639048.6517391204834
637956.72236251831055
636829.22461318969727
635650.97409057617188
634402.61960411071777
633064.44942855834961
631625.22981643676758
630086.62568664550781
628462.23449516296387
626774.40874481201172
625047.22338676452637
623298.34420204162598
621537.69110679626465
619773.56282806396484
618016.1614875793457
616273.47190856933594
614546.24983596801758
612832.56575202941895
611135.74472999572754
609465.58107566833496
607833.62632751464844
650363.66959762573242
648771.86201667785645
647274.42258071899414
645878.91520118713379
644596.52596473693848
643421.64170837402344
642323.42004013061523
641259.01656532287598
640193.51307106018066
639105.80759239196777
637981.11603546142578
636803.57076835632324
635551.80610466003418
634203.94174575805664
632747.9769229888916
631186.97843742370605
629537.02725028991699
627823.77814102172852
626074.01725387573242
624306.54170227050781
622530.46562194824219
620752.41159820556641
618982.11429405212402
617228.62688064575195
615493.7246150970459
613776.32265090942383
612079.46338272094727
610411.16860961914062
608781.38692474365234
607198.84042358398438
652937.33421897888184
651252.3970890045166
649668.27989959716797
648176.54679298400879
646786.52404403686523
645509.88027763366699
644340.88830947875977
643247.79682159423828
642187.07180023193359
641124.48171424865723
640039.16711616516113
638915.90790939331055
637738.00351142883301
636482.9269962310791
635127.34455871582031
633658.59430885314941
632080.56424522399902
630411.14064407348633
628677.82203674316406
626909.58109092712402
625126.4738883972168
623337.11206245422363
621546.87957000732422
619765.17119598388672
618002.02545928955078
616260.5428352355957
614540.08291816711426
612843.16191673278809
611176.15001106262207
609547.84904861450195
607967.17203140258789
606441.42465019226074
653610.37767028808594
651934.17901039123535
650355.29640960693359
648867.36430740356445
647481.47741317749023
646209.70124626159668
645045.50044631958008
643956.18008041381836
642897.93742179870605
641836.76870155334473
640752.30376243591309
639629.07124137878418
638449.71050262451172
637190.4697093963623
635826.69443893432617
634345.53054046630859
632752.10574531555176
631066.37595558166504
629317.68952369689941
627536.00014495849609
625741.52289390563965
623942.81182479858398
622144.52874946594238
620355.76509475708008
618587.1717529296875
616842.56072044372559
615121.12666511535645
613424.93002319335938
611759.44376564025879
610132.58042907714844
608553.60770988464355
607031.00708389282227
605572.77313232421875
751403.1993522644043
748672.15845489501953
746055.49769020080566
743525.27015686035156
741036.35888290405273
738571.38436126708984
654071.52814674377441
652400.57234382629395
650824.5256462097168
649338.27117156982422
647953.89443588256836
646683.60003471374512
645520.69024085998535
644432.10205841064453
643373.83920478820801
642312.33098030090332
641227.68641662597656
640104.00292587280273
638923.22765922546387
637661.19539833068848
636292.39437675476074
634803.71305847167969
633201.12649345397949
631505.71925735473633
629747.45797538757324
627956.78224754333496
626154.6214485168457
624349.33609390258789
622545.07659149169922
620750.86180114746094
618978.05876922607422
617230.85705757141113
615508.29285430908203
613812.15323829650879
612147.39980697631836
610521.35605430603027
608943.60955619812012
607423.61335945129395
605969.54564476013184
604591.79326248168945
754648.15954208374023
751808.84612274169922
749066.20338439941406
746440.67258834838867
743901.79393768310547
741403.32663917541504
738926.86126327514648
654314.52051734924316
652646.20004653930664
651071.50423812866211
649585.96671485900879
648202.5834789276123
646933.45887565612793
645771.47701263427734
644683.42730140686035
643625.14717102050781
642563.1685619354248
641478.0488452911377
640353.7112865447998
639171.52786636352539
637907.16693305969238
636534.76654243469238
635041.16721153259277
633432.92865753173828
631731.85837364196777
629968.52687454223633
628173.48615074157715
626367.5185432434082
624559.0401668548584
622752.24398994445801
620955.91932106018066
619181.65196800231934
617433.82842254638672
615711.3432788848877
614015.6382884979248
612351.48473739624023
610726.08536338806152
609149.01971626281738
607630.40439033508301
606178.28534507751465
604802.71731567382812
603508.61530494689941
197971.05451393127441
197795.72079277038574
197637.44045066833496
197496.61907386779785
197374.1793212890625
197266.57648849487305
197175.4077205657959
197096.00887298583984
197031.16747856140137
196982.9998950958252
196942.80844879150391
481575.68537902832031
480151.02003288269043
478737.64031791687012
477321.68730926513672
475889.69040679931641
474435.78232002258301
472961.65670776367188
471474.79581832885742
469986.28692245483398
468504.60830879211426
467031.76095008850098
465565.67790794372559
464103.21162986755371
462641.28124809265137
461178.4633674621582
459715.52669334411621
458253.68039131164551
456795.18751335144043
455347.39363098144531
453924.43130111694336
452541.15155410766602
451203.05961418151855
449903.57439422607422
448628.33085632324219
447363.65777397155762
446102.16781425476074
444841.57907676696777
443580.25962066650391
442317.63641166687012
441059.1075611114502
439816.0158863067627
438598.14270210266113
437407.28930854797363
436237.45176696777344
435078.60939979553223
433920.19792556762695
199852.87374496459961
199563.11499214172363
199297.53431129455566
199054.29753875732422
198829.8833179473877
198619.41302871704102
198417.63643074035645
198220.38835144042969
198025.97084426879883
197835.35975646972656
197651.64301490783691
197478.06040954589844
197317.74251174926758
197171.35399627685547
197040.30682945251465
196922.28429985046387
196819.87030220031738
196729.99752426147461
196656.32708930969238
196601.20010566711426
196556.85656929016113
481797.5021800994873
480373.81647682189941
478963.84371376037598
477545.50518989562988
476100.68490028381348
474625.09333038330078
473126.49833679199219
471618.99570274353027
470117.28426361083984
468630.13721656799316
467158.50999641418457
465699.78462409973145
464251.65214729309082
462811.36539459228516
461376.29478645324707
459945.64620208740234
458519.47414588928223
457097.15339660644531
455680.49258804321289
454277.62737274169922
452901.25404167175293
451559.5778751373291
450249.11951446533203
448957.97068786621094
447674.31282234191895
446392.60999870300293
445111.53474426269531
443828.58753204345703
442541.52977561950684
441254.84840774536133
439979.87684631347656
438726.6983470916748
437497.37626647949219
436285.45114898681641
435079.25453948974609
433866.6925220489502
199495.32731246948242
199207.11372756958008
198943.11741065979004
198701.87148857116699
198480.81181526184082
198276.00250625610352
198082.47869300842285
197895.2930908203125
197710.9892520904541
197528.36900329589844
197348.7025260925293
197174.4617748260498
197008.93200492858887
196853.71071434020996
196711.25036430358887
196580.80893898010254
196466.05384635925293
196365.30286979675293
196282.67868423461914
196220.17997932434082
196170.3903980255127
480805.58219528198242
479384.22681999206543
477949.0005054473877
476480.89467239379883
474979.86554527282715
473461.70906639099121
471946.37736129760742
470446.90522384643555
468966.70217895507812
467503.73373413085938
466058.04176902770996
464632.55193710327148
463226.47402572631836
461833.82905578613281
460448.35169982910156
459066.13212013244629
457683.72103309631348
456299.48243522644043
454918.17243957519531
453550.87047958374023
452207.5809211730957
450887.88752746582031
449581.37217330932617
448277.58868598937988
446973.19962120056152
445669.14618682861328
444363.77743911743164
443053.80382347106934
441741.2148323059082
440434.86391067504883
439143.69649314880371
437869.8511791229248
436607.08060455322266
435343.69873428344727
198903.4323616027832
198634.83493995666504
198389.23116111755371
198165.54989051818848
197961.26335334777832
197771.92389488220215
197591.72856521606445
197415.15212249755859
197238.45866775512695
197060.80673408508301
196883.75057792663574
196710.90495872497559
196545.41790580749512
196391.46566581726074
196250.24276351928711
196126.46640396118164
196019.39943885803223
195932.89758110046387
195867.90236663818359
195816.21208190917969
481305.70638275146484
479853.52105140686035
478387.09589958190918
476890.76738739013672
475371.49855995178223
473850.11100006103516
472345.29699325561523
470864.85507774353027
469405.62334823608398
467963.12046813964844
466541.63722991943359
465150.90247917175293
463792.57819747924805
462455.6306209564209
461125.54130554199219
459792.65082740783691
458451.88293075561523
457101.87358856201172
455747.8161792755127
454400.7209644317627
453069.33204078674316
451752.47249221801758
450439.67539024353027
449122.18593597412109
447799.77630424499512
446476.71875
445153.79093551635742
443827.29544639587402
442495.20607376098633
441161.41520881652832
439832.50092315673828
438511.73452949523926
437195.6455020904541
435875.33217239379883
198684.24054527282715
198404.85667991638184
198150.04955291748047
197920.08386039733887
197713.21269226074219
197524.80977058410645
197347.8667049407959
197174.94012832641602
197000.33085632324219
196821.87461471557617
196640.81069564819336
196461.2418041229248
196287.40181541442871
196124.5247631072998
195975.2241096496582
195845.19059181213379
195734.95910453796387
195648.4248046875
195585.71649169921875
195537.33014488220215
480351.64046478271484
478837.49301910400391
477309.74578475952148
475779.77301025390625
474265.75168037414551
472779.4925422668457
471320.80598068237305
469882.54643249511719
468462.02027320861816
467068.2754955291748
465715.13486480712891
464404.76497840881348
463121.46606636047363
461843.23772621154785
460555.25837326049805
459252.5464973449707
457937.25702476501465
456618.03514099121094
455305.86128234863281
454004.67530822753906
452706.66132545471191
451399.62796592712402
450078.39946556091309
448747.01133155822754
447413.35545349121094
446080.9061107635498
444745.67628479003906
443400.89360237121582
442044.54572677612305
440681.56235313415527
439318.72632026672363
437957.49838638305664
198315.25627708435059
198045.99358177185059
197805.36034965515137
197591.91979789733887
197400.27283096313477
197222.01809883117676
197048.2242546081543
196872.20174407958984
196691.50472640991211
196507.7750301361084
196325.71075820922852
196150.05264091491699
195985.86132049560547
195835.53890419006348