/*--------------------------------*- C++ -*----------------------------------*\
  =========                 |
  \\      /  F ield         | OpenFOAM: The Open Source CFD Toolbox
   \\    /   O peration     | Website:  https://openfoam.org
    \\  /    A nd           | Version:  12
     \\/     M anipulation  |
\*---------------------------------------------------------------------------*/
FoamFile
{
    format      ascii;
    class       volScalarField;
    location    "0.007";
    object      rho;
}
// * * * * * * * * * * * * * * * * * * * * * * * * * * * * * * * * * * * * * //

dimensions      [1 -3 0 0 0 0 0];

internalField   nonuniform List<scalar> 
106891
(
1.1575162432556480585
1.1574286000670541696
1.1573195233370825452
1.1571989102865674059
1.1570767438151361439
1.156959734842058829
1.1568561688535781151
1.1567721474533163573
1.1567142776764227641
1.1566928751664660169
1.1567043164145338618
1.1506885220450351337
1.1515524291694709813
1.1524134239904579857
1.1532135629655495546
1.1538923486678247521
1.1544167528949049739
1.1547977844531633895
1.1550835252631588279
1.155334535988042477
1.15559063178430943
1.155849935604213341
1.1560763135755982578
1.1562345692929520968
1.1563262160204013096
1.1563953489566458632
1.1565001422717198221
1.1566730837463756743
1.1568980170019766973
1.1571205042812910957
1.1572846218641603677
1.1573690384933386088
1.1573960148711142093
1.1574054407503102659
1.1574201495110851834
1.1574288042653451125
1.1573961962525884939
1.1573008776656941166
1.1571555027327722343
1.1569978516927985623
1.1568688606496089211
1.1567919981024390452
1.1567697274867962953
1.1567926493303637425
1.1568510907744151694
1.1569350486269365241
1.1570271027791942942
1.1571054013456270049
1.1571537690645321561
1.1569543461566706988
1.1570406223004794377
1.1571525795496826472
1.1572792329953407453
1.1574054344512161308
1.1575144973770088441
1.1575918847492370212
1.1576283232286264102
1.1576206452664461466
1.1575712773362560881
1.1574870304861639703
1.1573771388698470552
1.1572520091454439051
1.1571240911636915261
1.1570028233111544491
1.1568983457604740117
1.1568156096982695757
1.1567613871366548839
1.1567443654997031643
1.1567584528287673251
1.1516742977336340559
1.1524918863500341892
1.1532189519448277082
1.1538268666631308346
1.1543066198042437609
1.1546773205307165888
1.1549820989643304614
1.1552678509885232483
1.1555574831811383785
1.1558391939326146947
1.1560755628676744333
1.1562346717168943133
1.1563248787084461355
1.1563979897911982331
1.1565173715484924344
1.1567147827386348169
1.1569670559783822306
1.1572097399903542581
1.1573798716920129515
1.1574548938241875362
1.1574614606201651945
1.1574488949279548855
1.1574508272393826402
1.1574628335394787637
1.157453532924070716
1.1573955510965407978
1.1572873029958514746
1.1571546754503396759
1.157035413654463829
1.1569570681733372108
1.1569304653452381348
1.1569547441324419257
1.1570244452144238245
1.1571291989375118714
1.1572483475467150171
1.1573540872327106044
1.1569108632835334305
1.1570040233590421774
1.1571217334654062547
1.1572538311737814443
1.1573866044670306774
1.1575040881685236815
1.1575910478410962323
1.1576364739937397008
1.157635963108169852
1.1575913719182262529
1.1575100570787129062
1.1574022204966032401
1.1572787890791003118
1.1571525791702756969
1.1570339163626357504
1.1569349234745887056
1.1568599719623464672
1.1568153035308896825
1.1568063354521689323
1.1568229674339831625
1.1519194674843813431
1.1527144943700238233
1.1534046900001861946
1.1539831168844114639
1.1544547878634126015
1.1548372647073279484
1.1551589977013931865
1.1554490323047588163
1.1557200170038313125
1.1559603581365323066
1.1561455599297301156
1.1562628305158533237
1.1563319680610748552
1.156402941632901582
1.1565288002171869586
1.1567317746842638027
1.156984550435032455
1.157224672459054915
1.1573929636080559913
1.1574688646708326534
1.1574779372387236087
1.1574675749652683088
1.1574721807333963053
1.1574948078076445768
1.1575099841661862232
1.1574870212639016831
1.1574134609373771809
1.1573023572893073041
1.1571857971112786689
1.1570958744506623095
1.1570549959754907743
1.1570735422437128381
1.1571526971761985081
1.1572838245336070084
1.1574440601660169747
1.1575984168641326733
1.1569586166065797261
1.1570782708200215705
1.1572118380428233486
1.1573461812757157574
1.1574662844742635848
1.1575572195925043495
1.1576070563821543313
1.1576099063010945045
1.1575669535200432403
1.1574865806465242102
1.1573809373010965906
1.1572631137697526604
1.1571465725844871653
1.1570402903534000583
1.1569555554295265498
1.1568947678305347981
1.1568628304606776158
1.1568619318362354242
1.1568789974075455174
1.1523278634877802684
1.1529319670020525823
1.1534962833746891242
1.1540257821864805532
1.1545135445975360788
1.1549500287546117239
1.1553265153395799736
1.1556360050194514066
1.1558725101374771604
1.1560372462710706287
1.1561477164667337547
1.1562412683998610774
1.1563630306365131339
1.1565454404173838299
1.1567882304263630289
1.1570542157723231469
1.1572861548954622712
1.1574356275342689848
1.1574880694014633153
1.1574682684442463287
1.1574224818378404667
1.1573921165593510363
1.1573943203282344161
1.1574163841724067758
1.157429773253742411
1.1574127958318471965
1.1573634893849853444
1.1572986251578056827
1.1572458527827833574
1.1572312622560441131
1.15727267200723416
1.1573756615596988429
1.1575320790834764395
1.1577179039197882382
1.1567950100647033107
1.156889593803676064
1.1570084062225050037
1.1571410334562757249
1.157273534379830382
1.1573908799609262665
1.1574786646489281239
1.1575259123541337125
1.1575271934976067989
1.1574833476471515503
1.1574031607401746857
1.1573000782468827463
1.1571896863325172866
1.1570873497882470105
1.1570008385446968191
1.1569382430993435662
1.1568974537085259247
1.1568804291710135246
1.1568862382881899276
1.156900837130443005
1.1526431803416385957
1.1531755795666303044
1.1536984328950183887
1.1542239254636075252
1.1547308053643101644
1.1551835686313804974
1.1555486438484974254
1.155806490846978285
1.1559608793263465021
1.1560416011846890161
1.1560959365049714442
1.1561752084703487142
1.1563171456160561412
1.1565312782677146242
1.1567936312784150577
1.1570565297359045598
1.1572686156208678021
1.1573964154982276931
1.1574330859193531218
1.1573980299259032378
1.1573328843727914705
1.1572834672322960259
1.1572787493172824735
1.1573197591687613972
1.1573830491461938319
1.1574361186418702374
1.1574581029971593438
1.1574504326739223359
1.1574349900753380105
1.1574400184762134725
1.1574896254391933148
1.1575933794571073854
1.1577443097475816902
1.1567785560056700334
1.156895426488673051
1.1570259016360675552
1.1571546767354918828
1.1572657512834130245
1.1573449568420959288
1.1573827403435648087
1.1573763212444037052
1.1573288442844196222
1.1572503621972076715
1.1571541712928157253
1.1570551058097668928
1.1569682908836396162
1.1569009630259665666
1.1568595978964588689
1.1568391024239934595
1.1568382664194207798
1.1568523719520629189
1.1568665093573287095
1.1530755012542723836
1.1536611749376237679
1.1542551631664339507
1.1548190260374378013
1.1553014237208516501
1.1556611753150312083
1.1558817307141799891
1.1559823756889560098
1.1560151697297396112
1.1560479474329905525
1.1561390025789741731
1.1563160485631203134
1.1565666892340913385
1.1568485601795546192
1.1571084903299952984
1.1573019242090136771
1.1574062174350292498
1.1574215184184908356
1.1573671776697196378
1.15728013178669209
1.1572069421000867884
1.1571862789477618261
1.1572317157661367037
1.1573240494123313571
1.1574254542657917977
1.1575034526152467862
1.1575489045542235456
1.1575799059361873145
1.1576238264443889925
1.1577026439033211158
1.157822297435329828
1.1579727378320654463
1.1566157299818669024
1.1567283097304974504
1.1568525731609129448
1.1569733242719988375
1.1570746314575763858
1.157143214007145593
1.1571709087932551263
1.1571566938302115801
1.1571058143232351156
1.1570299572973632429
1.1569428834250576887
1.1568581709900809251
1.1567883538589378567
1.1567387892084612933
1.1567144815003405078
1.1567092220917616352
1.1567212841939420453
1.1567444481385216193
1.156763552533185635
1.1536450262170816483
1.1542676049307158959
1.1548474434557485235
1.1553279327998213777
1.1556682222273799709
1.1558615977197395086
1.1559353031094845576
1.1559468965392849515
1.155966512436530591
1.1560535968796705752
1.1562343360969795647
1.1564917189122245755
1.1567787438738699191
1.1570401906464506947
1.1572365035028118196
1.1573495704449152655
1.1573792114664813724
1.1573423601324419607
1.1572720030597052343
1.1572130301895486859
1.1572064684600253948
1.1572682640264004839
1.1573811783557086397
1.1575056039778521821
1.1576064104686951683
1.1576702945059811345
1.1577109542500327866
1.157756995433096403
1.1578269764246658102
1.1579248202883347663
1.1565049343003002136
1.1566191545170094734
1.1567269961016466429
1.1568148567737404075
1.1568718222959843978
1.1568921500061799534
1.1568759077152090953
1.1568283960868643856
1.1567608770180390909
1.1566856445467168513
1.1566148667937037331
1.1565596242474134314
1.156523619564843397
1.1565108612076597794
1.1565156614952329939
1.156536445100055932
1.1565675630115355155
1.1565959027619583388
1.1542888195527905015
1.1548740211177361825
1.1553395070139804712
1.1556619429931356269
1.1558508527046535974
1.1559368537956391521
1.1559674285551830852
1.1559961925105732838
1.1560722415065569635
1.1562255129376866059
1.1564512319833442078
1.1567134899010207416
1.1569667586336180864
1.1571677772708219845
1.1572929854364253366
1.1573459049372196716
1.1573450280422434844
1.1573189465746567262
1.1573017175339348483
1.1573250235121388396
1.1574017074756297596
1.1575180012842589683
1.1576396639268795585
1.157736143361310921
1.157799138085993329
1.1578380593398442944
1.1578747685854871019
1.1579178998598356198
1.1561983739217973621
1.1563013359193154983
1.1563971847870917475
1.1564754265370955633
1.1565274124571816028
1.1565487202309510106
1.1565401561138501929
1.1565060340637260961
1.1564554708132226413
1.1563983731740232752
1.1563445218261445557
1.1563034708521382488
1.1562788991328738497
1.1562750477418455297
1.1562880585236288145
1.1563167157756004677
1.1563556585901864082
1.156394165868450008
1.1549123803742973315
1.1553256972838421568
1.1556075589615566468
1.1557914482729862993
1.1559107570202891146
1.155986778125669634
1.1560468823846516973
1.1561258648344467925
1.1562480224397102546
1.1564224163220957475
1.1566335638264619856
1.1568510372063003366
1.1570466158361800701
1.1572056771937326847
1.1573284757044814963
1.1574251564517137325
1.1575061483328303868
1.1575804394909918749
1.1576537425005144488
1.1577273358010486959
1.1577909787991877977
1.157832815170386942
1.157845974627366159
1.1578366117713356775
1.1578221908116477223
1.1578154952699413194
1.1578156348590056268
1.1558784456241482097
1.1559635109986770019
1.156037485235902551
1.1560933416347711766
1.1561264979451684187
1.1561360969756269146
1.1561244769187388748
1.1560987837799865385
1.1560667421450370185
1.1560365877187916972
1.1560165200053447165
1.1560096598150635394
1.156019939173512423
1.1560450402329969233
1.156083710088884775
1.1561317004760460758
1.1561806883753191766
1.1546030864136973548
1.1550740923219688927
1.1554357094184546373
1.1557060138615913303
1.1559089133268611871
1.1560675355680622989
1.1561956842316132299
1.1563049473556137325
1.1564031951876809767
1.1565010974140776945
1.156606313878186354
1.1567185710176755009
1.1568298164267569739
1.1569414218077633816
1.1570661453066781732
1.1572122322480946632
1.1573756976715618983
1.1575457599929686037
1.1577107968073268029
1.1578548352497901597
1.1579614785838328039
1.1580187471138227995
1.1580218846024135093
1.1579791828042984569
1.1579092794426422142
1.1578342373170400492
1.1577650232668930119
1.1554562907457774923
1.1555272947955379514
1.1555892952389299477
1.155637038325628918
1.1556681320618078512
1.1556830114463330084
1.1556862073214488884
1.1556841946383049624
1.1556844408213793329
1.1556936730625861909
1.1557147797251017263
1.1557499168972822368
1.1557960611901068049
1.1558504837741960802
1.1559087151035980501
1.1559645351145055869
1.1544801703348110955
1.154973199895395819
1.1553667232807123266
1.1556782283285784718
1.1559165246159002205
1.1560942348550284908
1.1562415563574219846
1.1563848353570123084
1.1565314499774896895
1.1566657267629352202
1.1567643671460441368
1.156821870101855998
1.1568597901277759554
1.156914837822257569
1.1570149293789193656
1.1571631459593711977
1.1573430339635160102
1.1575345755639436796
1.1577176029551488057
1.157873805613847118
1.1579868205361951716
1.1580449024675136815
1.1580430569222099901
1.1579866554479052443
1.1578940610734249628
1.1577898765290306482
1.1576918940102027822
1.1576089982331889683
1.1551029313130973808
1.155167878438976059
1.1552245940779530819
1.1552702492162296721
1.1553053473347125735
1.1553333608351057382
1.1553594784328646838
1.155390017986061002
1.1554293107921769224
1.1554789029531482569
1.1555395656811993099
1.1556076969481514638
1.1556788363815535536
1.1557489451179185913
1.1558130623910989332
1.1547565882317938346
1.1552042044135637511
1.1555671943304346438
1.1558419125004462114
1.1560489284507626806
1.1562332192931428221
1.1564332281256459733
1.156654352906794081
1.1568585730562812586
1.1569947119287760096
1.1570447641772783065
1.1570409955681499881
1.1570381258589226281
1.1570769662120379273
1.1571654322648952107
1.1572878354889939434
1.1574235266628591923
1.157560304471601853
1.1576949386481003579
1.1578185169109704855
1.157911377390842933
1.1579546651445544736
1.157940151436400722
1.1578777791368983774
1.1577885278952684267
1.1576954482852646056
1.1576167265406642759
1.1548714228886887145
1.1549351980122741779
1.1549929196322192837
1.1550444441727496514
1.1550929333859332182
1.1551422663776655941
1.1551968327790751445
1.1552600078623345148
1.1553320523647592211
1.155411974255289298
1.1554968064744755019
1.155580813902342463
1.1556601352596971299
1.1557313104813806692
1.1551082615612240367
1.1554887390127246416
1.1557715561734407395
1.155989102255606138
1.1561996646587962001
1.1564445172394874906
1.1567208505305466293
1.1569803818728208178
1.1571596162214530246
1.1572291034501900331
1.1572166926353379957
1.1571822580312567386
1.1571718118938658648
1.1571969898349143691
1.1572475719872699074
1.1573113223383346693
1.1573896552428883933
1.1574927238800796214
1.1576198299756763621
1.1577475075550738293
1.1578398944767016587
1.1578717090119956534
1.1578417327591956631
1.1577681884330008888
1.1576801195113439746
1.1576058989315165526
1.1547342228708765699
1.1548045266985176305
1.154873254385990311
1.1549416648681964936
1.1550122855892526186
1.1550878362938306054
1.1551697939723442055
1.1552582192723943599
1.1553508761930588733
1.1554453519011560481
1.1555367494581452181
1.1556215073783364655
1.155696894185787249
1.1555968747508860162
1.1558507400897470863
1.156055905625296587
1.1562737822916595576
1.1565446922356614756
1.1568553676838366773
1.1571480145267252215
1.157358978762859314
1.1574578676207909478
1.1574594722351470022
1.1574092188397009373
1.1573489957395579619
1.1572943087663156714
1.1572449698522428996
1.1572061394204178342
1.157197328893329491
1.1572420246384567122
1.1573487322440905167
1.1574978767253891743
1.1576459507645717739
1.15774947417658991
1.157787643655636689
1.1577678359254217622
1.1577166024201877015
1.157668089921603416
1.1547022744936534799
1.1547880273886850233
1.1548755604364786542
1.1549649356375633058
1.1550570555912385018
1.1551512370187013712
1.1552473359270907238
1.155344012582562252
1.1554394082004979527
1.1555301969798641437
1.1556154570170455997
1.1556926063660990511
1.1557886869773441596
1.1560036861202394043
1.1562499488710049622
1.1565551288224178439
1.1568976177551604234
1.1572208527581793192
1.1574646461474902281
1.1576005256595045534
1.1576387852905543063
1.1576104138954297351
1.1575408057037421816
1.157445168663886248
1.1573299492776409902
1.1572120250105697448
1.1571252115120775894
1.1571044223485651425
1.1571665724924442564
1.1572983401456558017
1.1574595194799599529
1.1576009837705005801
1.1576873159796901014
1.1577137505199932566
1.157702510936531759
1.1576886937958126289
1.1559686688497075036
1.1562443691914328081
1.1565826599056465707
1.1569545886474439378
1.1573020384820675854
1.1575722436219839651
1.1577356053632328337
1.1577961510076602014
1.1577781270123399526
1.1577066651884737603
1.1575921466231433588
1.1574413495164939114
1.1572737079669117577
1.1571263081172546983
1.1570428561892147634
1.1570515905954952274
1.1571484900363619985
1.1572988027196051686
1.1574528517621689438
1.1575695709830557956
1.1576353192498367584
1.1576657462698003442
1.1576927875330083051
1.1564637671030189026
1.1568679726268094043
1.1572452257149912214
1.1575438038896082027
1.1577369840445803639
1.1578264481374858086
1.1578350106249684082
1.1577877934783140645
1.157698662069811979
1.1575710296338403982
1.157411862767191213
1.1572471129860870676
1.1571194915556308747
1.1570669626796636908
1.1571010271164485772
1.1572006453381644686
1.1573234433877359617
1.15742969109728433
1.1575039620957849884
1.1575585817737703564
1.1576201068437719233
1.1577674630236081121
1.1578493303661510083
1.1578553226824408462
1.1578174256983533308
1.1577508614589715474
1.157653341513091183
1.1575214176265116173
1.1573672904983445253
1.1572255914189075732
1.1571371406941945992
1.1571259402342135569
1.1571833999127016934
1.1572761680099832304
1.1573685946146561321
1.1574434640005584196
1.1575096002651124039
1.1575868840368059853
1.1577486708315418706
1.1577012403027053811
1.1576182840129642937
1.1574981820306839975
1.1573668257763107814
1.1572625482818910125
1.1572129785299869464
1.1572191778905680515
1.1572580974673043475
1.1573038551329797308
1.1573471435742437308
1.1573992945021271961
1.1574760964176382672
1.1577064572102868656
1.1576812499426614167
1.1576082640465961138
1.1575019473713090701
1.157398180033317292
1.1573264299041559067
1.1572909907875206237
1.1572751381155133021
1.1572634062260613863
1.1572580019030407339
1.157276692743059332
1.1573370464746435271
1.1477170339215119199
1.1470758256339084191
1.146464415463340325
1.1459347190698823127
1.1455318560004135175
1.1452978983860950812
1.1452717873819211469
1.1454651619216249525
1.1458464837432984496
1.1463645914429940742
1.1469860781668355099
1.1477077464975335985
1.1485095856894638189
1.1493114638935351124
1.1499772859580548179
1.1503737306061345702
1.1504409743862580306
1.1502202061897079943
1.1498100907892470079
1.1493058339648116739
1.1486177318844248418
1.1479487741889160546
1.1472750408709244674
1.1466515942571715581
1.1461136253864681045
1.1456995684870545649
1.1454456980226690455
1.1453818598817584462
1.1455013947272993935
1.1457513873165341423
1.1460807842592253269
1.1464921683746540637
1.1470468611066693132
1.1477894089450209059
1.1486726791335626352
1.1495438356450196071
1.1502097377220370511
1.150537352931545021
1.1505114045937701039
1.1502140548376098561
1.1497567995730697543
1.149220121931793015
1.1500532287139992871
1.1495256343800761556
1.148853020917119272
1.1481302162651803034
1.1474165749541622716
1.1467613823470224066
1.1461980446436283998
1.1457593035915190072
1.1454840652578788252
1.1453979701137642078
1.1454769553952166561
1.1456463095871929347
1.1458424584077995245
1.1460874854616573959
1.1464836933456659107
1.1471273842667037979
1.1480079347411373814
1.1489804957942142405
1.1498285083081727365
1.1503754403596908595
1.1505572414733085118
1.1504246269896665211
1.1500765526408198713
1.1496029759988040109
1.1490551118090417404
1.1484586130627767453
1.1496778335764847867
1.1493822827077009308
1.148881299722613436
1.1482779334448784958
1.1476411389990668344
1.1470059421499168018
1.1463930549362726374
1.1458449378645714223
1.1454091976476596937
1.1451585291111916476
1.1451459662035905485
1.1453467249106168424
1.1456650372322709774
1.1459972598785492792
1.1463299047351878102
1.1467372244853268892
1.1473048832465944091
1.1480284540680729677
1.1487851847597818633
1.1493955352853959528
1.1497254512984416142
1.1497476127487340491
1.1495336379067981891
1.1491838927861230957
1.1487729388254974694
1.1483284051616349242
1.1478543618081813449
1.1473737459857928922
1.1475491212339739011
1.1474640383179448566
1.1472923269606185581
1.1470532966593793844
1.1467561667221737309
1.1463985181499176669
1.145975548101554331
1.1455105117679162952
1.1450834535079457144
1.1448105205930527717
1.1448148462117451185
1.1451668411925957081
1.1457951957781979946
1.1465045482288360734
1.1470721529803495908
1.1473888183536324892
1.1474943228419347552
1.1475122639130308499
1.1475353362749098896
1.1475656090230765827
1.1475441038002267558
1.1474231024713905658
1.147218722305822558
1.1470013541248011979
1.1468482524096812458
1.1468021916239268254
1.1468638649522135964
1.147012578612910394
1.1472397540299461571
1.1475577557244609483
1.1467033023772603695
1.1470888504275176256
1.1473335369819177565
1.1474034164234490074
1.1473225943141522887
1.1471249980854860695
1.1468241613539635892
1.1464286811713044756
1.1459647812897610919
1.1455124341302009849
1.145201302174320368
1.1451561292963698957
1.1454405482195102461
1.1459719628926254842
1.1465373559255274127
1.1469198522436991894
1.1470364314282595064
1.1469764116424556732
1.1469108058528223459
1.1469624727299139177
1.1471389000013803017
1.1473649459084420688
1.1475674392324415329
1.1477351802446906781
1.1479083542541348439
1.1481309799912622349
1.1484038936733691472
1.1486795883480618308
1.1488940801806502012
1.1490153957827968778
1.1490712555053193
1.1491371906043392759
1.1478457814770890444
1.1481938823325381627
1.1484005359326232565
1.1484471679842866987
1.1483823083697182188
1.1482555885541816387
1.1480795448651821555
1.1478389773001378416
1.1475286905020283257
1.1471910697617835329
1.1469412037940729387
1.1469057836708602682
1.1471548702511298323
1.147630038813432618
1.1481335135067878284
1.148471265245837758
1.1485804530695615799
1.14856790039344836
1.1486068545560099707
1.1488023900754591455
1.1491308186724054075
1.1494816271304870714
1.1497590412955505101
1.1499457024525481241
1.1500931016409134955
1.1502649020902482313
1.1504813606422614747
1.1507035091842763297
1.1508693658836404161
1.1509425788703253613
1.1509536299432037154
1.1509871944732135152
1.1511283706693189455
1.1499077889267212971
1.1488816264495909092
1.1483364842546968099
1.148462124445928989
1.1491063991210439532
1.1497864843235479082
1.1495891783568366051
1.1499512722157962941
1.1501646889679384422
1.1502109384903649314
1.1501450059476294729
1.1500186623433397148
1.1498420334319796599
1.14958869703876565
1.1492442722407769651
1.1488481061387978421
1.1485244974292074804
1.1484202853417508905
1.1486148263487885313
1.1490512192112367629
1.149522310733820385
1.1498218738202203859
1.1498859200856268448
1.1498261827399063328
1.1498254726110439528
1.1499904064748791566
1.1502922904165273632
1.1506113072208752346
1.1508462644796377816
1.1509803668634079887
1.1510712755866217005
1.1511907149310425247
1.1513634076497591963
1.1515475276808635474
1.1516752028371648464
1.1517024132053181873
1.1516588001536374186
1.1516350182137566893
1.1517237692541124616
1.1519523711389130227
1.1535328364799704026
1.1524556065107844915
1.1513932502911108369
1.1508425225875551501
1.1509930012463689408
1.1516685307116940606
1.1523773720483492244
1.1511141572825593915
1.1514490658564253689
1.1516249087957903807
1.1516257282052400068
1.1515128216815255779
1.1513445266452104754
1.1511302472483881942
1.1508420036457702729
1.1504580636096288782
1.150017880027484507
1.1496458116182188824
1.1495027415763292566
1.149668975706851004
1.1500842021123995895
1.1505363634473670942
1.1508090254070650893
1.1508415359102188713
1.150748564568235599
1.150719636373204624
1.1508637187759471754
1.1511486587040256069
1.1514499349605995526
1.1516624169117355425
1.1517698813612664566
1.1518321981659953579
1.1519254022185538844
1.1520757807033330522
1.1522405097342491853
1.1523477397910795172
1.1523512636192567715
1.1522800386644374004
1.1522304030969163779
1.1522980761633938585
1.1525120461792708326
1.1528059829454699869
1.1571598835182921317
1.1571355205536293376
1.1571145426372082543
1.1571030686007686139
1.1571051387035204971
1.1571212921485578562
1.1571490915475330929
1.1571823332810362572
1.157211765211231036
1.1572316172082617314
1.1572340596818835312
1.1512482969965036617
1.1520616891701795925
1.1528772460085474627
1.1537000089450486495
1.1545076901551267756
1.1552498478817476713
1.155868542220308548
1.1563278597645156864
1.1566348655908216259
1.156831629193346922
1.1569634617051491876
1.1570561866333533008
1.1571190502386368149
1.157157142601978661
1.1571867810046301273
1.157224519727812595
1.1572657506082337786
1.1572761455532092345
1.1572097961304115277
1.1570485719543537328
1.1568351573641992847
1.1566535125126167216
1.1565783236571214321
1.156658221141466214
1.15688755090933304
1.1572055961673064495
1.1575206848413681637
1.1577480712888530423
1.1578384716806384702
1.1577928547388587344
1.1576572635736417372
1.1574995181981588832
1.1573823919569945495
1.1573455000113805902
1.1573989574678049674
1.1575261287202922578
1.1568181313201548743
1.1568144168612963796
1.156832471627976977
1.1568725144666758275
1.1569303566739934652
1.1569983738158042819
1.1570670909533657955
1.1571275438193988627
1.1571731692687396986
1.1572011477113564037
1.1572128660258338417
1.1572141122889783027
1.1572120930555296336
1.1572126647979612546
1.1572188281957083156
1.1572291843135882328
1.1572411802062769759
1.1572492532349090144
1.1572481559624068215
1.1572353918544175944
1.1572063309094242634
1.1510337966483819017
1.1518746309629612767
1.1527657491295035808
1.1536966747037304959
1.1546176212661729554
1.1554479380436410985
1.1561138456220159121
1.1565767597113951748
1.1568576032150386101
1.1570135668095802295
1.1571064388888463448
1.1571665966108564128
1.1571960196206503291
1.1571971346565608219
1.1571869213901646578
1.1571889954285379254
1.1572112953204753971
1.1572353484248918409
1.1572276641022292143
1.1571631062518548116
1.1570499948679404678
1.1569453046786197792
1.1569112501440206309
1.1569863930118793327
1.1571712074149747007
1.1574245241109144544
1.1576789793179240728
1.1578650068543778762
1.1579358221350675162
1.1578862067255810686
1.1577532060506745548
1.1576001642156432681
1.1574923850679523785
1.1574730268860080606
1.1575513105782277989
1.1577034708389251083
1.1566627186259164084
1.1566513422002120404
1.1566644973280928443
1.1567041595990890102
1.1567674211297884757
1.1568477592869639281
1.1569367100235590229
1.157025369983965879
1.1571058725642078269
1.1571727078264211208
1.1572231746371210992
1.157258637823281866
1.1572820164831605361
1.1572962708490948103
1.157303454510694829
1.1573022885786250491
1.1572923050577925697
1.1572698286413192204
1.1572342991595812034
1.157187101586333311
1.1571276718859768717
1.1516979160471139121
1.1526586259242814769
1.1536817408599673307
1.1546908490740033226
1.1555814566848627845
1.1562636864474187259
1.1567093936389165609
1.1569576565087966724
1.1570759642541874612
1.1571318116316549052
1.157163720721825495
1.1571765048358784167
1.1571639388808456772
1.157133762705462976
1.1571136347708208536
1.1571296580652932207
1.1571817674743460902
1.1572435641574778664
1.1572862095410854089
1.1572934352726853557
1.157276421290388102
1.1572772757236884367
1.1573275704936225594
1.1574417132828092036
1.1576090408251600294
1.1577931965547598736
1.1579423556052397259
1.1580106680249269147
1.1579793336503061418
1.1578688779484824778
1.1577345109558079272
1.1576399601619984381
1.1576307228694333595
1.1577168578254861675
1.1565005964969654606
1.1565000067939243955
1.156527317329006932
1.1565832571389298433
1.1566645515694600199
1.1567648093637810103
1.1568755164715291972
1.1569877748465160483
1.1570933678093349162
1.1571845803764830851
1.1572569004422155192
1.1573076226935949951
1.1573360983861509244
1.157343236887600213
1.1573280754964490047
1.1572932131203235162
1.1572388646102669263
1.1571706703848698705
1.1570944143772909918
1.1570133550415997448
1.1519536862658195098
1.1529376386405425503
1.1539678908569961369
1.1549531164286770402
1.1557925631778023234
1.156413778701089079
1.1568017270787289696
1.1569927073393979633
1.1570689634724298234
1.1571002949953244077
1.1571224357727578624
1.1571357655923455443
1.1571283087172836712
1.1571016760443637583
1.1570805103454673279
1.1570974537617941813
1.1571695126388688024
1.157285576077811573
1.1574129367165804094
1.1575201898248661525
1.1575852081478825717
1.1576141381898990002
1.1576364069197235818
1.1576807018701933405
1.157764090076126795
1.1578798267972512104
1.1579950185779028793
1.1580651491513751505
1.1580584660119104257
1.1579790334909900729
1.1578678868568585969
1.157785581992924806
1.1577764364592950663
1.1578492300367728696
1.1563626283541428297
1.1563386798064532179
1.1563436437907232968
1.1563821108295051499
1.1564543703928991114
1.1565565235512056397
1.1566806659782817857
1.1568165363097617782
1.1569533082061997931
1.1570790831417354649
1.1571841427212361531
1.1572604137291082615
1.1573033503764655894
1.1573126829111874958
1.1572882252665683822
1.1572355273879535442
1.1571584784902635423
1.1570686445930269404
1.1569760612787374221
1.1568877008058973122
1.1527431883722032424
1.153790085248106223
1.1547492715226599369
1.1555445635834453721
1.1561299404100349175
1.1565032480128398795
1.1567057090317145462
1.1568036805297150504
1.1568625115469597375
1.1569186015513190924
1.1569783925803760471
1.1570276845942450983
1.1570552119302237593
1.1570717224756339458
1.1571057650724008159
1.1571855848401806366
1.157317899228726743
1.1574837327496974027
1.1576453675004916288
1.1577662974146518682
1.1578302897317855891
1.157844050272723635
1.1578437200067850377
1.1578675458250742292
1.1579304496047675421
1.1580146924784811002
1.15808080853392803
1.1580926301100964437
1.158041587686311491
1.1579589597073778329
1.1578918976205940794
1.1578804379246732115
1.1561897294664587044
1.1561662346446284211
1.1561804404554270054
1.1562363341704617881
1.1563317868414291212
1.1564588548029421933
1.1566054140915908999
1.1567578010651553555
1.1569016978849215871
1.1570253255484113097
1.1571179268992473066
1.1571724117922106423