/*--------------------------------*- C++ -*----------------------------------*\
  =========                 |
  \\      /  F ield         | OpenFOAM: The Open Source CFD Toolbox
   \\    /   O peration     | Website:  https://openfoam.org
    \\  /    A nd           | Version:  12
     \\/     M anipulation  |
\*---------------------------------------------------------------------------*/
FoamFile
{
    format      ascii;
    class       volScalarField;
    location    "0.007";
    object      T;
}
// * * * * * * * * * * * * * * * * * * * * * * * * * * * * * * * * * * * * * //

dimensions      [0 0 0 1 0 0 0];

internalField   nonuniform List<scalar> 
106891
(
299.88206625170005282
299.87265680133145906
299.8610731332999535
299.84847678823075512
299.83572942421346852
299.82382011213155693
299.81318970944920466
299.80475605656920379
299.79944811968795193
299.79682818030568114
299.79921520209330765
300.94502566694865209
300.76125068791486683
300.58341584776985655
300.41418965826733256
300.25443990606311218
300.10589749734373299
299.97247507169026903
299.85938733351520114
299.77084769836881151
299.70725425147554688
299.66389952414175468
299.6326392483289851
299.60623126673090155
299.58237839128435098
299.56425170028899174
299.55712063285477598
299.563718225183095
299.58145116572126199
299.60330697682076107
299.62177934012669311
299.63289179738728762
299.63745865756385456
299.638622801983729
299.63837199201094563
299.6357663852774067
299.62790828249285369
299.61365948255269132
299.59549199162455579
299.57824132170725306
299.56660344638760307
299.56289217951820092
299.56672444579049852
299.57613393553390324
299.58899171819120966
299.60321260911149466
299.61620882652994169
299.62537066756232207
299.62921321338916414
299.82442389170057595
299.83374862249371517
299.84565975787990055
299.85900245140072684
299.87214121684627344
299.88335205045740395
299.89115027165343008
299.89458189699149671
299.89338096107616138
299.88786087558116833
299.87875596604931161
299.86705410158839413
299.85399298578994376
299.84061115992687974
299.82830657351223635
299.81752977491731826
299.80935085982144983
299.80438012807860559
299.80207714003444153
299.80514219339931969
300.76025022123832287
300.57854106477236655
300.40736881267474701
300.24880836193267442
300.10464534917122137
299.97750732002583618
299.87076354702992376
299.7868120797196525
299.7246688221677573
299.6794219179890888
299.64373672570440021
299.61153069251849956
299.58181977882003366
299.55898171847337608
299.54913123127920471
299.55522026722769624
299.57424927984556007
299.59849816737352057
299.61998039798885429
299.63461815450733638
299.64333311556725903
299.64947326137684058
299.65502475963666029
299.6584946904808362
299.65624685831932084
299.64581047937804215
299.62806544019059629
299.60715395781875259
299.58851071431087121
299.57624002520009299
299.5722071222361933
299.57645442071009256
299.58796553535518115
299.60477899942122804
299.62363396405498861
299.64057125624736955
299.82009885150472428
299.83021539316672488
299.84278176453187825
299.85672353690426917
299.87056937514381616
299.88265593946243825
299.89143620401256385
299.89578131625296464
299.89527626517900671
299.89023051081244375
299.88137743033655624
299.86984278996095554
299.85693064799062313
299.8436492905917703
299.8316119561737878
299.82132328955077583
299.81402886862133528
299.80996299823561912
299.80837564450638411
299.81203109579121246
300.73113009227677139
300.5292942393794533
300.34113657625550786
300.17352426288090328
300.03015609401023767
299.91215969253261164
299.8190225115058638
299.74878649998248648
299.69742876210284521
299.65892194450628949
299.62696746714914298
299.59776645521452565
299.57206771806346524
299.55451840289686061
299.55032450954723799
299.56125488887136044
299.58343362112771047
299.60886309011976891
299.62966015404396103
299.64201730744576935
299.64718878764080046
299.649075178106159
299.65063979657867321
299.65201617902732778
299.65081567152918751
299.64451693404106436
299.63279179074265812
299.61804285854861973
299.60446936461431733
299.59586527832465208
299.5944992254940189
299.60091631684798585
299.61438603058337549
299.63307215240109826
299.65381571003996442
299.67252119172707125
299.82569201018998228
299.83853744998640423
299.85270652830820381
299.86679343089048189
299.87921209528735744
299.88844845389075999
299.89327597411028137
299.89309782630277823
299.88820235928614011
299.87938142291005761
299.86800688835324991
299.85561985608882196
299.84323795837264015
299.83243620297980669
299.82351802268334495
299.81771543235862509
299.81484782994982652
299.81400456792732712
299.8179181895281431
300.62458699005117069
300.43310935097161973
300.25891829325496474
300.10784883735448147
299.98195742121663443
299.88049637328509789
299.80059001487535397
299.7379168405707901
299.68740698526812594
299.64473774649894722
299.60800970918103303
299.57856440414593635
299.55978783576892965
299.55468536218188547
299.56328943383175556
299.58168015520811878
299.60334912246304384
299.62205570065702886
299.63451709098336551
299.64121546580344102
299.64484275149271753
299.64790492861686744
299.65101021717634922
299.65248944305142231
299.64989454050981976
299.64219101106385779
299.63076723670940282
299.61890335798568685
299.61056509640417289
299.60887914382175268
299.61543123333740368
299.63004027120166484
299.65088762118762133
299.67458318019504304
299.80823352393008463
299.81862751237486009
299.83147364264061707
299.8456447113335912
299.85965293197051551
299.87188887292217032
299.88088649670118002
299.88550969894942
299.88517788217700399
299.88018259169291468
299.87132033382880536
299.86014108479304241
299.84845382680401826
299.83743377368210759
299.8286051836642514
299.82185999008657973
299.81809036749598363
299.81660873812359114
299.81639305452523558
299.82012341762913366
300.52104862792003814
300.33312379546129023
300.16978340825534133
300.03451573082048753
299.92587713365145419
299.83967078323030364
299.77064772543724303
299.71380293262518535
299.66560323460538484
299.62480440375708213
299.59224924075476792
299.5700898831065615
299.56030548861900797
299.56313443328480162
299.57613813776697498
299.5946742867418493
299.61345625025501249
299.62843280234437771
299.63756661028634198
299.64091976082409019
299.64057102873744043
299.63920579814936218
299.63842348615116862
299.63797196018850855
299.63627275453166021
299.63185495021764382
299.62502333078441552
299.6182771025194711
299.61545264573709346
299.61985100385538772
299.63313813528145602
299.6545970803884984
299.68143561569888789
299.80708630765258249
299.81981346635961927
299.83386262398181543
299.84760074370581151
299.85929259092813481
299.86749291865936584
299.87121491656205308
299.87013062794807183
299.86479584835933565
299.85610170318608425
299.84561351847781907
299.83506354989168585
299.82557876294566768
299.81866898395514909
299.81401758565891669
299.81225678463977147
299.8122662374405536
299.81285699733444972
299.81644169420241042
300.32695673381130064
300.15961512881273165
300.0255614713097998
299.92108700146229694
299.83897417355325388
299.77146234123563318
299.71233119532007549
299.65871332571384755
299.6114682614065714
299.57402724674705041
299.55012991688226975
299.54165630060214198
299.54728504709169101
299.56298863908801877
299.58343160715560316
299.60355088044565264
299.61975482772578516
299.63009435257674795
299.63419711695183878
299.63353852983931347
299.63104897479712463
299.62963680045584169
299.63059875470787574
299.63284174889645328
299.63415442634379815
299.63327816212949983
299.63124768699958622
299.63131453927746861
299.63678599434393846
299.6494842883244587
299.66889481505148751
299.69255739698576235
299.79005901025584535
299.80236597775507335
299.81581347271952609
299.82877806529785403
299.83951829107792264
299.84668398575246329
299.84944231983314467
299.8476343635643957
299.84204758570700733
299.83371355337800424
299.82424972350469261
299.81523541718610204
299.807520860359773
299.80242528742593322
299.7994801619799432
299.79917269174796957
299.80033148152932654
299.80183080923268335
299.80566689824399873
300.16738949507197276
300.04408332487145117
299.94545630649645318
299.86419604455232957
299.79333830244922865
299.72862767584427957
299.66895127030261392
299.61650779228085639
299.57548846044329593
299.54999454436051565
299.54172580164976125
299.54864334921944646
299.5658373857666561
299.58726508157332091
299.6078867393949281
299.62418077522272597
299.63396526706117129
299.63669747659207587
299.63379937911190609
299.62859419865066002
299.62490573692912221
299.62491263457900459
299.62817167869951618
299.63243807047496148
299.63602256189477657
299.63912334819849548
299.64397712764764492
299.65344976958130019
299.66851269647980871
299.688079532361769
299.77890678240447642
299.79123330846840645
299.80281374970849129
299.81215375447493443
299.81814893360240148
299.82022247644459867
299.81832053737491606
299.81323550005976131
299.80594032432856011
299.79788563560884995
299.79045721677266556
299.78436053713579668
299.78069967678663943
299.77895307073737285
299.77956419608750593
299.78148691099949019
299.78383728864815794
299.7882642863561955
300.07424761857618023
299.97267146545050309
299.88335955902232399
299.80296776293778294
299.73061980230158952
299.66677819157530394
299.6131175508630804
299.57196656053378092
299.54576639328661258
299.53589809604636685
299.54102193529467968
299.55707172218211554
299.57897930118974728
299.60145294405776895
299.62056821462039125
299.63459438453338635
299.64298956044581246
299.6463351879733068
299.64634816587653177
299.64544839157576916
299.64524757192526749
299.64568822293739458
299.6454122895039518
299.64379468173302712
299.64233768338738173
299.64366546335259045
299.65065843056066797
299.66367387558273094
299.74664413578813082
299.75761011214569862
299.76780704257095067
299.77607454058397707
299.7815472900310283
299.78379253485451272
299.78282904190450608
299.77932042941824875
299.77400726518237661
299.76806217270871002
299.76256572158155222
299.75810178822416674
299.75568943183617421
299.75493784847583356
299.75631370229791628
299.75901408383049329
299.76230133102518494
299.76738469252200048
299.98086191195693573
299.88607151674733586
299.8040928830604912
299.73506382189111719
299.67857925552664256
299.63287535010761076
299.5971681046470394
299.57224389813904963
299.55872415902751982
299.55655820485429786
299.5637185932673674
299.57677293865037882
299.59228096536412522
299.60777718748431653
299.62194084102588931
299.63430693989181464
299.64457857732065804
299.65273304995832859
299.65901758128444499
299.66381775724903491
299.66675773749716427
299.66747910004568212
299.66614444737768963
299.66412787404908613
299.66375395656632463
299.6665356112042673
299.67215121771749864
299.71289562151059727
299.72179150433623818
299.72950835929378854
299.73536490664315579
299.73891331175758523
299.73998550591153389
299.73898376297671575
299.73644527743039134
299.73328348659799758
299.73037051365463412
299.72823607641487342
299.72772265567783734
299.72857145967918768
299.73119044251217247
299.73503500625423612
299.73951884040349114
299.74534709117887132
300.03104069352787064
299.92973373940452575
299.84215478351563888
299.76877642221785436
299.7094162474365362
299.66295124642505243
299.62701089954765621
299.59942399280248537
299.57856944298725921
299.56432093469163647
299.55722072013844581
299.55745193926981074
299.56417983062948451
299.57680936874606914
299.59498208003901709
299.61711470028899384
299.64014947182153037
299.66081235319381904
299.67678991813039602
299.68657103293224964
299.689714366377018
299.68689562065486598
299.67964050933028375
299.67044930461571539
299.66221129799185974
299.65740580621002209
299.65663033431223994
299.66811231088388467
299.67549974931563384
299.68202412995196937
299.68714958205362109
299.69054281759724745
299.69235213541804796
299.69287724396014028
299.69288341817224364
299.69313538795182694
299.6941351809237517
299.69655259739181474
299.70015161349334676
299.70500718635724979
299.7106981415695941
299.71658073149382062
299.72286627488404065
300.0532959436389433
299.94179064939373802
299.85048042173565364
299.77815392038701248
299.72163330288316274
299.67776702326261784
299.64542731420249311
299.6236366237737343
299.6102000204474507
299.60138265065529595
299.59350604866784806
299.58542404156270322
299.57918960537239172
299.57845036115554649
299.58566221578877276
299.60032056272382306
299.61964064145161046
299.64049191839620789
299.66000395246339849
299.6759105128360261
299.68655970427511193
299.69110733100995958
299.68960576547448227
299.68323769490029918
299.67443994895751302
299.66608130501964524
299.65997930957047402
299.65665518234106912
299.63089589907440313
299.63774096610507058
299.64378065223849035
299.64865486806337458
299.6524891886137425
299.65553068960861083
299.65839969927645825
299.66172914576992525
299.66588596242229414
299.67125510192101956
299.67764279765407309
299.68483187078101082
299.6924366034591003
299.69979427174212105
299.7067652617896556
299.9928357287138283
299.89474073207986748
299.81651547124272383
299.7533063049176576
299.70255654082740193
299.66465671597887876
299.64003738155480505
299.62654908837180301
299.61839756400428314
299.60922391265944498
299.59676771051914557
299.58434855369694105
299.57756473554741206
299.5801583460799975
299.59189282795210829
299.60964540879291462
299.62963437319490367
299.64912441932887077
299.66671766544772026
299.68094051612331441
299.68974593056117328
299.69166751175322361
299.68672196778715033
299.67697387314422031
299.66552367065889939
299.65533722756526913
299.64840759451317354
299.60692935363101697
299.6136417722412375
299.61969240526565272
299.62512054402361628
299.63020050880231793
299.63540940701426507
299.6411651034221677
299.64782080710307355
299.65549515151360538
299.66396423178508712
299.67289459965735432
299.68192093522566211
299.69034455135567896
299.69788673431833104
299.92487248039742553
299.84267899737079688
299.7745387514110007
299.71973271549836682
299.68034213807123933
299.65723414743655439
299.64743155872145053
299.64396420830354373
299.63889116622323172
299.62826824060908848
299.61436383250713789
299.60278820315278381
299.59753526471456553
299.59882197272867188
299.60451517670685462
299.61237551159257464
299.62184286324890081
299.63359736992345006
299.64749579269931701
299.66127008323707059
299.67152988402250458
299.67603303970815887
299.67493580158298982
299.67014649215474265
299.66435936277963492
299.6599311151065308
299.59279272650343273
299.6000626025153224
299.60717250152964652
299.61424857918484577
299.6216150191135057
299.62949982318724551
299.63812559389469925
299.64745964913691978
299.65728942274995461
299.66718487076076372
299.6769917667207892
299.68600173979677948
299.69381120212267433
299.810416772283304
299.74455314635980585
299.69375514648925218
299.6601728186437299
299.64445943583149301
299.64253102413374563
299.64645667277216035
299.64833670414333255
299.64415023071313726
299.63477641930893469
299.62428957886504577
299.61626864952762617
299.61136694186973273
299.60848763786589188
299.6071040912756871
299.60834783281239879
299.61405780923985276
299.62489473311370602
299.63901148747123671
299.65243564503890639
299.66142915667825264
299.66462297299943884
299.66332996512204545
299.66041964192061187
299.65907535010450147
299.58943296272025236
299.59823335196790595
299.60725268113759512
299.61653825102609972
299.62611129405672727
299.63602539437374617
299.64610515346311104
299.65635774926556678
299.66628995974775762
299.67599547072512678
299.68502680488495571
299.69285789074120885
299.74017413867852611
299.69021728391055603
299.66039719122670704
299.64991325826463253
299.65326700080493083
299.66200528713108042
299.66803590540075675
299.66722764354022956
299.65995294479745326
299.64900815601100703
299.63668029766898826
299.62413430769316847
299.61146916257274597
299.59974118207128413
299.59175270174750949
299.59054227767592238
299.59753347973730797
299.61134257766690325
299.62810569193339916
299.64324561843596939
299.65362338307193113
299.65907968929502658
299.66189173895412523
299.66525731230558449
299.67899940746042375
299.65275787095293936
299.64546730003286257
299.65128958862038644
299.66202676299542418
299.67070870232396373
299.67328193696312155
299.66947874970156818
299.66124031274847539
299.65056283262640591
299.63779275048216277
299.62279778382497852
299.60674679738843906
299.5927617456378016
299.58491277215586024
299.58599946485168175
299.59578116954787674
299.61105045269312086
299.6271543456755353
299.64028665524813277
299.6492889154969248
299.65573640569328973
299.6625579793109182
299.67282853943885357
299.67600375657764289
299.68469195422068196
299.69171435943417237
299.69296466572200188
299.68759936815024503
299.67718611695181608
299.6637197794821077
299.64818280950868257
299.6306160718804108
299.6115566453017891
299.5936190918133093
299.58119947838360986
299.57814296797852194
299.58539123325073206
299.60034079932574969
299.61807698433102587
299.63397575791861982
299.64604314718792466
299.65528749583194212
299.66427869100283488
299.68635007927304059
299.68426989312496289
299.67665988981070768
299.66633886997396985
299.65464787631151466
299.64123051771832706
299.62562239743635928
299.6089505542318534
299.59460026030933477
299.58650471189815789
299.58677146605054986
299.59412004393180951
299.60484332563731869
299.61526902606630074
299.62393967683669871
299.63226477177738616
299.64272776933279374
299.65561600067030668
299.64664091496547371
299.63504215145781018
299.62078151159079198
299.60665638102119601
299.59660531568300712
299.59322281031677448
299.59614112939982533
299.60245268092546667
299.60915046977635257
299.61528883374103316
299.62236695662062402
299.63244671288276777
299.64364947661056249
299.63675048694193492
299.62638963153204941
299.61439229493510084
299.6047269151429191
299.60040308090623284
299.60141297096419066
299.60524067749037158
299.60938470952334001
299.61331733189575743
299.6184185844700778
299.6263662272710917
301.29275515336365743
301.33116490376551155
301.3585332657630147
301.39143148016489704
301.4394149426138938
301.50211733482780119
301.56861533559970212
301.61761568321827554
301.62176256403898833
301.55831969944955517
301.42116145288849793
301.22724144131217372
301.01159103186887478
300.81620341747583325
300.67803832701696365
300.6204940052477923
300.6500185746635907
300.75753829132440842
300.92242458045120657
301.11952661933042918
301.14952923909459059
301.23265738308077744
301.2805726418772565
301.30858560179677852
301.33381357644208265
301.37114584304538312
301.42815502078110512
301.50221988273352736
301.57716296437411074
301.62475186152636297
301.61532454731008102
301.5312910858081068
301.37659998228434688
301.17550641659920529
300.96515130664971593
300.78547828071532422
300.66988826976000837
300.63855701053142866
300.69462409658603974
300.82445156011232257
301.00283264966253682
301.20164784997496099
300.81709782974957079
300.9559331025229767
301.08613700585527795
301.18511727687166513
301.24666878987858354
301.28028455328279733
301.30304986462186889
301.33342491643742278
301.38577045341406802
301.46413280732303974
301.55628759378220138
301.6340598543825422
301.66371759848624379
301.62164684722330321
301.50424716284697979
301.32841823791505931
301.12483803512611757
300.9297528776541526
300.77751204913073479
300.69483369243880588
300.69529344188174491
300.77649589034365363
300.92042378291955629
301.10056970176515279
301.29117042580827501
301.47515276864169209
300.9018902515833247
301.00879616030260877
301.12880181049570183
301.235725240050499
301.3134882512446211
301.35856734610365493
301.37844745997387008
301.3889202037074142
301.40575419393928769
301.44196962879385637
301.5004158937028933
301.56719793871025104
301.61452687325595434
301.61223569917854093
301.5452774032621619
301.42076720100010334
301.26424039850945746
301.10776394072433959
300.97960902794039839
300.89945726280564031
300.8783092751342565
300.91889936682724738
301.01588312137823777
301.15529460756209801
301.31783653137892998
301.48376716144730381
301.63798703727621842
301.772597661585678
301.41951657529745034
301.50630448775314107
301.5708160739492314
301.61229625186956582
301.63412689160259106
301.64034090399655952
301.63305390826189978
301.61319467663872729
301.58303308473858806
301.54579424682486888
301.50624471362141321
301.46857674990354781
301.42994341172516215
301.38277617105671879
301.32249078694962918
301.25756906958883974
301.20803199388370786
301.19495603971864739
301.22768305156756696
301.29945690824843041
301.39373378632916456
301.49447704598014752
301.59281648685180244
301.68560818177871852
301.769375762901916
301.83557335612368888
301.87117948332110018
301.86408133200200155
301.8105691551243126
301.71927534426663442
301.55823407768008337
301.56251441220132392
301.56100493227336301
301.55339921067235309
301.54387894825458716
301.5359408596119124
301.52859488466680205
301.5172962472394147
301.49637662657613646
301.46445719104946193
301.42696823159889163
301.39350574050286014
301.37375899386415767
301.36807941584271475
301.36653240758755601
301.35850243445344177
301.34354455286171515
301.33313205182867023
301.34084461740786764
301.37051701030810591
301.41223015986901146
301.44894283791836642
301.46761842907108075
301.46616460485182643
301.45144228682272569
301.43262850511916895
301.41464974271099209
301.39657592366046401
301.37458020336595155
301.34714883575560407
301.31831310408512081
301.29664621177829531
301.26938523667229219
301.28940958054943167
301.29671542135201889
301.28807307714077979
301.26711336982685907
301.23753826972074421
301.19928760994309869
301.14973868929178025
301.08792430628938064
301.01880258433124027
300.95598506786683402
300.91493215905092029
300.90501701870476836
300.92130740831737512
300.94319981317306656
300.94988644165960068
300.9342587567310261
300.90710724200550885
300.88612717624812376
300.8816635272315807
300.89050801884485509
300.90063712638630022
300.90215548783737631
300.89387228252405748
300.88189779188616058
300.87335611569562843
300.87043627281775571
300.86885578178578271
300.86185721271243665
300.84545035924236345
300.82278676847778343
300.80276808576832082
300.79428568193799265
301.50440024773092773
301.39607596700011527
301.33864880466643399
301.3514699613637049
301.41812131475251135
301.48828198972830705
300.81986552739658691
300.84095667430665344
300.84573162157505521
300.83223252884238264
300.80659723271264738
300.77474041374352964
300.73805105947371885
300.69377363893619304
300.64021732431490364
300.58142966373122817
300.53068486260178815
300.50380902070384082
300.50940713481458033
300.54141205221378641
300.57768573400710466
300.59625738721217658
300.59038096640819049
300.57194206457035079
300.56026827755357544
300.56650719768526869
300.58748508992465531
300.61045430627768837
300.62474799658855318
300.62864514233240243
300.6282481791021155
300.63112920729258803
300.63990712400720895
300.65017689327476091
300.65478770155425536
300.64914941481373489
300.63649269286298704
300.62648690840779864
300.6288785737458511
300.64634082635075174
300.94888181694318519
300.8345245853548704
300.72116628016175355
300.66126308584983917
300.67489125532154048
300.74376537762373118
300.81638347481083429
300.42492162789517351
300.45577932323942605
300.46993352973328228
300.46570890071518534
300.44963304817298422
300.42791547163051291
300.40156571984459788
300.36758334951059624
300.32358638829657593
300.27370933598507463
300.23109786279661648
300.21275757392157857
300.22717222386421554
300.26793720927003051
300.3127057853776023
300.33876034747049744
300.33979041746567873
300.32785639616457729
300.32283822881981905
300.33614747673811962
300.36440553245267893
300.39451564230881786
300.41541327482775614
300.42534575529390395
300.43059571087059112
300.43921122185014383
300.45404126262155842
300.47060854881999603
300.48128890800876434
300.48112261237122311
300.47306762011442061
300.46724956666639628
300.47381585630216705
300.49593279040459493
300.52671804591551563
299.84608676195756516
299.84370826162978574
299.84159239811322095
299.84038790071804215
299.84044918663141743
299.84198628117167118
299.8446772232504145
299.84784572692456095
299.85093375435633334
299.85247899418368434
299.85273862519034083
300.72319097473854299
300.53071740054332395
300.35841503504406091
300.21424497552624189
300.09995894026536689
300.01111174589868824
299.9397859977822236
299.8785263555361098
299.82350103459941693
299.77455638617357181
299.7325753516106488
299.69747025748802116
299.66854577945963456
299.6455247329206486
299.62967911420167866
299.62215426014972763
299.62130522142928157
299.62166407938076418
299.61604783485194048
299.60017008935938065
299.57667025936672189
299.55352923322527658
299.53890818685101749
299.5392507391496224
299.55589453317975313
299.58445297370116123
299.61687666993134371
299.64509630144749508
299.66381357316953427
299.67201265562334811
299.67257831863304318
299.6702093809640246
299.66911334066855943
299.67165485194055918
299.67812361836683976
299.68717670914088558
299.80873382956377782
299.80796421939106722
299.80969202164391163
299.81391576495406071
299.82018649575115887
299.82763929375170164
299.83522058129710786
299.84195030666063531
299.8470826766994719
299.8502748749289708
299.85172665934209135
299.8519485266071456
299.85176800004654751
299.85184247818699532
299.85234080371225218
299.85337101800666915
299.85443377188636305
299.85514810054667123
299.85503773257681814
299.85312330864582009
299.85041796838635264
300.69804990290009528
300.50519883773779384
300.34005307953952979
300.20829268558100011
300.10790037782851414
300.03042075067583028
299.96567638296983205
299.90564503970807664
299.84794626926884575
299.79420556120101082
299.74729622780722593
299.7078547676082394
299.67454992901576816
299.64686594863798064
299.62613448465856436
299.61421383145102482
299.61078002971743217
299.61209261789616676
299.61238757944261124
299.60677985735105722
299.59441716197824235
299.58047641179780385
299.57175878027175031
299.57345773653793231
299.58730197165579057
299.61070440400590087
299.63797640784423493
299.6625343648797184
299.67933259044497163
299.68678078839622003
299.68692608925340437
299.68408696747962949
299.68279907310335375
299.68585634661690165
299.69352451877625754
299.70380209980731934
299.7921708740936424
299.79074166491790265
299.79211013306610312
299.79643847731938422
299.80338623193284775
299.81220340317491946
299.8219254286042883
299.83159538989684734
299.84034953230298015
299.84754847327559446
299.85303098842547342
299.85680037139610477
299.85926818804267668
299.86081635236439524
299.86143709878098207
299.86134326209651135
299.86009553878619727
299.85772593107896
299.85392589119913964
299.84831522699874995
299.84268466122216523
300.49223509253312159
300.33879302794036903
300.21933970770209044
300.12910358740987249
300.05749741113197615
299.99309702733614813
299.92939510625518551
299.86625774049952042
299.80662258021067146
299.75414362128753964
299.71042666094263041
299.67451646785207231
299.64499596704672513
299.62218153223449235
299.60828529106265705
299.6048090924770122
299.60987047374828762
299.6183874612930822
299.62501181787746418
299.62619630556832817
299.62211703322367384
299.61721604807667063
299.61572504578435883
299.62067241110656823
299.63269116762421618
299.64958819379393162
299.66708053857655614
299.68076771554041215
299.68814604598242113
299.68988152910878853
299.68956640001704272
299.69147472299630408
299.69834981361549353
299.71010566509801265
299.77505313088323646
299.77509774424663647
299.77822468798689215
299.78446302944701074
299.79341310640643314
299.80431937822055488
299.81628423403742545
299.8283532495481154
299.83958560486212264
299.84934974844537692
299.85698564144911415
299.86233445941996933
299.8654144279911975
299.8660248144449838
299.86449816936340085
299.86058000326090678
299.85490775116193163
299.84753923074316617
299.83877992085001551
299.83106304065887571
300.40669939031096192
300.27036211709378222
300.168349680531378
300.09189812778038231
300.02902520486617277
299.96920849381774588
299.9071766912760495
299.84296590819013772
299.78196483173400111
299.72906564551709607
299.68642602414337262
299.65316535163373146
299.62744992875963135
299.60883205603141732
299.59888891583108261
299.59944778356242523
299.61011078520317596
299.62717326582043142
299.64470899646369162
299.65743290295733914
299.66192160942966893
299.65877230550546528
299.65205764389503429
299.64653511757387605
299.64615835309234626
299.65237881682043053
299.66345710657583368
299.67557667332482652
299.68514326462451436
299.69118644424031572
299.69574152948410983
299.70250250694834904
299.71368711806417195
299.72852278307891538
299.7609637877693558
299.75859824750602911
299.7593890936394132
299.76377741793214682
299.77176380462691441
299.78285654094474921
299.79623559218953233
299.81081038561376317
299.82533792358469782
299.83877976317603498
299.8498794183540781
299.85792604473243728
299.86253513977436569
299.86332449731503402
299.86078828444669853
299.85487690855882192
299.84678711815502083
299.83697976626905302
299.82644382651909609
299.81809633161003603
300.36130725523332785
300.24205054410026605
300.14444454417122188
300.06080805036009451
299.98422028062157096
299.91080778314034205
299.84062925516951736
299.77659830664117635
299.72234047046254091
299.67951385180674606
299.64763772085638038
299.62473143413046728
299.60928757387057431
299.60174556850222416
299.60366505755695243
299.61570614320606865
299.63562665374973903
299.6583762171940748
299.67748002519903139
299.68767729350440732
299.68719411086931359
299.67796918040573928
299.66595441877188932
299.65773707329753961
299.65725062895660358
299.66432771841084559
299.67552054589145882
299.68660295962871487
299.69520217472336299
299.70236089592759754
299.71046389004163757
299.72135057926533364
299.74350621380818893
299.74122951472861587
299.74298690187094962
299.74920084237481888
299.75957145601660159
299.77328167956682137
299.78904445567206949
299.80528053340486849
299.82069969327341141
299.83377852807507224
299.84353120478670007
299.84931354706355933
299.85060971026007337
299.84807385026209658