/*--------------------------------*- C++ -*----------------------------------*\
  =========                 |
  \\      /  F ield         | OpenFOAM: The Open Source CFD Toolbox
   \\    /   O peration     | Website:  https://openfoam.org
    \\  /    A nd           | Version:  12
     \\/     M anipulation  |
\*---------------------------------------------------------------------------*/
FoamFile
{
    format      ascii;
    class       volScalarField;
    location    "0.0165";
    object      alphat;
}
// * * * * * * * * * * * * * * * * * * * * * * * * * * * * * * * * * * * * * //

dimensions      [1 -1 -1 0 0 0 0];

internalField   nonuniform List<scalar> 
106891
(
1.1567891026463179724e-05
1.1495983079944090908e-05
1.1426022918782550739e-05
1.1360263881600428674e-05
1.1300172494410789162e-05
1.1247526372377047234e-05
1.120368506185597497e-05
1.1169986703066522935e-05
1.1145142083554634321e-05
1.1131349917219486741e-05
1.1117891380966254066e-05
1.1960812623281576254e-05
1.1968979075952791466e-05
1.1967880187508196505e-05
1.1961714227669956699e-05
1.1952355359868255851e-05
1.1934086276008687585e-05
1.1889678429616874886e-05
1.1827505890593459898e-05
1.1777690507096501076e-05
1.1742944885181819776e-05
1.1722796260735070655e-05
1.1711514837385499039e-05
1.1704147074170957263e-05
1.170748736050355688e-05
1.1751586650820842607e-05
1.1895878949539428357e-05
1.2059277121496559735e-05
1.2198585437224200288e-05
1.2313751381120921027e-05
1.2406907702623696561e-05
1.2481230538229863203e-05
1.2539265612146233185e-05
1.2581432898486648436e-05
1.2607914001672144668e-05
1.2619298433324866953e-05
1.2618324621979726814e-05
1.2610161330887046042e-05
1.2597374810801929051e-05
1.2572812338593611492e-05
1.2511928442153446005e-05
1.2410531720365453943e-05
1.2323511187736731331e-05
1.2256900251184311485e-05
1.2211962900848518455e-05
1.2185752891143090729e-05
1.2172573927840124659e-05
1.216469531069773482e-05
1.2162108604946443558e-05
1.245156409368134188e-05
1.2445271796048172305e-05
1.2438134431967506059e-05
1.2429277144197647349e-05
1.2417271352915011521e-05
1.2398397435858065412e-05
1.2360631465810815487e-05
1.2293000857255309192e-05
1.2219843916646838344e-05
1.2145095121176543231e-05
1.2070418882201302646e-05
1.1997745058345552274e-05
1.1929527462307282982e-05
1.1867301849119447004e-05
1.1813164305671475457e-05
1.176846413269359036e-05
1.1734526710033372842e-05
1.1710151714238924375e-05
1.1696248839910653334e-05
1.1684059365271286392e-05
1.2555799626064489112e-05
1.254985662404927201e-05
1.2541732132628318676e-05
1.2530245714047092838e-05
1.2508539895683550667e-05
1.2461705603116020373e-05
1.2412326840611855624e-05
1.2374366411448280197e-05
1.2350317185789811764e-05
1.2336974851854971486e-05
1.2329023403871959764e-05
1.2327874780981201006e-05
1.2359063043444162744e-05
1.2495515052676072916e-05
1.2700678782146481338e-05
1.2868721199007090997e-05
1.299763030969894831e-05
1.3091724672981074301e-05
1.3157517707794531077e-05
1.3201913913120523193e-05
1.3230276773837015627e-05
1.324658115155264862e-05
1.3252912908761861681e-05
1.3251578438912164936e-05
1.324521182794428722e-05
1.3235178911281380302e-05
1.3217609761167641824e-05
1.318026569570836392e-05
1.3096416336935045232e-05
1.3005155564313639966e-05
1.2929873801584788805e-05
1.2873971481262842895e-05
1.2838105883503302967e-05
1.2818562957384835614e-05
1.2808843996826784636e-05
1.2802932678445015034e-05
1.3084500801290501474e-05
1.3077992336456689801e-05
1.3070811867712613292e-05
1.3062222372667910367e-05
1.3051138026250069484e-05
1.3035179616700276765e-05
1.3007191580186152545e-05
1.2948142616729622499e-05
1.2870677870676385296e-05
1.2790749935027978106e-05
1.2710047610725295659e-05
1.2630589297784577252e-05
1.2555320503233300227e-05
1.2486280622891191743e-05
1.2426011938558566576e-05
1.2376145507293688329e-05
1.2338232429144401847e-05
1.2310983200157449446e-05
1.2295821743933097286e-05
1.2283335478226408455e-05
1.3195353710673457173e-05
1.3186003976939939401e-05
1.3173808194517758048e-05
1.3152352191125999922e-05
1.3107235308732139936e-05
1.3059945881577310537e-05
1.3023053564412146317e-05
1.2998649803935125087e-05
1.2984741758719228831e-05
1.2977189350451159117e-05
1.2974856067055628937e-05
1.2998840650269588383e-05
1.3109793821683829779e-05
1.3284703879976525053e-05
1.3434597581117258683e-05
1.3561010028114400914e-05
1.3666382489941502994e-05
1.3753650153816553362e-05
1.3825552417005528482e-05
1.3882973106059045353e-05
1.3925510772441983932e-05
1.395234590599357239e-05
1.3964197260940120041e-05
1.3963729649017869966e-05
1.3956577410870447825e-05
1.3943879256533556801e-05
1.3915008567704530688e-05
1.3839607443665782741e-05
1.3737488681423198938e-05
1.3654192006170677644e-05
1.3593839143374060322e-05
1.3556336575060323491e-05
1.3537262207928593526e-05
1.3528404023434587852e-05
1.3526745069348967756e-05
1.3550039746261926139e-05
1.3736375820341512096e-05
1.3727789207863222722e-05
1.3718050536303523385e-05
1.3705564354273933617e-05
1.3687437295957385983e-05
1.3655145735062630802e-05
1.3588948308693176123e-05
1.3506706442141200466e-05
1.3421250002969134697e-05
1.3335312125895227298e-05
1.3252631974612484562e-05
1.3176166331231159627e-05
1.3108731063503129187e-05
1.305239978318172448e-05
1.3008350128177779696e-05
1.2976996959669145963e-05
1.2956285611238970383e-05
1.2944411828326606823e-05
1.2934157707815543414e-05
1.3917381352620169626e-05
1.3905591359797766121e-05
1.3890172715378385531e-05
1.385915198370724816e-05
1.3794883578067693375e-05
1.3734606310879548835e-05
1.3688096726017335856e-05
1.3657155792734424171e-05
1.3639445080437553781e-05
1.3628877467862663002e-05
1.3623139997471714544e-05
1.3637844219202320276e-05
1.3717516417604026926e-05
1.3867276654528272003e-05
1.4012679861480666004e-05
1.4153206106017067917e-05
1.4287848850231923324e-05
1.4414506590659938818e-05
1.4529163620015728885e-05
1.462669667460885795e-05
1.470155553157789472e-05
1.4750670992639129436e-05
1.4774035869657539726e-05
1.4777195520534405369e-05
1.4769303147570529916e-05
1.4754554318691902925e-05
1.4719927907179454089e-05
1.4626857976582792239e-05
1.4500535916410073814e-05
1.4399430692525028814e-05
1.4326251253518082243e-05
1.4280025731060223964e-05
1.4255553594340892166e-05
1.4244378181449382202e-05
1.442680164626048881e-05
1.4416190287577403044e-05
1.4406288148799799241e-05
1.4396425641093228763e-05
1.4385378705543163785e-05
1.4371324725399751014e-05
1.4351247883766483579e-05
1.4315743058931563577e-05
1.4243003473846407882e-05
1.4153321398054705189e-05
1.4060531610579547982e-05
1.3968287537593237051e-05
1.3880768068526193746e-05
1.3801254961712526546e-05
1.3732906975750327032e-05
1.3677610072376507238e-05
1.3636155592340179276e-05
1.3608140287262805016e-05
1.3590685033841833415e-05
1.3580638843837990469e-05
1.4687895711102785562e-05
1.4675264257365233154e-05
1.4662483540517648746e-05
1.4643533742403288761e-05
1.4598122049440432444e-05
1.4532861146684677588e-05
1.4479676635413856581e-05
1.4442634254012742302e-05
1.4421037164886253327e-05
1.4408820595748788422e-05
1.4402642842779213718e-05
1.441850145839030441e-05
1.4509644941937286248e-05
1.4713309518154648125e-05
1.4895924243048246923e-05
1.5046316646733181422e-05
1.5168245055454492845e-05
1.5268436684572860967e-05
1.5352235397417088894e-05
1.5421983689366965505e-05
1.5476945207308227858e-05
1.5514674371723713605e-05
1.5534148963263887935e-05
1.5537890302555220463e-05
1.553110839281884051e-05
1.5519028704259765447e-05
1.5494876326916923718e-05
1.543284344604636078e-05
1.5311861455153918097e-05
1.520519609921308136e-05
1.5124634135532792034e-05
1.5071658825719020094e-05
1.5042710179451983306e-05
1.5142939779607208998e-05
1.5131975464702618979e-05
1.5121353239700182069e-05
1.5109438153906645788e-05
1.5094056232874361283e-05
1.507088194090449409e-05
1.5026167529208114799e-05
1.4951407276767173239e-05
1.4867837394514898721e-05
1.4778934096549055317e-05
1.4688666032095075312e-05
1.4601161044898267212e-05
1.452059221879967182e-05
1.4450687382011867516e-05
1.4394102026600150273e-05
1.4351983859632851326e-05
1.4323817577688729793e-05
1.4306977039501275601e-05
1.4297075387220827903e-05
1.5416459330369542872e-05
1.5400045353006650505e-05
1.5368632665427892168e-05
1.5305807750396344937e-05
1.5250412374808443736e-05
1.5210824865201801371e-05
1.5186556039572409498e-05
1.5172504095339978833e-05
1.516399852345425936e-05
1.5172838558826196067e-05
1.5244613278577791462e-05
1.5432487747441303073e-05
1.5611767542964614215e-05
1.5760457020674622429e-05
1.5882033463578311416e-05
1.5981944723706875206e-05
1.6066307935499499042e-05
1.6138300151127321278e-05
1.6198232988753991459e-05
1.6242935039068363709e-05
1.6270573819652179497e-05
1.6280974826358097162e-05
1.6278080698670784152e-05
1.6268719582624644311e-05
1.6252268598476511972e-05
1.6211763682284427435e-05
1.611367850489089267e-05
1.6008868939637430653e-05
1.592752607667154266e-05
1.5871463538952628391e-05
1.5838920262907330792e-05
1.5822347436010800333e-05
1.5915720233709758504e-05
1.5906069193131753864e-05
1.5895952205409139029e-05
1.588482106270141221e-05
1.5871547609731101041e-05
1.5853259937442537602e-05
1.5821251549868300186e-05
1.5749410885779926685e-05
1.5645122608569571413e-05
1.5540582673859940093e-05
1.5440211366960888506e-05
1.5347554624471766818e-05
1.5266436820050968736e-05
1.5199394961626515907e-05
1.5147896939343661877e-05
1.511178135149636353e-05
1.5088818808493903109e-05
1.5075641149334533336e-05
1.5066249199145156159e-05
1.6130079730022121008e-05
1.6086245735748835384e-05
1.6024203032085235042e-05
1.5975656892032744706e-05
1.5943176371620602439e-05
1.5924519614018799852e-05
1.5913354322218637918e-05
1.5910002393624129269e-05
1.5941723447759274628e-05
1.6080593886042196522e-05
1.6285958538619975345e-05
1.6462201803214224362e-05
1.6609388527636868138e-05
1.6732436319565365923e-05
1.6837107163676649682e-05
1.692696183824211309e-05
1.7001089477759849115e-05
1.7055312155108092565e-05
1.7087330482961422313e-05
1.7099315103307663715e-05
1.7097579803078347268e-05
1.708930307412578179e-05
1.7077080704765288164e-05
1.7051570466714251797e-05
1.6982316761690954571e-05
1.6869100314529731082e-05
1.6774798169525511439e-05
1.6705969267446994764e-05
1.6662658017278385216e-05
1.6638842156927770299e-05
1.6723783086961892019e-05
1.6712677724138489218e-05
1.6700741508453688047e-05
1.6686958696814174584e-05
1.6669118968944381999e-05
1.6641468481270905858e-05
1.6585243639263072817e-05
1.6478705434495822065e-05
1.6365493522192534249e-05
1.625614675015181674e-05
1.6156872531120606309e-05
1.6071635966278956557e-05
1.6003257172864745908e-05
1.5952162389430128589e-05
1.5917351919978069819e-05
1.5895684003943057482e-05
1.5882772798584817386e-05
1.5874546083974813579e-05
1.6963540083501677403e-05
1.690078208836615992e-05
1.6850293531342823655e-05
1.6816820735609618097e-05
1.6797730752900199381e-05
1.678631185822351181e-05
1.6783004988117346213e-05
1.6815565403496981713e-05
1.6949642722472262442e-05
1.7121089045207084557e-05
1.7262921869071766511e-05
1.7377615468964147176e-05
1.7468801828142053144e-05
1.7546115447266412451e-05
1.7620527560332666393e-05
1.7701214900268277651e-05
1.7788515851219521325e-05
1.7872828285163785056e-05
1.7938284625456714529e-05
1.7974622872633609221e-05
1.798294181265969199e-05
1.7974768487169829234e-05
1.795816088306962944e-05
1.7916634777756758676e-05
1.7815144588675936815e-05
1.771186157265137144e-05
1.7636184157698275155e-05
1.7586778633477349447e-05
1.7382998651495283594e-05
1.7375369025507863473e-05
1.7376897950512202511e-05
1.7377712598346107653e-05
1.7371189677612585605e-05
1.7359322261571341655e-05
1.7343991082842370803e-05
1.7317023441586132588e-05
1.7250207745355859782e-05
1.7127980653195364096e-05
1.7015547946826369621e-05
1.6920459634191392108e-05
1.6844968402112789232e-05
1.678900619267150582e-05
1.6750803281288508879e-05
1.6726995424932181384e-05
1.671284055072055761e-05
1.670367385845865276e-05
1.7735356576747853522e-05
1.7694369274704575216e-05
1.7660811689293229158e-05
1.7642147943267128771e-05
1.7632200111248528374e-05
1.76392136708848812e-05
1.7715794092560285214e-05
1.7926917104501516819e-05
1.8109421529334694326e-05
1.8228346218307585802e-05
1.8289975684352345907e-05
1.8309888096031475571e-05
1.8307900457216731108e-05
1.8300130612201021251e-05
1.8295837896020030269e-05
1.830764954412364648e-05
1.837679779498945583e-05
1.8505977452245976975e-05
1.8611883715041474075e-05
1.8682050184142081262e-05
1.871419484548471476e-05
1.8715312047320118696e-05
1.8701659801059670291e-05
1.8677070410777828977e-05
1.8617636814490864255e-05
1.8543685275517719308e-05
1.8494874821211066828e-05
1.7866609563216564544e-05
1.7874772194849633425e-05
1.7913551251011579981e-05
1.7946973809677956317e-05
1.796590457897342434e-05
1.797184669012929809e-05
1.7966221827208562925e-05
1.7953200653002967206e-05
1.7934739967973415585e-05
1.7896668141645298127e-05
1.7818832125106621051e-05
1.7749720112917228871e-05
1.7700353421678617692e-05
1.7668672286382048676e-05
1.7650138905194291352e-05
1.7637877943219711313e-05
1.7629743134483593064e-05
1.8437856947013482118e-05
1.8499296560384055193e-05
1.8557202502583805537e-05
1.862498280845430938e-05
1.8707025867968149892e-05
1.8798869868297955787e-05
1.8886337179757525491e-05
1.8954415035446899415e-05
1.8992672847601999595e-05
1.900196234168723426e-05
1.8990840528638758543e-05
1.8966245901055181814e-05
1.8888469252733535965e-05
1.8708202302388472147e-05
1.8562413860507600823e-05
1.8477660095629221717e-05
1.8443092996763524896e-05
1.8434079767165302094e-05
1.8449592650843276093e-05
1.8556894124346837562e-05
1.8833981583850009645e-05
1.9068531756535178336e-05
1.9228355588275478658e-05
1.9325778954432412226e-05
1.9379239404764467665e-05
1.9408366517864009978e-05
1.9430373179316714658e-05
1.7673399449305004778e-05
1.7768459917534523929e-05
1.7975084911886915565e-05
1.8161793873883048386e-05
1.8311372191771964812e-05
1.8420241121740134669e-05
1.8491111661830020004e-05
1.8530771716842613968e-05
1.8547241247253921286e-05
1.854878492253376492e-05
1.8541950455672293486e-05
1.853058551885844869e-05
1.8519060725257074505e-05
1.8510215549096896128e-05
1.8499315121046231233e-05
1.8493442896394063027e-05
1.4899863356343086366e-05
1.5084552069039941041e-05
1.5222429470885542142e-05
1.5314145883369826597e-05
1.5364129963895453956e-05
1.5382037103793097152e-05
1.537896104221025346e-05
1.5368198204596438601e-05
1.5346002740736032136e-05
1.5285770598396738909e-05
1.5125564225801857931e-05
1.4935843012731804243e-05
1.4774014032957636389e-05
1.4646833037081300323e-05
1.4556460523954678488e-05
1.4502129555166273612e-05
1.4476450045809867009e-05
1.4466853239223137939e-05
1.4466139074054491689e-05
1.4496752950640074483e-05
1.4629145639777200484e-05
1.4932297110233819267e-05
1.5216390549966845794e-05
1.5455862041188903126e-05
1.5645610014666275987e-05
1.5786460217326464675e-05
1.5881531456741681613e-05
1.5938811129010646995e-05
1.4043338771506626506e-05
1.4070032071937957642e-05
1.4177342876929287341e-05
1.4355627336651546519e-05
1.4519132296741611951e-05
1.4662044935974960784e-05
1.4780967893991335088e-05
1.4873632547023216959e-05
1.4939479697481822205e-05
1.4980443406691625144e-05
1.5001016031784921136e-05
1.5006081557441923457e-05
1.500159168551266911e-05
1.4990929003731754494e-05
1.4989651611942983721e-05
1.3990104829945796718e-05
1.4081893251028277338e-05
1.4156315349866985633e-05
1.4211590587422221643e-05
1.4248484215664892122e-05
1.4269469446289897709e-05
1.4276912349106538383e-05
1.4274506552003618024e-05
1.4266023374450018183e-05
1.4253803999023276054e-05
1.4233103721863730074e-05
1.4188176159915917452e-05
1.4105700976355899152e-05
1.4035852618766845624e-05
1.3987598986067363734e-05
1.3959928725717525707e-05
1.3947051751386030865e-05
1.3940218053495068851e-05
1.3945554507767483191e-05
1.3990485504334724618e-05
1.4127991973101768132e-05
1.4281803024995899155e-05
1.4416096704765467735e-05
1.4528197637730529373e-05
1.4616809705945411926e-05
1.468068883552591021e-05
1.4722658183814063158e-05
1.3573483840349084695e-05
1.3647626551722164898e-05
1.3749441807866546631e-05
1.3837549859861196812e-05
1.3910326745245556087e-05
1.3967134965775865408e-05
1.4008303155484860188e-05
1.4035424407812494791e-05
1.4050558483071930093e-05
1.4056111091487958402e-05
1.4054480994205730912e-05
1.4048439383335078044e-05
1.4039074225810485984e-05
1.403549799986037262e-05
1.3267411354133302358e-05
1.3376842302249238503e-05
1.3480679328898313095e-05
1.3571808208793859966e-05
1.3645453350918289193e-05
1.3697758334915265059e-05
1.3726636342819194269e-05
1.3735070907918069821e-05
1.3728919024924317443e-05
1.3716161887640620744e-05
1.369098028505906724e-05
1.3626712927703305329e-05
1.3533792766340599717e-05
1.346455247682829551e-05
1.3421129280730800164e-05
1.3398431254009609157e-05
1.3387713579407633735e-05
1.338345341341328447e-05
1.3398220013808723728e-05
1.3467955763229854453e-05
1.3575542300853142176e-05
1.3672882543757099947e-05
1.3760833288846365565e-05
1.3841541904856874539e-05
1.3915428017599010781e-05
1.3981773483240097589e-05
1.312514445695779122e-05
1.3204891069483179871e-05
1.3270070636912670385e-05
1.3321364214939296905e-05
1.3359435641433990412e-05
1.338606162275527255e-05
1.3403222262332728439e-05
1.3413033321326849908e-05
1.3416984257009647279e-05
1.3416261853894777007e-05
1.3412185227951388232e-05
1.3404356144281692756e-05
1.3400064090434103331e-05
1.2893313746041574461e-05
1.2964881399125251742e-05
1.3020420578045613353e-05
1.3058659216490866055e-05
1.3079300522820871763e-05
1.3085441779614590316e-05
1.3081330606849145311e-05
1.3072078746204175961e-05
1.3053671017763543723e-05
1.3008531160522832361e-05
1.2940917863526674235e-05
1.2888070656510547171e-05
1.2852854515699041544e-05
1.2832423270195607941e-05
1.2820590631193448048e-05
1.2815632560244232752e-05
1.2834010958008657956e-05
1.2915326857225783565e-05
1.3021901262003385085e-05
1.3115381841375598463e-05
1.3198946823590542135e-05
1.3274427195417348366e-05
1.3342643480512200103e-05
1.3403230026997799016e-05
1.3455112439458603177e-05
1.2653504528131655571e-05
1.271606313409885848e-05
1.2765647810949176452e-05
1.2802896289845489065e-05
1.2829785298899864295e-05
1.2847908064835128619e-05
1.2859119324382895793e-05
1.2864771578426651422e-05
1.286555704550317573e-05
1.28629388160761435e-05
1.2856052725570388563e-05
1.2851977404733204983e-05
1.2458418360076348709e-05
1.2505781154985986807e-05
1.2541252944365808203e-05
1.2564924657476717499e-05
1.2576577844459930095e-05
1.2578079275589609684e-05
1.2572529222722917026e-05
1.2562859811001106689e-05
1.2545167317097596511e-05
1.2505771946741890178e-05
1.2456805969354417909e-05
1.2420016677720417537e-05
1.2395717376794356917e-05
1.2380952411708820017e-05
1.237163772462303879e-05
1.2375292842020112791e-05
1.2421341031717288947e-05
1.2539781631774358109e-05
1.2651682255691393221e-05
1.2746467686082559186e-05
1.2823674440637409407e-05
1.2885060616083398821e-05
1.2930932590425524785e-05
1.2963335933200058011e-05
1.2085712829020992887e-05
1.2134727586922390035e-05
1.2170674832106297947e-05
1.2191245282845062742e-05
1.2197572475209971109e-05
1.2193788827022682123e-05
1.2184521225809706108e-05
1.2164173016342218981e-05
1.2112106297658187709e-05
1.2046677568758608793e-05
1.199859259011629106e-05
1.1967678598030684055e-05
1.194993866352648931e-05
1.1939023396947765615e-05
1.1937404232921230857e-05
1.1967560094800231695e-05
1.2068538652267258982e-05
1.2176914931086051236e-05
1.226801079341904899e-05
1.2342584772625997608e-05
1.240299369666118088e-05
1.2450338436984853809e-05
1.2487208786077193457e-05
1.1690511418599126568e-05
1.169189433844904544e-05
1.1688571614700870571e-05
1.1681602536764792806e-05
1.1665220311717951286e-05
1.1623407614041666663e-05
1.1568962583155029911e-05
1.1525076186623149223e-05
1.1493163512431825142e-05
1.1472113218296315116e-05
1.1458421591337069486e-05
1.1449757337893205327e-05
1.1456934825426431075e-05
1.1515676451468247375e-05
1.1630734628848305318e-05
1.1733869123388546209e-05
1.1822102132921219871e-05
1.1895816996096579462e-05
1.1956048902566062067e-05
1.200379937717245752e-05
1.2040992829602117318e-05
1.1153500871955955779e-05
1.1134224377815991593e-05
1.1112005292974161378e-05
1.1092490756701825266e-05
1.1076555898877972381e-05
1.1063808577615291448e-05
1.1053494195602486423e-05
1.1050762799184391853e-05
1.1076390055777975599e-05
1.1162080409185201014e-05
1.1256263932499865636e-05
1.134265215775732097e-05
1.1418870805508230705e-05
1.1482302492492608411e-05
1.1532187128411897927e-05
1.156742656282883105e-05
1.1590353718584891558e-05
1.0724709848151436082e-05
1.0699034640364389181e-05
1.0682371504201069914e-05
1.0671342490474945328e-05
1.0666306009384447014e-05
1.0684835332870963761e-05
1.0767284894352250365e-05
1.0873730272026808891e-05
1.0962928226626478487e-05
1.1034250958435776156e-05
1.1088546034522116747e-05
1.1126795963036172326e-05
1.1152560636886683083e-05
1.0274744270162175402e-05
1.0243739068935495072e-05
1.0224693012536256745e-05
1.0213257824036473673e-05
1.0206132137691839148e-05
1.0211044400815238149e-05
1.0254487044185982858e-05
1.0347842241281760928e-05
1.0434014469559169054e-05
1.0509661207493280576e-05
1.0575154909718470077e-05
1.0631192610008751589e-05
5.921698836991646882e-06
5.8706502291937411576e-06
5.8356285923111313337e-06
5.8095670659312929215e-06
5.7899614490890484298e-06
5.7760679832931751112e-06
5.7693364164733583672e-06
5.7674451821848402028e-06
5.773276401497402846e-06
5.8057296927765317306e-06
5.928141792307207017e-06
6.2482994534349806285e-06
6.5481319711381130315e-06
6.7487301215565503735e-06
6.8557174829242086139e-06
6.892413220131076187e-06
6.8920794501691976251e-06
6.8784521402750289592e-06
6.8257381616636185243e-06
6.7011978024151805771e-06
9.1523919903504926901e-06
9.082915723831898444e-06
9.0392004902433488342e-06
9.0103481215484490817e-06
8.9903813187870119049e-06
8.9748535327306699238e-06
8.9649252524056754609e-06
8.9599124723146260471e-06
8.9626636124561919351e-06
8.9819471974275453131e-06
9.0450053076003495204e-06
9.2426330352420683683e-06
9.5599807321511072239e-06
9.8146067672930917183e-06
9.9804157522322214404e-06
1.0059315517738424522e-05
1.0075719367278098277e-05
1.0066669253234219713e-05
1.0041593634437570565e-05
9.9614542217965854634e-06
9.8478956623364939156e-06
9.7797642595346480398e-06
1.6456054192840271653e-05
1.6413017766484342427e-05
1.6391526792210533731e-05
1.638217949524355192e-05
1.6381400656947974951e-05
1.6398694457721855788e-05
1.6425138751966485921e-05
1.6452061452102552744e-05
1.6499874890529271458e-05
1.6616064325083598031e-05
1.6864387888042621803e-05
1.7177468613915323109e-05
1.7503707858012139821e-05
1.7791745761598118478e-05
1.8014469952761253405e-05
1.8149005628155478705e-05
1.8202747027205088521e-05
1.8198752397364542806e-05
1.8178129637643777552e-05
1.8129496071854552544e-05
1.8052516171016901546e-05
1.8004197701935127288e-05
1.7981046504341528352e-05
1.7968365518099614728e-05
1.7972119965063680522e-05
1.8025504228717614916e-05
3.6190511622926767755e-05
3.6381901352219969789e-05
3.6621275238151559299e-05
3.6858080002276808287e-05
3.7078958408894679532e-05
3.7287230116717826306e-05
3.750018848153201435e-05
3.7740220934790286676e-05
3.803282670667775553e-05
3.8383526528077351763e-05
3.8784041132630247281e-05
3.9206458794140479579e-05
3.9610509432738725351e-05
3.9952045243951075264e-05
4.020298996913223606e-05
4.0356258680643743565e-05
4.0422255156688014811e-05
4.0428171430687204809e-05
4.0405615783838901478e-05
4.0385683830827853855e-05
4.0383057085127697569e-05
4.0429035161949742781e-05
4.0604015258428309435e-05
4.0863556021540108011e-05
4.1107850681233813316e-05
4.1307942398419286766e-05
4.1456307061064316818e-05
4.1554484736127548442e-05
7.3741946544011489776e-05
7.3874320388378348409e-05
7.4019997785463448325e-05
7.4171878115902845595e-05
7.433413051564771105e-05
7.4511974680179358823e-05
7.4713838912813715755e-05
7.4938634369705426708e-05
7.5176547874718533749e-05
7.5414204077787200925e-05
7.5638569148590219129e-05
7.5836113273167779329e-05
7.5993609515300904428e-05
7.6100921735792800686e-05
7.614657109284864243e-05
7.6131071940349449921e-05
7.6071726970661630819e-05
7.5998184257925350659e-05
7.5918783729082188819e-05
7.5861597503733160883e-05
7.5828492897535876185e-05
7.5832518321125130627e-05
7.5901380285048735005e-05
7.5980825053120537365e-05
7.6059140026132248183e-05
7.6131628009542664311e-05
7.6202204263230909021e-05
7.6271516845929622714e-05
7.6346811868599628197e-05
7.643074595856062651e-05
0.00010702335201107779296
0.00010689225786549426292
0.0001067484505290180384
0.00010658562607042439542
0.00010640828545792914677
0.0001062296239342747046
0.0001060626814274845365
0.00010590953264151268848
0.00010575733500545792833
0.00010558542683561596457
0.00010537896630141816053
0.0001051394227953803684
0.00010488290550487099854
0.0001046279772040295818
0.00010438540623535768758
0.00010415346761704471275
0.00010392579227827631531
0.00010370094019373367171
0.00010348509414249889367
0.00010328684499323162222
0.00010311069319557900233
0.00010295119009336299077
0.00010279597491275960577
0.00010263279358918841197
0.00010245667199058583984
0.00010227116219926984085
0.00010208293062786508317
0.00010189596569935553704
0.0001017080402672498982
0.00010151567609088787069
0.00010131683240080302045
0.00010111496771075646566
0.000123499906236716506
0.00012316323652829350589
0.0001228263535896530873
0.00012247591022003401109
0.00012210907989600928883
0.00012173537296753525949
0.00012136843606109400649
0.00012101404024400091173
0.00012066326867986480807
0.00012029998079687213939
0.00011991388600961048897
0.00011951185962591977826
0.00011911258783778678279
0.00011873375558315309543
0.00011837886865292168476
0.00011803540764864367269
0.00011768768691575680601
0.00011733136018716788448
0.0001169777706799064905
0.00011664359472273152563
0.00011633922828783646846
0.00011605988819824443979
0.00011578864343475997771
0.00011550810952839699183
0.00011520971686699989862
0.00011489584718003374318
0.00011457399775750342437
0.00011424997238846388084
0.00011392436264548752134
0.00011359743345749533712
0.00011327345628942434648
0.00011296148992458154012
0.00011266967114385220553
0.0001637956563895310799
0.00016290101353515017797
0.00016206998689976929995
0.00016121412447169360463
0.00016029538568505170859
0.00015935483256971418606
0.00013012059833141548129
0.00012972863986836585489
0.00012933303842269279222
0.00012891931849076540767
0.00012848593819652284471
0.00012804527381594040555
0.00012761435447954699494
0.00012720069900476444575
0.00012679481427974140543
0.00012637821281706999887
0.00012593986345441757278
0.00012548641017209765974
0.00012503909154285298955
0.00012461681572980697237
0.0001242220028084100843
0.00012384021094155584202
0.0001234532629913500908
0.00012305617229642676867
0.00012266164518051587496
0.00012228866440574159748
0.00012194783414632555613
0.0001216329862891655768
0.0001213243950829377254
0.000121003286183339674
0.00012066274097444210024
0.00012030779170457974142
0.00011994828984594731668
0.00011959011631875649158
0.00011923253391811533986
0.00011887394579348859651
0.00011851856807833532784
0.00011817687060122248981
0.00011785882371580328485
0.00011756270887230041476
0.00015796029060345938592
0.00015707058206864907019
0.00015629654589887723181
0.00015554146607458195755
0.00015471330030421880986
0.00015381177944802639445
0.00015291116710902395216
0.00012451373343387567684
0.00012414719772994351854
0.00012375764500568281739
0.00012333734954745378194
0.00012289420802076342202
0.00012244754751889743664
0.00012201383247417912166
0.00012159418355856670428
0.00012117353834605196835
0.00012073552154284419207
0.00012027918162602034015
0.00011982312301691323299
0.00011939339412170167827
0.00011900358179746365239
0.00011864666196802374693
0.00011830209190835804683
0.0001179530873552823235
0.00011760155574065390928
0.00011726515099302217237
0.00011695950754727059916
0.00011668322187365305685
0.00011641769381080705836
0.00011613727655247707506
0.00011582631836586914785
0.00011548660072297257137
0.00011513182756110866306
0.00011477686670138564126
0.00011442881949476373842
0.00011408726452505196238
0.00011375107062196311385
0.00011342516920609114735
0.00011311783988640542701
0.00011283139654586312644
0.00011255588330521881313
0.00011227140208184008209
9.7271881589435623507e-07
9.5120401501952035096e-07
9.3094903805456338678e-07
9.1313645001647327819e-07
8.9852203984812229756e-07
8.8762575566906880524e-07
8.8055561660989508578e-07
8.7676519205786512001e-07
8.752311211444977058e-07
8.7467532221975869354e-07
8.7474716486230193747e-07
9.2643637290603625424e-07
9.4194474264875039467e-07
9.4848916802802026469e-07
9.492615582506635768e-07
9.475183571858063378e-07
9.386696255987791743e-07
9.1089084117226707857e-07
8.8400211597600977783e-07
8.6893758473966127232e-07
8.6394439891175951062e-07
8.6410172012003897561e-07
8.7256654234056790064e-07
9.1214443023394006083e-07
9.8331486910351802944e-07
1.0295011714494316186e-06
1.051516611818249097e-06
1.0570667547754875743e-06
1.0558042239721040164e-06
1.0478361710725419911e-06
1.0326201563813966236e-06
1.0260871289376187893e-06
1.0254096693334010473e-06
1.0305753140454599963e-06
1.0567413868305183161e-06
1.0927049919745483942e-06
1.1119381333417793228e-06
1.1177609950804854752e-06
1.1170380533301244542e-06
1.109789227473318982e-06
1.0777504132120814743e-06
1.0155357633712103719e-06
9.6744357731122176033e-07
9.3776442968624986784e-07
9.2413171404469626211e-07
9.2075716300604471811e-07
9.2142620999829775742e-07
1.0758039474385792166e-06
1.0605139015951077474e-06
1.0513515738117887429e-06
1.0463469203692263139e-06
1.0437983416589110392e-06
1.0424567670359855104e-06
1.0415040790284001433e-06
1.0405121299158309599e-06
1.0391933695113306244e-06
1.0367485150810458882e-06
1.0305064361374024783e-06
1.0128036634130809379e-06
9.8867665549654307382e-07
9.6711979242260827597e-07
9.4915700265474210936e-07
9.354427662320312216e-07
9.2626829117518673215e-07
9.211559331148732204e-07
9.1900507644903069467e-07
9.1827681235526914052e-07
9.1819282663404839131e-07
9.6467375295949427924e-07
9.9139942703850768891e-07
1.0068421879197880751e-06