/*--------------------------------*- C++ -*----------------------------------*\
  =========                 |
  \\      /  F ield         | OpenFOAM: The Open Source CFD Toolbox
   \\    /   O peration     | Website:  https://openfoam.org
    \\  /    A nd           | Version:  12
     \\/     M anipulation  |
\*---------------------------------------------------------------------------*/
FoamFile
{
    format      ascii;
    class       volScalarField;
    location    "0.0165";
    object      nut;
}
// * * * * * * * * * * * * * * * * * * * * * * * * * * * * * * * * * * * * * //

dimensions      [0 2 -1 0 0 0 0];

internalField   nonuniform List<scalar> 
106891
(
1.0064359018638916883e-05
1.0002578323604603637e-05
9.9423629576416224532e-06
9.8857062205156111603e-06
9.8338911592743283454e-06
9.788534935932340764e-06
9.7508499401895704079e-06
9.7220231647293317985e-06
9.7009865246313239229e-06
9.6896293604366346178e-06
9.6786578520072313024e-06
1.0370188491647528006e-05
1.0375157239973767492e-05
1.0372269068520604041e-05
1.0365492846107554335e-05
1.0356568221150398216e-05
1.034042160247132591e-05
1.0301815816436207541e-05
1.0247423080178084655e-05
1.0203301781649927322e-05
1.0172006784918218676e-05
1.0153636612492240393e-05
1.0143730334797313909e-05
1.0138145297128202526e-05
1.01423603645631366e-05
1.0181595774249834252e-05
1.0306755797179807942e-05
1.0447743846315902589e-05
1.0566842041701556443e-05
1.0664516845288924776e-05
1.0743025173026786611e-05
1.0805227863986116888e-05
1.0853173502774680589e-05
1.0887143740484097302e-05
1.0907489252588425046e-05
1.091519007676044597e-05
1.0913082973664894318e-05
1.0905825822111874114e-05
1.0895468525244630928e-05
1.0875406132983795625e-05
1.0824102827395730864e-05
1.073729384610597865e-05
1.0662460552580417501e-05
1.0604886220539416292e-05
1.0565766965574591618e-05
1.05426892677402941e-05
1.0530928156328682991e-05
1.0523982674711118034e-05
1.0521866027630618265e-05
1.0834451275800270536e-05
1.0827050862242264034e-05
1.0819260295566983924e-05
1.0810522670594584468e-05
1.0799713334283817448e-05
1.0783624383392697617e-05
1.0751787526641859525e-05
1.0694271882507465596e-05
1.0632068478502574747e-05
1.0568440240262633333e-05
1.0504693152362438752e-05
1.0442400396812828402e-05
1.0383699311925343619e-05
1.0329942696107782254e-05
1.0283036429075162699e-05
1.0244253801583403182e-05
1.0214802323745385683e-05
1.0193779875065026375e-05
1.0181960447514693086e-05
1.0171828129701352211e-05
1.0884345398134036883e-05
1.0877869193994676739e-05
1.0869872108046405482e-05
1.0859298341475788743e-05
1.0840055065481550654e-05
1.0798950294799601401e-05
1.0755177274385369814e-05
1.0720922807113403698e-05
1.0698597747826362722e-05
1.0685965779919345321e-05
1.0678939705439596418e-05
1.0678788888066589991e-05
1.0707088266166612169e-05
1.0826113328583287696e-05
1.1004329074751555441e-05
1.1149164890953292624e-05
1.1259019059643103736e-05
1.133826205824739857e-05
1.1393029218916553091e-05
1.1429398142441407962e-05
1.1451756004115918423e-05
1.1463313643362363708e-05
1.1466032716983964805e-05
1.1462377323831411698e-05
1.1455205018751554781e-05
1.1446029641904035331e-05
1.1431424950868418434e-05
1.1400442921061942981e-05
1.1329451595047279231e-05
1.125166801492941834e-05
1.1187292946824450258e-05
1.1139166883072925562e-05
1.1107915117422822413e-05
1.1090440214023396872e-05
1.1081363099747566271e-05
1.1075740119107339458e-05
1.1387282305626179998e-05
1.1379486754873721342e-05
1.137139491968782122e-05
1.1362598843485300322e-05
1.1352311794116713448e-05
1.1338531474328497568e-05
1.1315027639914134976e-05
1.1265103772328869503e-05
1.1199280678355736128e-05
1.1131355355946466777e-05
1.1062611916660951029e-05
1.0994646311304126027e-05
1.0929966712308969578e-05
1.0870332776000632966e-05
1.0818005552030649291e-05
1.0774510637657206376e-05
1.0741254657631417455e-05
1.0717298627866937445e-05
1.0703892412290728095e-05
1.0693033748905599314e-05
1.1438931116386641401e-05
1.1430784498768431029e-05
1.1420156653207560909e-05
1.140126700538476817e-05
1.1361444466142777904e-05
1.1319126904171649477e-05
1.1285371063894991255e-05
1.1262199731994933702e-05
1.1248281534279045351e-05
1.124048959705958586e-05
1.1238171992966247196e-05
1.1259477278985501972e-05
1.1356371817520632996e-05
1.1508917163572877755e-05
1.1638907545897822117e-05
1.1747311254164582433e-05
1.183652225914740877e-05
1.1909701991572810902e-05
1.1969742740861875048e-05
1.2017522735819325357e-05
1.2052444198161764267e-05
1.2073522640845733248e-05
1.2081385325433210856e-05
1.2078704057420821925e-05
1.2070897836403358047e-05
1.2059333876219180317e-05
1.2034850298465700071e-05
1.1970935800034558389e-05
1.1883911226196690908e-05
1.1812955980805528547e-05
1.1761449978989621187e-05
1.1729192139855928317e-05
1.1712320607500983962e-05
1.1703863595996878211e-05
1.1701384779404201e-05
1.1720545305523974764e-05
1.1954038844537035941e-05
1.1944736455368984451e-05
1.193498751880048331e-05
1.1923563554758307304e-05
1.1907999951518856481e-05
1.1880867719912227738e-05
1.1824797984919649239e-05
1.1754869077249069457e-05
1.1682148740102072252e-05
1.1608806197047217068e-05
1.1537934469082297394e-05
1.1472055758538626189e-05
1.1413633315026273392e-05
1.1364534247280532681e-05
1.132591730315644533e-05
1.1298199073222617213e-05
1.1279779949921188128e-05
1.1269110890680252726e-05
1.1260042029789292059e-05
1.2066692371082922389e-05
1.2057043142878819488e-05
1.2043327647059900878e-05
1.2015164888257523712e-05
1.1957354620652464597e-05
1.1902493563858053285e-05
1.1859672913365082667e-05
1.1830911162030493324e-05
1.1814522638726149788e-05
1.1805294238567955e-05
1.1800939670482660625e-05
1.181441052135025179e-05
1.1883558179511922198e-05
1.2012908404776321996e-05
1.2137584423917564092e-05
1.2257315776898640964e-05
1.23716698404728404e-05
1.2479244333464876751e-05
1.2576669286475824125e-05
1.2659347327100560932e-05
1.2722232292103000654e-05
1.2762591969241245555e-05
1.2780624144484305059e-05
1.2781582740493792482e-05
1.2773730164648876292e-05
1.2760922940707674717e-05
1.2731781798382385456e-05
1.2652643196278403833e-05
1.2544439084160403922e-05
1.2457690088732563014e-05
1.2394581291253025564e-05
1.2354196453330957761e-05
1.2332112118064359437e-05
1.2321259206053608421e-05
1.2560701519165222222e-05
1.2549328894443600744e-05
1.2538723655639383514e-05
1.2528588564018092004e-05
1.2518072874762804959e-05
1.2505697314720097191e-05
1.248884451306438189e-05
1.2459260850690762512e-05
1.2397742924179564386e-05
1.2321440168204351263e-05
1.2242348745324655641e-05
1.2163458270249776589e-05
1.2088295589632726772e-05
1.2019696557487787204e-05
1.1960394857853732297e-05
1.1912165737035337971e-05
1.1875655414612645285e-05
1.1850725618567849471e-05
1.1834800440819509112e-05
1.1825344226508053975e-05
1.2736168366997874211e-05
1.2726505718555683924e-05
1.2715180994789098562e-05
1.2697027778249493887e-05
1.2654982921608357857e-05
1.2595286438208010607e-05
1.2546441176138837308e-05
1.2512501677835703986e-05
1.249300310687017951e-05
1.2482413061827748511e-05
1.2477272192972472473e-05
1.2490828459834748339e-05
1.25686675711042789e-05
1.2743638083498705498e-05
1.2900020228683638864e-05
1.3028182885704609977e-05
1.3131673562347134866e-05
1.3216557341377681785e-05
1.3287542855951813854e-05
1.3346573925542907889e-05
1.3392785585839855645e-05
1.3423853852489204955e-05
1.3438915623402449719e-05
1.344040847627778269e-05
1.3433248865117380236e-05
1.3422283826825587551e-05
1.3401760428641822464e-05
1.3349202501474349982e-05
1.3245605481745532724e-05
1.3153987455009322118e-05
1.3084454669796135196e-05
1.3038121641136412741e-05
1.3011988717212909079e-05
1.3185348692582179948e-05
1.3173981485399576842e-05
1.3163146837189552193e-05
1.3151636446612962876e-05
1.3137712802704234284e-05
1.3117713288831108433e-05
1.3079733072756165801e-05
1.3016046559790079716e-05
1.2945014808594096283e-05
1.2869490840100304796e-05
1.279271421438460678e-05
1.2718092287694746499e-05
1.2649115880022805252e-05
1.2588907058092258675e-05
1.2539797662326430383e-05
1.2502710437963188497e-05
1.2477388501009119862e-05
1.2461504054840457137e-05
1.2451567488566854929e-05
1.336978080610279965e-05
1.3355399655018816181e-05
1.3326205516559425969e-05
1.3268550345152780267e-05
1.3217023030829199245e-05
1.3179875956809054778e-05
1.3157208022695168921e-05
1.3144598632187330249e-05
1.3137451016220598061e-05
1.3145168395439108409e-05
1.3206463352404605339e-05
1.3367608252133547026e-05
1.3520952994071305952e-05
1.3647342987516494382e-05
1.3750160417685359729e-05
1.3834416218819987413e-05
1.3905547525592842193e-05
1.3966375514472325611e-05
1.4017128460160856979e-05
1.4054816457704759759e-05
1.407752648634494405e-05
1.4084966300484186028e-05
1.4080653850716082304e-05
1.4070930864352751503e-05
1.4055789348637192464e-05
1.4020849879610908819e-05
1.3936858656169189195e-05
1.3847088197376214146e-05
1.3777470134988568861e-05
1.372925800324002903e-05
1.3700808921109603348e-05
1.3685651838473119669e-05
1.3858956826762976446e-05
1.3849329867096339553e-05
1.3839516939795258002e-05
1.3829151521057607017e-05
1.3817335198556647002e-05
1.3801633378890499162e-05
1.3774521973229078347e-05
1.3713310981905439659e-05
1.362390142771115309e-05
1.3534405187412699688e-05
1.344854486810505558e-05
1.3369256336629431933e-05
1.3299717457528516392e-05
1.3241996425631369537e-05
1.3197330064053754877e-05
1.3165514080333720634e-05
1.3144752690303915455e-05
1.3132144395363268098e-05
1.3122801691479959627e-05
1.3987226264655273239e-05
1.3947238610212396196e-05
1.389020494975995676e-05
1.38447051893016808e-05
1.3813893067264276337e-05
1.3796268264766703326e-05
1.3786271412559076996e-05
1.3783612484371575161e-05
1.3811042030378123754e-05
1.3930327453759573208e-05
1.410679576057955694e-05
1.4257227132648503891e-05
1.4382016067058384768e-05
1.4485876775119154464e-05
1.457409802076127166e-05
1.4649958175641572325e-05
1.4712725678107420663e-05
1.4758627497538118905e-05
1.4785448320816602314e-05
1.4794736073297751436e-05
1.4791722694178329795e-05
1.4782738164724647584e-05
1.4770489082251219245e-05
1.4747458797593600031e-05
1.468762541712465781e-05
1.4590215936378909896e-05
1.4509373144603175906e-05
1.4450431944872340178e-05
1.4413176149168159022e-05
1.4392346188294833197e-05
1.4562367015943043284e-05
1.4552282471820021951e-05
1.4541806219063233607e-05
1.4530042760467211418e-05
1.4515051719875611032e-05
1.4491812580771381257e-05
1.4444075278403545781e-05
1.4352555511965299604e-05
1.4255123033987870932e-05
1.416101406850069327e-05
1.4075548523206177245e-05
1.4002120958681616046e-05
1.3943087966155434077e-05
1.3898823693923657342e-05
1.3868369913554482679e-05
1.3849087297896385399e-05
1.3837129267120440053e-05
1.382916934661777592e-05
1.4704337674714494367e-05
1.4647531903479542778e-05
1.4601160118772234456e-05
1.4570020053476877061e-05
1.4552185268097925173e-05
1.4541884360737034358e-05
1.4539157066527711232e-05
1.4567431301237987885e-05
1.4682978069652779312e-05
1.4830517036273321542e-05
1.4951479584147966037e-05
1.5048306470584592868e-05
1.5124575698652957095e-05
1.5188987810544124019e-05
1.52512586920810607e-05
1.5319346731048813894e-05
1.5393419423561765505e-05
1.5465003135307665443e-05
1.552017708500656436e-05
1.5549972191641555258e-05
1.555548402181372415e-05
1.5547035183968249092e-05
1.5532002300381855993e-05
1.5496353655573327486e-05
1.5409527710900355738e-05
1.5321085459039412893e-05
1.5256344340061131487e-05
1.5214049335175485183e-05
1.5138196074813377908e-05
1.513108315251973914e-05
1.5132249092877287622e-05
1.5133211134327730765e-05
1.5128108902882073374e-05
1.5118626710295870392e-05
1.5106391273895515323e-05
1.5084302178900940456e-05
1.5027888499615629089e-05
1.4922899731997188878e-05
1.4826192276651956986e-05
1.4744377959856330837e-05
1.4679308620043889579e-05
1.4630921260261199981e-05
1.4597574453836364758e-05
1.4576434918172116812e-05
1.4563329932069479276e-05
1.4554428461194759715e-05
1.5369594517389970263e-05
1.5332567913739437239e-05
1.5301899498451805321e-05
1.5284436461581874108e-05
1.5274980586415018148e-05
1.5280580549811199567e-05
1.5346423819957361788e-05
1.5528833177701938583e-05
1.5686432421058469033e-05
1.5788240757665128624e-05
1.5839894372632477886e-05
1.5855220850414107923e-05
1.5851639543314388945e-05
1.5843157214907898408e-05
1.5837636227665451963e-05
1.5845892024263782212e-05
1.5903400204348766198e-05
1.6013088628138198385e-05
1.6102863237588154231e-05
1.6162105693365601467e-05
1.6189096889708218409e-05
1.6189997119759485557e-05
1.6178801714755800803e-05
1.615863981757685621e-05
1.6108534608368566254e-05
1.6045465663669726509e-05
1.6003836935238088921e-05
1.5560522231363493385e-05
1.5566991531327061525e-05
1.5600487210868389982e-05
1.5629922384718076357e-05
1.5647178317037447215e-05
1.5653546704561925194e-05
1.5650171059922016371e-05
1.5640549697087157755e-05
1.5626271719984443086e-05
1.5594938531530761519e-05
1.5528631761205809718e-05
1.5469252549557229083e-05
1.5426678987590965723e-05
1.5399061799889966187e-05
1.5382581835110706542e-05
1.5371243670654782424e-05
1.5363414194868848042e-05
1.5978265844898400578e-05
1.6030706120944736358e-05
1.607933746423015399e-05
1.6136025898362084451e-05
1.6205035161501709289e-05
1.6282947309046867152e-05
1.6357751243773023189e-05
1.6416406552619843581e-05
1.6449627846488887534e-05
1.6457905018811579324e-05
1.6448461135032427265e-05
1.6427340240088446864e-05
1.6360188637838347307e-05
1.6203659745791957545e-05
1.6075925280004726352e-05
1.6000521431520563448e-05
1.5968168924961540146e-05
1.5957771166890155113e-05
1.5968537607813898104e-05
1.6058663257421215188e-05
1.6296587507527187017e-05
1.6499160868587811504e-05
1.663787895923323729e-05
1.6723316926858545215e-05
1.6771076763202093506e-05
1.6797771277778445533e-05
1.6818015855488685685e-05
1.5391729720803987342e-05
1.547348557822431989e-05
1.5653485392747460499e-05
1.581705648320833659e-05
1.5948887233537541137e-05
1.6045678696112900354e-05
1.6109564623502975776e-05
1.614621921847469985e-05
1.6162404142056519576e-05
1.6165194605084656342e-05
1.6160200068739974459e-05
1.615083347175611962e-05
1.6140907717930993238e-05
1.6133073613195593097e-05
1.6123217419001322046e-05
1.6117723159013996068e-05
1.2914807802948183641e-05
1.3073952610133550344e-05
1.3191961456639439586e-05
1.3269665244896068431e-05
1.3311255806611592433e-05
1.3325287086628824642e-05
1.3321289026137143576e-05
1.3310688926335761479e-05
1.329047896802117413e-05
1.3237995710189269548e-05
1.3099752632089993481e-05
1.293604410565266399e-05
1.2796646035847518118e-05
1.2686950884794979342e-05
1.2608552772716746644e-05
1.2560809805803503048e-05
1.2537513017111343247e-05
1.2527974042805573881e-05
1.2526041659109784403e-05
1.2551155739883250231e-05
1.2664185621367793621e-05
1.2925847154942898159e-05
1.3172092423139405314e-05
1.3380293997644841696e-05
1.3545819989416238297e-05
1.3669017094335398239e-05
1.375229435029758604e-05
1.3802383312054669842e-05
1.223010160403737481e-05
1.2252785151809479584e-05
1.2345870595452782296e-05
1.2502001542281205399e-05
1.2645945301787486767e-05
1.2772369193543284653e-05
1.2878078201913189195e-05
1.296084506325657237e-05
1.301998272399736263e-05
1.3056998501963007061e-05
1.3075765578189770628e-05
1.3080508253819541362e-05
1.307653042864835451e-05
1.3066804546287530585e-05
1.3065128188135685189e-05
1.212901007402224579e-05
1.2206554980164449652e-05
1.2268929890528183671e-05
1.2314912589462629345e-05
1.2345158016993434272e-05
1.2361600954638202283e-05
1.2366187047771206128e-05
1.2362365150489953083e-05
1.2353950884739369905e-05
1.2343384707297221277e-05
1.2326515085665263951e-05
1.228925424837892894e-05
1.2219200708444148784e-05
1.2159441466476026019e-05
1.2117814180803879612e-05
1.2093624109139579836e-05
1.2082012502913205213e-05
1.2075432336807176683e-05
1.2079158425549708044e-05
1.2117010146126324323e-05
1.2235223672469515104e-05
1.2368455592401708012e-05
1.2485299184898276034e-05
1.2583309699152348199e-05
1.2661043604869367279e-05
1.271711076894579769e-05
1.27536871237392272e-05
1.1821085235464718811e-05
1.1885592176631292559e-05
1.1975186023984205636e-05
1.2053353275872725673e-05
1.2118458103574717205e-05
1.2169714170346448414e-05
1.2207168436860227231e-05
1.2232043117790094091e-05
1.2246019171712161928e-05
1.2251200724159002687e-05
1.2249716664028928819e-05
1.224414898487823852e-05
1.2235502234652939849e-05
1.2231984138206607223e-05
1.1503466162512166016e-05
1.1595896233174778057e-05
1.1683780668767897642e-05
1.1760756488594059611e-05
1.1822348019054742992e-05
1.1865145885979229824e-05
1.1887731350981934936e-05
1.1893379246339135706e-05
1.1887686481433609826e-05
1.1877604234432565653e-05
1.1857657369121758268e-05
1.1804179438514053016e-05
1.1725405858554199546e-05
1.1666700836839272962e-05
1.1630012476770283691e-05
1.1610931387691219237e-05
1.1601784406651530126e-05
1.1597701088715520567e-05
1.1609662264432741834e-05
1.166907034850119386e-05
1.1761841838093898817e-05
1.1846227405094622437e-05
1.1922881739941498035e-05
1.1993408052421383015e-05
1.2057823367823316602e-05
1.211512818364070558e-05
1.1431328123763626232e-05
1.1501732527560613276e-05
1.1559764773074930082e-05
1.1605849482552952896e-05
1.1640383462165099332e-05
1.16647311692204456e-05
1.1680522769591096145e-05
1.1689538896552496844e-05
1.1693128663575734448e-05
1.1692371009326873652e-05
1.1688554728272428968e-05
1.168135798569573257e-05
1.1677299131885355589e-05
1.1179443741741829993e-05
1.1239159187624921612e-05
1.1285014655207892232e-05
1.1315525812595030852e-05
1.133040048954460698e-05
1.133278405490762218e-05
1.1327063918162162044e-05
1.1318228207977181092e-05
1.1302925300381608356e-05
1.1265604706845479594e-05
1.1209193017881023268e-05
1.1165675506715839793e-05
1.1137369133059700605e-05
1.1121706544700991535e-05
1.1113136129436802647e-05
1.1109853408686937474e-05
1.1125900758064480447e-05
1.1195675914075024139e-05
1.1287259454044597134e-05
1.1367481289249908814e-05
1.143939511449091824e-05
1.1504689159900135454e-05
1.1563899796679090077e-05
1.1616365575311376538e-05
1.1660728937262930305e-05
1.1022346884990082984e-05
1.1077982941272315501e-05
1.1122369808210593752e-05
1.1155909724514138313e-05
1.1180185552986569996e-05
1.1196524809702357994e-05
1.1206514279641241214e-05
1.1211381675042358897e-05
1.1211773156383452227e-05
1.1209077424109502958e-05
1.1202563837765938128e-05
1.1198534957325594467e-05
1.080432989133237589e-05
1.0843160520741397502e-05
1.0871093121274646109e-05
1.0888197760549504707e-05
1.0894772911309105146e-05
1.0893163312137348146e-05
1.0886659778602962825e-05
1.0878026373337499144e-05
1.0863739949006358493e-05
1.0831595668849420457e-05
1.079156019567812512e-05
1.0762330050131582986e-05
1.0743994023951104484e-05
1.0733689924883100153e-05
1.072748865202565675e-05
1.0731554034647779248e-05
1.0771260242560820608e-05
1.0873185661922915988e-05
1.0969357465705657781e-05
1.1050777855369589236e-05
1.1117247707539359657e-05
1.1170216419648852394e-05
1.1209630835932864009e-05
1.1236885813745483897e-05
1.0481201180377134813e-05
1.0520690966972821119e-05
1.0548269018567980835e-05
1.0562393418361825718e-05
1.0564706940005777632e-05
1.055939788458664699e-05
1.0550740501436291327e-05
1.053383767993468883e-05
1.0490535310353572889e-05
1.0436147121505334834e-05
1.0397188462363726987e-05
1.0373326109115992705e-05
1.03607942580168027e-05
1.0353668016535871679e-05
1.035366754747737907e-05
1.0380092896183950574e-05
1.0467079819912777818e-05
1.0560302393262249054e-05
1.0638449890565028572e-05
1.0702429942116875085e-05
1.0754286548750923092e-05
1.0794718383379993003e-05
1.0825632877550415449e-05
1.0133870760450268628e-05
1.0131282677227425424e-05
1.0125030355730330167e-05
1.0116656889355540229e-05
1.0101506999946254655e-05
1.0065705323197275637e-05
1.0019867976094913714e-05
9.9839181013625764188e-06
9.9588965668284355884e-06
9.9436494327708267992e-06
9.9348450298191104201e-06
9.9300125973886217484e-06
9.9380372878394441897e-06
9.989568952449732209e-06
1.0089304768898705816e-05
1.0178139328860069156e-05
1.0253806783107511055e-05
1.03169059437448989e-05
1.0368384388399658335e-05
1.0408928690890889858e-05
1.04399011670944089e-05
9.6596636603929156322e-06
9.6427706978772060952e-06
9.6243100774094188156e-06
9.6089505071201930877e-06
9.5973060289139204397e-06
9.5889272812075704728e-06
9.5829445089711252475e-06
9.5833836885312486097e-06
9.607725194444952392e-06
9.6833015588372938029e-06
9.765568206290863715e-06
9.840366270335627156e-06
9.9059629871824570309e-06
9.9603240715273033408e-06
1.0002847146789007693e-05
1.0032447475369429422e-05
1.0050916800226658121e-05
9.2919161804380657061e-06
9.2718816193944433743e-06
9.260064720677786023e-06
9.2532452848388973312e-06
9.2512794595503562397e-06
9.2689853309984473312e-06
9.3412772784800167326e-06
9.4340898060701340025e-06
9.5115398881895602234e-06
9.5732375105654021156e-06
9.6199328193094234035e-06
9.6523538985725209607e-06
9.6734212191331074115e-06
8.9047813614966530058e-06
8.8800610711593750026e-06
8.8658434623376605754e-06
8.8580671987950841673e-06
8.8535651343165406316e-06
8.8588705345379362789e-06
8.8969541510437661128e-06
8.978240299214403135e-06
9.053146361538785502e-06
9.1186674567523534466e-06
9.1749492008011455604e-06
9.2224237901778202762e-06
5.1476204208267181537e-06
5.1031179972129257246e-06
5.0728275727849424841e-06
5.0506746012679362836e-06
5.0343268187107181356e-06
5.0227596606225245315e-06
5.016819639141499144e-06
5.0143153083703300544e-06
5.0179318705598951789e-06
5.0444763497323584652e-06
5.1491929300846475502e-06
5.4264223316815278446e-06
5.6876487891883888425e-06
5.8633056575068280138e-06
5.9578532115095402438e-06
5.9910341919566237066e-06
5.9914353224452436618e-06
5.9798006979501238431e-06
5.9341628750985327823e-06
5.8260530176408559556e-06
7.9558513787999124477e-06
7.8949868950742299535e-06
7.856574318806934084e-06
7.8316034589208274701e-06
7.8152017808939029263e-06
7.8033220321830935661e-06
7.7963264023046100512e-06
7.7927495599648720028e-06
7.7945099469483058497e-06
7.809338009987271161e-06
7.861503894823812356e-06
8.0304653931048276924e-06
8.304976842911557968e-06
8.526241293754341675e-06
8.671208969629068408e-06
8.741031637880972846e-06
8.7564197928433809001e-06
8.7493317906682468879e-06
8.7281536138788550264e-06
8.6592484098163675867e-06
8.5610659320939517858e-06
8.5024730273109830672e-06
1.4303969170795749705e-05
1.4267465925621093832e-05
1.4249012871593651582e-05
1.4240295750474839779e-05
1.4238639700919085749e-05
1.4253372827616412542e-05
1.4277897905776509453e-05
1.4304578706995129734e-05
1.434986459242275067e-05
1.445314879053994614e-05
1.4668750526048570941e-05
1.4938132739579321019e-05
1.5217618869130826299e-05
1.5464131413404958208e-05
1.5655302536387003155e-05
1.5771480892487203438e-05
1.5818490273430529919e-05
1.5815618396695992634e-05
1.5798247042264978128e-05
1.575666474309014205e-05
1.5690588570570431799e-05
1.5649906285146340725e-05
1.5631607478732400374e-05
1.5622567142169165781e-05
1.5627553626143899263e-05
1.5675190681950438562e-05
3.1462801703205230629e-05
3.1629376419658902743e-05
3.1838915055703433208e-05
3.2046196869985860253e-05
3.2238358142796898274e-05
3.2418368347672161275e-05
3.260297410114611677e-05
3.2813888215602717631e-05
3.3073906771920191534e-05
3.3385740207069473017e-05
3.3738526100317886396e-05
3.4105413196296479781e-05
3.4451718310416904248e-05
3.4742371219995878151e-05
3.4956815146017866604e-05
3.5090643482357558765e-05
3.5151854128464891621e-05
3.5161184291675288147e-05
3.5143649402516759076e-05
3.5125652313638285854e-05
3.5121030468258027915e-05
3.5158752492512506185e-05
3.5309944191656937997e-05
3.5536999361784664343e-05
3.5752152144082521889e-05
3.5929579965279015961e-05
3.6062234335739331659e-05
3.6150956928957004514e-05
6.4151572965497885223e-05
6.4254459505331732285e-05
6.4376116958953327166e-05
6.4510479747377651757e-05
6.4656273324997210025e-05
6.4811791023969348964e-05
6.4981775895698635787e-05
6.5168673607996378057e-05
6.5370758724075584052e-05
6.558134959686481131e-05
6.5788321741673099754e-05
6.597442991777956059e-05
6.6122676469525105123e-05
6.6223265482241204451e-05
6.6269620001109153678e-05
6.6266128116688352112e-05
6.6227551400299837828e-05
6.617512921253555086e-05
6.6110066947645197331e-05
6.6053638020610735363e-05
6.6009745248064429445e-05
6.5995446985363850336e-05
6.6041150241803115903e-05
6.6102896842883728597e-05
6.6169498528588388433e-05
6.6233954080498118962e-05
6.629716035835461188e-05
6.6358510086916611169e-05
6.6423764337877574167e-05
6.6494359152531923893e-05
9.3116791103246734484e-05
9.298157219696516658e-05
9.2838577070750093428e-05
9.2689334865558574319e-05
9.2538344678290087751e-05
9.2390982810887606162e-05
9.2250280598918604855e-05
9.2114688354228698797e-05
9.1977709767218540269e-05
9.1830155026017203806e-05
9.1664648078075344415e-05
9.1478976496909205772e-05
9.1277274478124474188e-05
9.1067467514115285209e-05
9.0857820784036021165e-05
9.0653906137061964778e-05
9.0458297743805312382e-05
9.0271175801865229322e-05
9.0091642158468776503e-05
8.99184990138926824e-05
8.9750695899974404588e-05
8.9586563000579972835e-05
8.9424014577920050918e-05
8.9260936998148527298e-05
8.9096621043985703512e-05
8.8932254328262099223e-05
8.8769337237339470585e-05
8.8608353943691307332e-05
8.8446953093451125883e-05
8.8281985433897992399e-05
8.8109790157855384912e-05
8.7929337213391804001e-05
0.00010740753130036506864
0.00010708416234202263058
0.00010676573999617524247
0.00010644907148298009508
0.00010613240648635737049
0.00010581616106969392343
0.00010550181047065802537
0.00010518985558227546338
0.00010487849835183559561
0.00010456462861365274598
0.00010424624980188863788
0.00010392477952848665863
0.00010360453292956082561
0.00010329008232263549305
0.00010298333684804662097
0.00010268239667535071947
0.00010238388104882544774
0.00010208603001946241846
0.00010179039941105187997
0.00010150026918824613001
0.00010121836940063339233
0.00010094432918392102193
0.00010067482769892141081
0.00010040565306999643582
0.00010013389780764875314
9.9859246314560498018e-05
9.9583064210591377995e-05
9.9306978531333789319e-05
9.9031382226099005342e-05
9.8756525535590239319e-05
9.8483080943069791174e-05
9.8212982639590574183e-05
9.7948122875184573562e-05
0.00014269879808546465311
0.00014189495164807966856
0.00014111894903617118241
0.00014035025991436953711
0.00013957846026728891985
0.00013881088161631920824
0.00011316993586936450794
0.00011279872041211270919
0.00011242968153864570005
0.00011205934148030862168
0.00011168714866347352957
0.00011131547738495441656
0.0001109479660683735389
0.00011058634481545208514
0.00011022893095798294669
0.00010987210326417147293
0.00010951349849303082323
0.00010915423790438539273
0.00010879869445196184842
0.00010845115299620585565
0.00010811260823696918398
0.00010778017654642574124
0.00010744963929819305868
0.00010711927777867903493
0.00010679109800334755822
0.00010646899029586273948
0.00010615566991160873265
0.00010585017960882302441
0.00010554828611652641282
0.00010524555498821192142
0.00010494028004095098093
0.00010463349330327463885
0.00010432759468222485631
0.00010402406789247288564
0.00010372268215633134801
0.00010342278861581800692
0.00010312484597411568095
0.00010283100627301527497
0.00010254401069678133716
0.00010226375195952572695
0.00013769092823230050346
0.00013695904217373032941
0.00013626029260744258872
0.0001355502809436707676
0.00013480771969946842253
0.00013405202133477510254
0.00013331975999631394403
0.00010847630683656620172
0.00010812930851614755985
0.00010776742007575078222
0.00010739268223595768693
0.00010701269305517653293
0.00010663621847162470246
0.00010626671260373800993
0.00010590046554844148477
0.00010553066271756536922
0.00010515511222187929631
0.00010477999049294624203
0.000104417013706043055
0.00010407504941497941443
0.00010375449161848398257
0.00010344812275226774473
0.00010314740041744066676
0.00010284911665355761306
0.00010255751138695859122
0.00010227897359551881983
0.00010201461846286238725
0.00010175719527437793426
0.00010149502119293381784
0.00010121829709760604395
0.00010092491217016917604
0.00010062030815203174623
0.00010031293708868274455
0.00010000960151112284994
9.9713179117088930549e-05
9.9423928004920074071e-05
9.9141941766575577026e-05
9.8868483113964011249e-05
9.8603567309154220707e-05
9.8343428139544382871e-05
9.8080664985496189014e-05
9.780779043174946607e-05
8.4683353491883654056e-07
8.2813238731788905092e-07
8.1051448658896873309e-07
7.950086992989379535e-07
7.822747128636713969e-07
7.7276849400069741938e-07
7.6659262904405613416e-07
7.6327601667677010362e-07
7.6194306794356157677e-07
7.614770434447758165e-07
7.6157365448640388188e-07
8.0347286648475648047e-07
8.168915996676965721e-07
8.2252791485884333695e-07
8.2313208723198881118e-07
8.2153486455898715172e-07
8.1381172165741393033e-07
7.8970535225234347244e-07
7.6628767002112344644e-07
7.5313481114696307812e-07
7.4872847505041432431e-07
7.4880319714337174639e-07
7.5604445456570571999e-07
7.9013520189090900453e-07
8.5184147801625143667e-07
8.9194817525336654685e-07
9.1106368081920856531e-07
9.1584538593505181999e-07
9.1468766914788259047e-07
9.0777431825478912693e-07
8.9455481335473757248e-07
8.8885698208376921981e-07
8.8821597001177104597e-07
8.9252971032750308457e-07
9.1487666307481965328e-07
9.4577861825144168288e-07
9.6218946810939916679e-07
9.6702458728249094331e-07
9.6627337829438837302e-07
9.6002796788954451009e-07
9.3254510713903813682e-07
8.7884052436759058896e-07
8.3728088052098382011e-07
8.1160650930490972085e-07
7.9977986455916537415e-07
7.9680903927063349269e-07
7.9731950617591328814e-07
9.3656159195796214662e-07
9.2321350153976630676e-07
9.1521077416265833362e-07
9.1084071292360060707e-07
9.0862176915782124751e-07
9.0746397760158342054e-07
9.0665115411359832774e-07
9.0580795285388270915e-07
9.0468303490256619367e-07
9.0258498306866895756e-07
8.9720368780384484933e-07
8.8188170137597101456e-07
8.608761222761371659e-07
8.4208938861197092363e-07
8.2642241290218381745e-07
8.1444898547702070065e-07
8.0643236334497004738e-07
8.0195999772368669086e-07
8.0008787774770715192e-07
7.994722515442458375e-07
7.9943217026320377806e-07
8.3679758220089736098e-07
8.5989692024639612861e-07
8.7317225776579085191e-07