/*--------------------------------*- C++ -*----------------------------------*\
  =========                 |
  \\      /  F ield         | OpenFOAM: The Open Source CFD Toolbox
   \\    /   O peration     | Website:  https://openfoam.org
    \\  /    A nd           | Version:  12
     \\/     M anipulation  |
\*---------------------------------------------------------------------------*/
FoamFile
{
    format      ascii;
    class       volScalarField;
    location    "0.0165";
    object      p;
}
// * * * * * * * * * * * * * * * * * * * * * * * * * * * * * * * * * * * * * //

dimensions      [1 -1 -2 0 0 0 0];

internalField   nonuniform List<scalar> 
106891
(
99245.695688589970814
99245.14288730113185
99247.066265218963963
99250.373608528854675
99253.781198897893773
99256.082601097223233
99256.55822899947816
99255.057877660088707
99251.983297572194715
99248.262273533939151
99244.781425554596353
99025.411971968307626
99036.056546650259406
99046.81483223210671
99053.75173800792254
99055.461319528738386
99053.354842657150584
99051.295265985158039
99053.562831180344801
99061.883754972281167
99073.768201604616479
99082.542898765401333
99081.560161391549627
99068.500742606702261
99047.770215187600115
99028.366154373899917
99019.118356133549241
99023.806864428988774
99038.944718026759801
99056.971313767426182
99072.32711894075328
99084.12892478032154
99095.601285176846432
99109.465781793551287
99125.021953135947115
99137.801792562313494
99142.79088401212357
99137.855079661021591
99125.266448308510007
99110.10616383505112
99096.592143674235558
99087.660536219729693
99084.51487974554766
99086.898677154880716
99093.550074270664481
99102.691298781021032
99111.565747518921853
99117.427200396370608
99119.128147422452457
99251.128576118178898
99263.405660992022604
99272.232215232899762
99276.367368455088581
99275.406421649837284
99269.942468945781002
99261.359082733048126
99251.502377621873165
99242.300028106226819
99235.351654495825642
99231.556892798282206
99230.970214571003453
99232.953068149625324
99236.529058404907119
99240.623303045780631
99244.355314469474251
99247.237040916661499
99249.1965280395234
99250.618711280956632
99251.962378097872715
99034.219011375418631
99034.950648467682186
99034.047784033886273
99032.363864028113312
99031.773948374975589
99034.670867063250626
99043.225766155432211
99057.016623520714347
99072.455327943971497
99082.54483133550093
99080.62390787921322
99065.378103755487246
99042.433202263229759
99021.751415962004103
99012.849199088406749
99019.164817075041356
99036.654950597439893
99056.57007273331692
99072.551656235431437
99083.695282225424307
99093.95514686977549
99107.42212672388996
99123.757323054363951
99138.796847244826495
99146.722655898862286
99144.342661438058713
99133.002016344020376
99117.281010244376375
99102.062605769839138
99090.757389409947791
99085.480088894517394
99086.99738990709011
99094.292112235489185
99105.65153873267991
99117.742691399398609
99126.679027228150517
99227.565942928529694
99241.940318137567374
99253.505648389880662
99260.762098231978598
99262.905342663201736
99260.000826360337669
99253.031192046939395
99243.692324244606425
99233.955382865067804
99225.611780961509794
99219.946453176977229
99217.537283925834345
99218.245970163305174
99221.455482382123591
99226.345171821682015
99232.11349331701058
99238.152160112280399
99244.160636311105918
99250.090267968334956
99255.979099370058975
99032.515518518950557
99020.127298579725903
99010.579077365327976
99006.718983078331803
99010.005144623559318
99020.2752377155266
99036.109090813231887
99054.430554751408636
99070.312814882126986
99078.36477578956692
99074.183042388918693
99058.495782234094804
99037.086451874813065
99019.429555472990614
99013.627464985460392
99022.138083542318782
99040.577004977953038
99060.922644431018853
99076.895507497785729
99087.49908312621119
99096.381129613349913
99107.719423571543302
99122.52355209623056
99137.531368514843052
99147.197374944618787
99147.924142147792736
99139.949445898077101
99126.36373860880849
99111.602109992163605
99100.01104647028842
99093.735699971788563
99094.008191965098376
99101.059538232089835
99113.106707614148036
99127.053061647326103
99138.111413193386397
99213.430124942518887
99226.032434308741358
99235.233035353026935
99240.013178056833567
99240.156005102544441
99236.249062627597596
99229.522701616806444
99221.574950450347387
99214.050613475003047
99208.323739717830904
99205.244224531081272
99205.028049530956196
99207.392038976278855
99211.821225548177608
99217.831729624143918
99225.036036761215655
99233.176297283702297
99242.023473442386603
99251.420373549583019
99004.495934914186364
98986.515008630929515
98982.040714406321058
98990.933324765006546
99009.876027297592373
99033.156664561596699
99054.464515856365324
99068.295605539140524
99071.156542997036013
99063.092424591479357
99047.638780157838482
99031.051834395359037
99020.432561772424378
99020.694462280662265
99032.211978534163791
99050.829960933639086
99070.408143834822113
99085.653548031739774
99095.482324292941485
99102.455289240504499
99110.388483823960996
99121.403996507113334
99134.372220180841396
99145.037571902095806
99149.932486684003379
99147.002519487126847
99137.899162024477846
99126.050821024051402
99114.978423350446974
99107.914088019941119
99106.876756748533808
99112.583948082916322
99124.009252866366296
99138.168243790438282
99171.889893291459884
99183.855587300728075
99194.997365951887332
99204.054314357243129
99210.051526272247429
99212.565407345580752
99211.796186807958293
99208.491220628711744
99203.746538873805548
99198.739168001557118
99194.481299123552162
99191.720831934697344
99190.885735240604845
99192.069276643145713
99195.130233491378021
99199.903747526841471
99206.317310236918274
99214.381268473138334
99224.0107587431703
99235.127858742387616
98993.350807814131258
98969.283696286729537
98964.942747615496046
98979.303873735523666
99005.756206450620084
99034.685006232204614
99057.178116787574254
99067.143606658588396
99063.480052854443784
99050.34639767515182
99034.856731279345695
99023.880033222594648
99021.731710989799467
99029.361776317222393
99044.990611441884539
99064.178711695960374
99082.608139275558642
99096.872412087512203
99105.8545018004952
99110.819434308912605
99115.030460754496744
99121.736395533356699
99131.742157160959323
99143.122520746474038
99151.929178563557798
99154.835798317319131
99150.879481565061724
99142.102481809051824
99132.400761495242477
99125.081660146592185
99122.450696428219089
99126.286172149950289
99135.822393614434986
99160.665209970480646
99168.491076267382596
99175.186187493658508
99180.266779061406851
99183.512049589699018
99184.954242829728173
99184.840287062994321
99183.585160867922241
99181.682191312211216
99179.603720645056455
99177.73826504695171
99176.436027935968013
99176.028192378696986
99176.827936619272805
99179.151750679477118
99183.309596661652904
99189.58953187816951
99198.094784500324749
99208.893822512589395
98967.567326080883504
98963.530359689684701
98980.806293333735084
99010.585530938828015
99041.068489208511892
99061.955113253396121
99067.32887776978896
99057.750266541726887
99039.978334131636075
99023.114836351000122
99014.874059813475469
99018.265022721287096
99031.760293053317582
99051.465074540261412
99072.830729459907161
99091.846319931835751
99106.306724371592281
99115.184735732109402
99119.057415672083152
99120.925781831901986
99124.798563035525149
99132.860596362923388
99144.672769681696082
99156.327555672658491
99163.232478064644965
99162.883746582709136
99156.649762129600276
99147.67195223167073
99139.90305342238571
99136.151155650004512
99137.471110746671911
99143.164888998828246
99146.561717203643639
99150.755862433841685
99154.202624577956158
99157.071655774037936
99159.53990192792844
99161.724533754648292
99163.642904491658555
99165.210453040039283
99166.258323340574862
99166.564042100610095
99165.935448458985775
99164.39886823874258
99162.322850814118283
99160.401700263828388
99159.51974919247732
99160.545305263047339
99164.153308863329585
99170.538763308286434
99179.744097950213472
98983.955496051101363
98999.930572077413672
99026.772354179745889
99053.157480057925568
99068.988760927997646
99069.618038205328048
99056.440899488792638
99035.765773509003338
99016.721588251792127
99006.548685454050428
99009.171851781924488
99023.528993816129514
99045.225819553204929
99068.839865048867068
99090.345030390482862
99106.87087887362577
99117.27341973426519
99122.886291749469819
99126.02386970561929
99130.343863941598102
99138.778708911078866
99150.928765986129292
99163.102310825575842
99170.53733073452895
99170.798954852783936
99164.789785258573829
99155.815466672851471
99147.283843888886622
99141.595331121628988
99139.232952670732629
99139.784600269893417
99140.987525400574668
99141.994083082623547
99143.447154031207901
99145.703220027382486
99148.700554337832727
99151.990039301424986
99154.884426770964637
99156.69124234226183
99156.917895828126348
99155.379855099090491
99152.313332461082609
99148.418262747058179
99144.744796344093629
99142.467849517168361
99142.672769717479241
99145.911954325507395
99152.452083636177122
99034.965078112014453
99052.417527880330454
99068.739018048523576
99077.044717905126163
99073.937845742708305
99059.815736914490117
99038.623640669306042
99016.801714827131946
99001.681452288452419
98998.320112155997776
99007.498379935103003
99025.960766550517292
99048.781078245898243
99071.359910905070137
99090.43708314000105
99105.01545565930428
99116.032313953648554
99125.330940345098497
99135.126522479913547
99146.600392063555773
99158.728759782286943
99168.536582281842129
99172.900564981420757
99170.496055170879117
99162.23943305281864
99151.301936315692728
99141.070699566422263
99132.321947698656004
99130.117066842198255
99131.512947400042322
99132.926105673002894
99134.913263644702965
99137.71577984529722
99141.182558164087823
99144.786641163722379
99147.77807826201024
99149.399826073873555
99149.111087083292659
99146.765653473237762
99142.645695974075352
99137.421725725827855
99132.040963910520077
99127.553763861986226
99124.972519819333684
99124.918417276101536
99127.897513806674397
99077.830428660425241
99083.695654435927281
99085.421974873257568
99080.27664817936602
99067.193464009222225
99047.234507594621391
99023.779455620926456
99003.461353707229136
98991.843343637418002
98991.362601373213693
99000.775561799120624
99016.442408171089482
99034.825559712422546
99053.887710264214547
99073.500970004868577
99092.842498105630511
99111.780469300356344
99129.847934633420664
99145.531789552143891
99157.25885827546881
99163.056639132366399
99161.942845406680135
99154.326757988790632
99142.432109574408969
99128.68741007510107
99115.12500530059333
99102.561176574439742
99124.558583288860973
99129.256507634403533
99134.20403009650181
99138.963799919496523
99143.015148141217651
99145.873450189130381
99147.093723805694026
99146.366375382887782
99143.619603828439722
99139.047358020980028
99133.077570257257321
99126.324290680247941
99119.497025236662012
99113.30612024529546
99108.477920232937322
99105.528398922106135
99105.032978013055981
99087.902254762113444
99088.178576047168463
99090.254992413756554
99091.192503892423701
99087.352194527004031
99076.373359200573759
99058.244376341914176
99035.827369298727717
99013.531436800927622
98995.081201321561821
98982.816979813927901
98977.257606985018356
98979.087943275619182
98988.408983072222327
99005.092660037451424
99026.989763731820858
99051.979445596123696
99077.39835261121334
99100.236283818798256
99118.213326179582509
99129.489670000795741
99132.77917431826063
99128.071591056257603
99116.470683176768944
99100.77253708729404
99083.827389169033268
99067.745034796113032
99133.692582759656943
99142.469483663226129
99149.568206608470064
99154.102217777573969
99155.580523645170615
99153.977043402774143
99149.641948092001257
99143.212702489414369
99135.447558078856673
99127.060168437150423
99118.600136410983396
99110.444822482197196
99102.881495923240436
99096.223806487221736
99090.791110997524811
99087.150179844204104
99068.635135421034647
99073.71010494120128
99080.868495630609686
99085.792670406473917
99084.159582668842631
99074.482944054398104
99059.171040169661865
99041.919490457104985
99024.116457224721671
99005.86840709176613
98987.500877980637597
98971.077428208809579
98960.238980352471117
98958.870377463870682
98968.102596952361637
98985.581629952284857
99007.333818772211089
99029.754634433760657
99050.117729271398275
99066.800715670440695
99077.960812405348406
99081.881820258116932
99077.626542681173305
99065.890072887326824
99049.304044049189542
99031.460377535477164
99014.975997860718053
99001.444091517201741
99153.942519984586397
99162.194255873022485
99166.468442581826821
99166.429259008888039
99162.413455221059849
99155.310755083934055
99146.255836258467752
99136.352236285776598
99126.440130443370435
99117.039864516176749
99108.369190891695325
99100.433821256548981
99093.288556585845072
99087.080559004389215
99082.279206766237621
99044.828099742124323
99059.24381576864107
99068.839129046085873
99069.227684142810176
99061.101791179011343
99048.819824040081585
99036.656703748798463
99025.337797319036326
99011.908581671043066
98994.229005201210384
98973.846787179296371
98956.089939541532658
98946.458897284319391
98946.929596291825874
98955.57734643133881
98968.558520149104879
98982.861959936388303
98997.130910337757086
99010.736122034242726
99021.757517868492869
99027.77637361412053
99026.256439394026529
99017.441338856733637
99003.093076936274883
98986.714794672210701
98971.449311498814495
98959.871381048622425
99170.926685329715838
99174.473801020023529
99173.13123269227799
99167.5732333703927
99159.025738927681232
99148.884333118738141
99138.367449330093223
99128.323364012961974
99119.182365913758986
99111.024066076628515
99103.723498851759359
99097.191679461611784
99091.488781894513522
99086.931334663036978
99027.215892683321727
99039.859248074906645
99041.368156427779468
99034.905437818844803
99026.701847253381857
99021.000516198109835
99017.122559696188546
99010.495930567311007
98997.342530409543542
98978.330003689712612
98958.553333678239142
98943.517865921880002
98935.425836318463553
98933.331313993767253
98934.543208047776716
98937.721148463970167
98943.401568464076263
98952.026368041260866
98962.129206609301036
98970.423396566780866
98973.609403323949664
98969.975206112358137
98960.229726203280734
98947.146518510387978
98934.325973259255989
98925.576943649124587
99177.502780895301839
99175.203562713344581
99168.983498119050637
99160.253256789204897
99150.459287302292068
99140.775592171441531
99131.960712908752612
99124.307306388480356
99117.738544495674432
99112.019126226179651
99106.987869529664749
99102.648253810591996
99099.185998259257758
99002.548596996392007
99004.118811517910217
98999.298084023670526
98995.381433020738768
98996.21537057198293
98999.784203140865429
99000.563193801164743
98993.943058391159866
98979.70856701816956
98961.817550171239418
98944.616573159772088
98930.200337742586271
98918.431294491529115
98908.294317680571112
98900.378468567374512
98896.886364782505552
98899.382867904991144
98907.297125751079875
98917.212615473443293
98924.968964519808651
98927.269749554732698
98923.096681687122327
98914.403935236681718
98904.92518725041009
98899.315823362485389
99171.859605038785958
99166.006532684506965
99158.313595462488593
99150.14847917330917
99142.552938945984351
99136.075361072580563
99130.81587884327746
99126.590604850294767
99123.106075684147072
99120.139941261513741
99117.608688577500288
99115.577098951645894
98963.652252995554591
98960.747022829440539
98960.579134887608234
98966.425107909220969
98975.76988950764644
98982.935312045257888
98983.035133521116222
98974.936353455341305
98960.919038984138751
98944.324789097736357
98927.200144993956201
98909.734553245652933
98891.742215528065572
98874.993188697902951
98862.953969490408781
98858.746642211524886
98862.837855159290484
98872.47673989017494
98883.124010603249189
98890.112743588950252
98891.259937289738446
98887.397090949409176
98882.139839995274087
98879.748452014348004
98925.101612313403166
98927.438792366127018
98936.054174479329959
98948.690857004286954
98960.283475122603704
98965.625586349575315
98962.933956709777704
98953.582249241648242
98940.079121339134872
98923.959829535931931
98905.358228117169347
98884.188003191025928
98862.33075533095689
98844.01945447147591
98833.44006096108933
98832.306718113832176
98839.175363427086268
98849.738414160136017
98858.945349987407099
98863.790518607464037
98864.103630936457193
98862.768180486134952
98863.619283249063301
98908.630120675283251
98922.366567265984486
98936.24758316235966
98944.975272352137836
98946.287500368285691
98940.913307396884193
98931.36565002608404
98918.937296413481818
98903.119158836256247
98883.204706723699928
98860.37189527504961
98838.526422091177665
98822.62970551638864
98815.960753491788637
98818.108962887592497
98825.643864225596189
98834.052122002685792
98840.034082757367287
98842.839516223801184
98844.401542407431407
98848.157019568025135
98928.757390658938675
98926.302651987265563
98920.164269436703762
98912.127579613545095
98901.2762104885187
98885.722133773073438
98865.183954098611139
98842.798590707941912
98823.720890077733202
98812.090481971026747
98808.763226245850092
98811.331057557516033
98816.109522001410369
98820.236841228266712
98823.006789217528421
98825.913854367958265
98831.653837736550486
98898.771423796570161
98888.840367383731063
98872.861871070854249
98852.641451220799354
98832.678452927502804
98817.524419620909612
98808.954859907535138
98805.640796336869244
98804.99520355790446
98804.926412204833468
98805.302255052127293
98807.641461422012071
98813.895857239171164
98890.476743140054168
98880.121633605158422
98863.849534858891275
98845.082789007326937
98828.125948375716689
98815.375567395545659
98806.482554497066303
98799.773265653828275
98794.276483863752219
98790.592919133967371
98790.672749777702847
98796.082763414160581
98894.221701084155939
98902.089068960296572
98907.427257001356338
98902.24647488789924
98883.944773527196958
98857.731956826653914
98833.401517635487835
98817.754974346098606
98810.187841300867149
98805.281761686113896
98797.49820331313822
98785.772988337106653
98773.321893995831488
98765.162617640744429
98765.936396569857607
98778.105833112029359
98799.877805618132697
98824.781485072599025
98843.758104859865853
98850.225990481616464
98894.928789843819686
98895.047153612569673
98901.300898653731565
98906.08648345246911
98899.956977518799249
98879.791580494624213
98850.517362196405884
98822.729419649709598
98804.823865119178663
98796.862512307649013
98792.112053771037608
98784.005901414071559
98770.874749989015982
98757.452826787892263
98750.793371590567403
98756.049650073444354
98774.132123912277166
98800.646254920837237
98827.391153553573531
98845.775823981733993
98851.040912993921665
98843.627182581651141
98908.871959235679242
98905.350182558046072
98898.159564569519716
98895.907108350555063
98900.473628276115051
98905.002566813243902
98898.375654428979033
98876.125411374363466
98843.783809864704381
98812.840354290980031
98792.939011165275588
98784.762010356600513
98780.506806932884501
98772.136370233652997
98757.898562086498714
98743.500588703391259
98738.071902372394106
98747.381615154605242
98770.893494311036193
98801.672278471014579
98829.84530318013276
98847.4778343696089
98851.493443684186786
98844.220777964408626
98830.482541216246318
98816.271923548396444
98905.262840357769164
98914.597354924044339
98910.362851594050881
98901.031571052459185
98896.726947535382351
98900.079203399669495
98904.165042103573796
98897.275909524440067
98873.325040175128379
98837.790981489772093
98803.902975086733932
98782.308552325164783
98774.164590367043274
98770.661347338289488
98762.182544523951947
98746.877215201806393
98731.500752266743802
98726.994077610957902
98739.937782347406028
98768.291497553014779
98802.834461040605674
98832.194100279099075
98848.934980226316839
98851.809825638891198
98844.629621743733878
98832.145941776048858
98818.623742582058185
98807.430629709444474
98884.932269950251793
98909.771783288364531
98919.88855932385195
98914.863706855336204
98903.604176416891278
98897.283559613410034
98899.799483678492834
98903.834917127576773
98896.722758925025119
98871.259134818887105
98832.848843606974697
98795.873575954843545
98772.884069234758499
98764.923992354539223
98762.398746755337925
98754.010633549769409
98737.616508873165003
98721.31134433762054
98717.482463749474846
98733.587988342449535
98766.287038717389805
98804.167158669457422
98834.535450053212116
98850.326357581376215
98852.079074372901232
98844.920002983606537
98833.567105414753314
98820.746870345305069
98808.672548725488014
98800.740200738757267
98855.115967073783395
98886.848707342782291
98913.593825020710938
98924.526002418569988
98918.817731389397522
98905.771668745728675
98897.834697783211595
98899.723844960171846
98903.889740655795322
98896.69009311789705
98869.733793430030346
98828.716494796637562
98789.356788150558714
98764.889164607346174
98757.394132291825372
98756.021121622950886
98747.899505856388714
98730.386287609595456
98713.041953786625527
98709.575424095572089
98728.236688053439138
98764.714318186030141
98805.501731809912599
98836.67537537390308
98851.599016901644063
98852.316400544470525
98845.088378423359245
98834.755223157728324
98822.61035077527049
98809.683371080172947
98799.682292346129543
98799.48608136139228
98854.712726495519746
98888.710826366412221
98916.896954523326713
98928.38323544395098
98921.977483406575629
98907.509989110592869
98898.20401701371884
98899.756441089004511
98904.190831222673296
98896.965918803587556
98868.783698205763358
98825.743948015311616
98784.065775461742305
98758.696451977535617
98751.729837226506788
98751.333546982321423
98743.490391843777616
98724.979512877762318
98706.592762382584624
98703.377594363511889
98724.03219404866104
98763.650131308706477
98806.814056688221171
98838.601352198180393
98852.732635801265133
98852.516868709557457
98845.192402483880869
98835.648618798746611
98824.112729439410032
98810.444369274773635
98798.681445085079758
98796.967655133514199
98812.560410955236875
98808.003777342586545
98826.876702073961496
98874.419498714210931
98895.029532103071688
98864.771020608095569
98810.470043407302001
98854.425216285671922
98889.858677014752175
98919.225576508571976
98931.092009200510802
98924.172576460347045
98908.651723618197138
98898.448471714786137
98899.781910492019961
98904.63073483556218
98897.311445156417903
98868.414147834380856
98823.490720708738081
98780.285684243775904
98754.484742451721104
98747.861032191751292
98748.233203564959695
98740.634391223749844
98721.41504785559664
98702.064050400644192
98699.039042231859639
98721.141082499205368
98762.99993513134541
98807.890734073414933
98840.089424176127068
98853.643416445222101
98852.700577995798085
98845.309801057446748
98836.315454557057819
98825.215194532094756
98810.974189313434181
98797.799560059473151
98795.022245889995247
98810.795441380047123
98843.539180151419714
98850.182690727495356
98802.723086234836956
98825.117579588579247
98877.482623929579859
98898.439439698020578
98865.994920584649662
98808.579706281248946
98854.302082695794525
98890.6113070374995
98920.644369301167899
98932.669323892623652
98925.387928607146023
98909.197862352142693
98898.53591974642768
98899.854348545908579
98904.963800964062102
98897.64531679628999
98868.158926562566194
98822.178209009696729
98778.284074690760463
98752.250690668079187
98745.942106152884662
98746.844341674746829
98739.27545279545302
98719.416166385359247
98699.427591745785321
98696.642405806895113
98719.731147018217598
98762.796059619751759
98808.607237084506778
98840.983844323869562
98854.179474546355777
98852.801518361986382
98845.392425158730475
98836.666365973782376
98825.796589039659011
98811.216672796741477
98797.162476205412531
98793.903914603943122
98809.893066779739456
98843.574926560817403
98880.980312754298211
99169.664513142808573
99176.61990122590214
99185.673771379515529
99196.053960284611094
99206.856073865041253
99217.171155101983459
99226.182560033048503
99233.105125258429325
99237.374189335343544
99238.726560364491888
99237.205628850235371
98967.104286483750911
98964.408952675337787
98963.221206598114804
98966.156681178690633
98974.004507664401899
98983.716750259889523
98992.422437965506106
98998.800093282523449
99003.675665881528403
99008.800649258075282
99014.218821003218181
99018.145237867793185
99018.931349617574597
99017.160939004694228
99015.700632403604686
99017.301001661049668
99021.193267086215201
99023.234932130129891
99018.57648534431064
99006.106398167932639
98990.149438337408355
98979.204422306735069
98981.126074801402865
98998.885115766315721
99029.083704563672654
99063.40924193598039
99092.580455203948077
99109.400004119292134
99111.542086845831363
99101.110663637111429
99084.110189944913145
99067.902638453088002
99058.532134908149601
99058.904852295061573
99068.09373122175748
99082.482028185972013
99210.761051687280997
99199.627416895673377
99186.976973837066907
99173.81727290438721
99161.318004105443833
99150.803461618867004
99143.499170944327489
99140.139043878472876
99140.978674447789672
99145.90376805109554
99154.461971773998812
99165.894895979887224
99179.187354196197703
99193.194181991901132
99206.719111552258255
99218.642586152345757
99228.130304450169206
99234.631539740614244
99237.943087355830357
99238.191020280850353
99235.707200858712895
98941.731350424059201
98947.949130979657639
98961.273029349162243
98981.279509417130612
99002.003589557032683
99017.35127537563676
99023.904453328606905
99022.221842330749496
99016.23736748121155
99010.793675828506821
99008.123519777771435
99006.581214708887273
99003.491873616178054
98998.27576927751943
98993.207643440167885
98992.141469082038384
98996.155479151449981
99002.67512211536814
99006.930858724168502
99005.863024908670923
99000.372948946765973
98995.828569302117103
98998.232206466796924
99010.738721360146883
99032.259357131042634
99057.758169736756827
99080.64157482777955
99094.813371390642715
99097.195911636998062
99088.519298166793305
99073.434571210949798
99058.720717139076442
99050.772363081210642
99052.892737310437951
99064.115824095861171
99079.990009246888803
99209.443672997644171
99194.531427062785951
99178.047670882180682
99161.415026214715908
99146.13853920980182
99133.646335338082281
99125.179709057076252
99121.568783504233579
99123.018163324115449
99129.197615781376953
99139.444651213954785
99152.837292594558676
99168.188395660472452
99184.113138956556213
99199.244213754078373
99212.341392018075567
99222.449225312375347
99228.985663356230361
99231.82801818959706
99231.329204854802811
99228.230092242811224
98944.110677329896134
98972.301304781649378
99006.327151280493126
99035.925272940876312
99053.391012194639188
99055.111470390271279
99043.751933501349413
99026.71487865706149
99011.37705241770891
99001.275204455261701
98995.233562771012657
98990.078919362626038
98983.839448368671583
98977.738972837774782
98975.398481868862291
98979.827235109492904
98990.89916744576476
99004.130998333057505
99014.710582364845322
99020.115868696593679
99021.024260481353849
99021.074540381305269
99024.251077186170733
99032.67498993605841
99046.193464728959952
99061.330349941534223
99073.125540628519957
99077.098165953982971
99072.03270759517909
99060.788389628112782
99049.151736115585663
99043.511354330767062
99047.380269425368169
99059.864980103535345
99193.075622169286362
99174.81619654550741
99156.64313611840771
99140.125389688269934
99126.601490798435407
99117.117020198871614
99112.371313308060053
99112.60475938966556
99117.536426560414839
99126.529188818647526
99138.786796811109525
99153.360149455067585
99169.02636170493497
99184.335161728813546
99197.8346246592846
99208.40286518810899
99215.371276644757017
99218.606794794002781
99218.462680492113577
99215.81796686888265
98955.881156306248158
98994.119047604152001
99034.760317561434931
99066.673033419443527
99081.207031511381501
99076.308624674245948
99056.877568643467384
99032.037018527946202
99010.14879493736953
98995.654526129772421
98987.97040067834314
98983.455020370514831
98978.625422361626988
98973.9245669930242
98971.95273863642069
98976.908156908248202
98989.979984661345952
99008.94912011057022
99027.72414877564006
99041.153018526631058
99045.988121578790015
99043.067197503391071
99036.882144459552364
99033.00724008808902
99035.023192809981992
99042.434511396189919
99051.435581919984543
99056.671669893083163
99055.181448792733136
99048.131900108855916
99040.151655850277166
99037.053656130825402
99042.215910394486855
99054.700886150472797
99194.269119319113088
99176.55374125787057
99158.805154332760139
99142.456554214775679
99128.546187547020963
99117.754239793066517
99110.559695063202525
99107.343802018629503
99108.336481154212379
99113.439757510481286
99122.217584017460467
99133.967030639236327
99147.728979598439764
99162.203289675220731
99175.826947805981035
99187.13090239824669
99195.09982457847218
99199.478832255234011
99200.655225692666136
99199.624304601165932
99020.595741969795199
99057.773064784210874
99083.345532290608389
99091.661759839873412
99081.88371416334121
99059.090797376135015
99032.072544857976027
99009.026893850052147
98994.31015360901074
98988.078690475042094
98986.275198394083418
98985.027629408970824
98983.288589862044319
98983.069605287193554
98987.650083491345868
98999.4717194041732
99018.038905235211132
99038.579105462136795
99054.937155312625691
99062.323336186876986
99059.165417088152026
99048.671113657343085
99037.316483938091551
99030.735690286455792
99031.423870583006646
99036.683985660391045
99041.33767981971323
99041.759538657395751
99037.758035241800826
99033.03633084424655
99031.704415921049076
99036.600139881076757
99182.313571356178727
99166.220895503880456
99150.356733419932425
99135.507913626133814
99122.250414897323935
99111.122157651218004
99102.755032354558352
99097.870725984976161
99097.103337337117409
99100.700079504022142
99108.361399756613537
99119.256841009075288
99132.120003637217451