/*--------------------------------*- C++ -*----------------------------------*\
  =========                 |
  \\      /  F ield         | OpenFOAM: The Open Source CFD Toolbox
   \\    /   O peration     | Website:  https://openfoam.org
    \\  /    A nd           | Version:  12
     \\/     M anipulation  |
\*---------------------------------------------------------------------------*/
FoamFile
{
    format      ascii;
    class       volScalarField;
    location    "0.0165";
    object      pPrime2Mean;
}
// * * * * * * * * * * * * * * * * * * * * * * * * * * * * * * * * * * * * * //

dimensions      [2 -2 -4 0 0 0 0];

internalField   nonuniform List<scalar> 
106891
(
687242.30024719238281
686585.6963939666748
685919.52857398986816
685246.04755020141602
684570.89263153076172
683898.99728965759277
683236.77032279968262
682585.11536598205566
681946.23118209838867
681316.8433780670166
680692.77009963989258
952420.60350799560547
951465.19534111022949
950511.56475830078125
949561.04224395751953
948616.17419815063477
947677.38261032104492
946741.64524269104004
945803.6278133392334
944859.61578750610352
943910.65077209472656
942960.81277275085449
942013.98629188537598
941072.41087341308594
940136.80122375488281
939205.17660522460938
938272.91187286376953
937336.02025032043457
936394.08622360229492
935450.49461364746094
934512.59557914733887
933589.93227005004883
932688.80533218383789
931809.19915771484375
930946.38247299194336
930095.29543495178223
929253.17184066772461
928418.88652801513672
927590.64086532592773
926765.20482635498047
925938.19712448120117
925103.64182281494141
924256.46417999267578
923396.09749221801758
922527.45281982421875
921656.63870048522949
920787.66595077514648
919921.49280548095703
919057.00126266479492
692355.22098159790039
691663.73037528991699
690978.94320297241211
690302.02107810974121
689634.37371635437012
688976.95901489257812
688329.21931648254395
687688.39317893981934
687049.4819393157959
686406.61020278930664
685754.76983833312988
685092.19500160217285
684420.25374031066895
683744.08316993713379
683068.59772872924805
682400.50874328613281
681741.59857368469238
681095.03575706481934
680458.60764122009277
679828.3381233215332
951324.69255828857422
950369.9765453338623
949418.39804649353027
948472.26085472106934
947533.29439353942871
946599.95011901855469
945667.74060821533203
944732.87258720397949
943795.46072387695312
942858.78644371032715
941926.35646057128906
941000.05075836181641
940080.71183967590332
939165.91567993164062
938249.79575347900391
937327.05181694030762
936397.14599800109863
935464.7781982421875
934538.97321128845215
933628.72797012329102
932738.68604278564453
931867.71937370300293
931011.49651908874512
930166.07906150817871
929328.79787826538086
928497.63389205932617
927670.29103660583496
926843.85424995422363
926013.97761535644531
925174.27717781066895
924318.51688957214355
923444.37053680419922
922556.36253929138184
921663.4190788269043
920773.93757057189941
919892.3489818572998
691571.12190437316895
690874.19597244262695
690181.91857528686523
689494.98538970947266
688815.39168357849121
688145.47988891601562
687486.364990234375
686836.68471717834473
686192.27245712280273
685547.51000213623047
684897.10041046142578
684238.42354011535645
683571.58922386169434
682900.2411003112793
682227.96225166320801
681560.64301490783691
680899.96711540222168
680249.89993858337402
679609.42158317565918
678977.00165748596191
951286.4680004119873
950322.27400779724121
949359.83690071105957
948401.7727222442627
947451.51422500610352
946509.78677940368652
945573.59013557434082
944639.21907806396484
943706.37548637390137
942777.3997974395752
941854.09658241271973
940937.3551197052002
940027.97896385192871
939124.54960632324219
938221.6566104888916
937313.19344329833984
936397.90521049499512
935481.20868682861328
934572.19289970397949
933678.2517261505127
932802.0302619934082
931941.4124698638916
931092.55703544616699
930252.21870231628418
929417.83091735839844
928586.71111297607422
927756.40510177612305
926923.89988327026367
926085.08446311950684
925235.15232849121094
924368.40632247924805
923481.20780944824219
922576.34372138977051
921663.91670227050781
920755.89022636413574
919859.63954544067383
690100.96099472045898
689404.2522144317627
688712.632568359375
688026.81687164306641
687348.33582305908203
686678.27389144897461
686016.20746040344238
685359.73218154907227
684705.03604507446289
684048.23241806030273
683387.07588195800781
682721.37833213806152
682053.50358581542969
681385.9964656829834
680722.9817008972168
680065.91691017150879
679417.02318954467773
678776.30917167663574
678139.28842544555664
950412.04595947265625
949430.41131782531738
948451.3892707824707
947480.50979804992676
946521.58425331115723
945573.77761459350586
944633.86822319030762
943700.6748046875
942774.81619262695312
941856.3107852935791
940945.33679580688477
940042.72356796264648
939148.04046440124512
938257.10014343261719
937364.31514930725098
936468.30831718444824
935573.76544761657715
934687.47519874572754
933813.65810012817383
932952.6462516784668
932101.91141700744629
931258.08849906921387
930418.5504207611084
929581.34341812133789
928745.05472564697266
927907.79198455810547
927066.11795997619629
926216.36373329162598
925355.13800430297852
924477.71839332580566
923579.79094505310059
922662.09817886352539
921734.25582122802734
920810.10905075073242
690115.58040237426758
689400.42321014404297
688695.04584693908691
687998.11196708679199
687308.81488609313965
686626.79384994506836
685951.6689624786377
685282.59726715087891
684617.8941593170166
683955.14758682250977
683291.92105865478516
682626.85775375366211
681960.02329063415527
681293.28401947021484
680628.66419219970703
679969.52103042602539
679317.55448722839355
678674.66493797302246
678041.89649963378906
677413.92010307312012
950654.78356742858887
949651.54532432556152
948650.02724838256836
947655.83707809448242
946674.73843002319336
945708.55582046508789
944756.47960090637207
943817.2816104888916
942890.04326248168945
941973.64032745361328
941067.23125648498535
940170.7181396484375
939283.66903495788574
938403.61529922485352
937527.21542549133301
936653.70371055603027
935786.02779006958008
934927.41326522827148
934078.29892730712891
933236.31159019470215
932397.81522750854492
931559.14822006225586
930717.97466468811035
929874.89382171630859
929031.80129623413086
928188.45342445373535
927341.15389251708984
926485.30916595458984
925617.19694328308105
924732.51681900024414
923826.36086845397949
922898.45246124267578
921957.95315361022949
688865.29726028442383
688146.62324714660645
687439.08012580871582
686741.94021415710449
686054.0716381072998
685374.16489028930664
684700.97429847717285
684033.07555198669434
683368.74994659423828
682706.06536865234375
682043.82847023010254
681381.58071136474609
680720.51184272766113
680061.47290229797363
679407.51054191589355
678759.62314605712891
678121.0575122833252
677491.83808517456055
676869.43199729919434
950035.69459533691406
949011.46113204956055
947993.52187156677246
946988.61444282531738
946000.95602989196777
945031.67820358276367
944080.12695693969727
943145.30682945251465
942226.55386924743652
941323.26176261901855
940433.97236442565918
939556.25348854064941
938687.82660675048828
937827.2613697052002
936974.82840347290039
936132.9074878692627
935302.54913139343262
934481.06836128234863
933662.26423454284668
932840.12010383605957
932010.6428050994873
931173.09782028198242
930330.71686553955078
929488.03302764892578
928645.98217964172363
927800.06923484802246
926943.89174842834473
926072.22878265380859
925181.32925605773926
924268.2332649230957
923333.92785453796387
922386.76360893249512
688514.61578178405762
687788.24420547485352
687072.98954200744629
686368.34993362426758
685673.3753490447998
684987.22002220153809
684309.48516654968262
683639.6794376373291
682976.68169784545898
682318.55246353149414
681663.56678199768066
681010.48587417602539
680359.44001388549805
679710.17080688476562
679064.40357208251953
678422.01755714416504
677785.21692848205566
677153.5582103729248
676524.24811172485352
949431.02300643920898
948387.28779220581055
947356.60870933532715
946345.8881664276123
945357.79653930664062
944391.47713088989258
943445.24755668640137
942518.50022888183594
941611.26203918457031
940722.229248046875
939847.95495223999023
938985.62445449829102
938135.25295257568359
937298.72883224487305
936477.77681159973145
935671.3029613494873
934873.66793632507324
934076.25748252868652
933272.15400505065918
932458.36334228515625
931635.99388694763184
930808.26199913024902
929978.31709861755371
929146.1523323059082
928307.35515403747559
927455.32063293457031
926584.8290843963623
925692.98883438110352
924778.88322639465332
923844.88956069946289
687622.98249244689941
686903.53152847290039
686193.77900505065918
685493.78961563110352
684803.67946624755859
684123.53746604919434
683453.01285171508789
682790.98723030090332
682135.61588859558105
681485.14352035522461
680838.25478553771973
680194.5803165435791
679553.59011268615723
678915.9199104309082
678281.3092041015625
677650.15451049804688
677022.46234512329102
676393.12890434265137
948869.84447288513184
947810.32675743103027
946773.88849639892578
945764.68712425231934
944781.97159767150879
943822.31112098693848
942883.73562622070312
941966.05592727661133
941068.70320701599121
940189.10389709472656
939325.41450691223145
938477.95611190795898
937648.33975219726562
936837.26505470275879
936042.49752807617188
935257.15647125244141
934472.00097465515137
933680.91711616516113
932883.16969871520996
932080.1558723449707
931272.84794425964355
930460.83274269104004
929641.5161304473877
928810.32896995544434
927962.36448669433594
927094.15619468688965
926204.31741714477539
925293.34332275390625
687672.74832916259766
686949.47808456420898
686235.29911804199219
685531.08260154724121
684837.50787734985352
684154.71130752563477
683481.96081924438477
682817.72066116333008
682160.11012077331543
681507.67733383178711
680859.60250663757324
680215.84982299804688
679576.16531562805176
678940.91620635986328
678309.68451881408691
677681.88253021240234
677057.26728057861328
676430.22859382629395
948479.66128158569336
947417.55767059326172
946385.74435234069824
945383.74431037902832
944407.77345085144043
943455.46579551696777
942526.91364669799805
941620.8039665222168
940734.501708984375
939866.30283355712891
939017.02236366271973
938187.99259185791016
937380.3947868347168
936592.09251594543457
935815.64208602905273
935040.93043899536133
934261.38525390625
933476.87638664245605
932689.17705154418945
931897.26128005981445
931097.49225807189941
930286.06035804748535
929459.41219139099121
928615.17077255249023
927752.06697273254395
926868.67620277404785
925964.26726913452148
687265.04422187805176
686544.84976005554199
685834.97833442687988
685136.07377815246582
684447.41549491882324
683767.26983451843262
683093.63873291015625
682424.97979164123535
681760.81010055541992
681101.21763038635254
680446.90781021118164
679798.16872024536133
679155.65252304077148
678518.98368644714355
677887.22724151611328
677259.56515312194824
676630.65080833435059
950405.20494079589844
949302.24760055541992
948222.84058570861816
947173.00312042236328
946155.25625610351562
945168.15007781982422
944209.84035301208496
943279.02986907958984
942373.39548110961914
941489.04744338989258
940622.75268363952637
939773.47601509094238
938943.49793434143066
938135.89305877685547
937350.95347595214844
936582.2398738861084
935819.23616218566895
935053.52357292175293
934282.43957138061523
933507.03195190429688
932726.81195831298828
931937.78147506713867
931134.99899864196777
930315.76997184753418
929479.17308235168457
928624.18344879150391
927748.71878623962402
687109.48567771911621
686396.6991138458252
685693.25157737731934
684997.40266036987305
684306.93985939025879
683620.05955505371094
682935.85627746582031
682254.2697639465332
681575.55369758605957
680900.24407196044922
680228.95674514770508
679562.80368614196777
678902.96842956542969
678249.06127166748047
677601.43421173095703
676953.98401832580566
950991.03510093688965
949893.07719802856445
948819.06343078613281
947772.08850860595703
946754.03707885742188
945766.03980255126953
944808.62762832641602
943882.33733177185059
942984.82999229431152
942109.35647583007812
941247.98277854919434
940397.47635269165039
939561.2285099029541
938745.21884536743164
937952.30908393859863
937177.69640350341797
936411.74593544006348
935645.65524101257324
934875.07598876953125
934098.74148178100586
933315.58262825012207
932523.23486328125
931718.89231300354004
930900.20546531677246
930064.96387672424316
929210.41650009155273
928333.89532470703125
927433.84253692626953
686937.0285587310791
686228.89265060424805
685526.42709922790527
684827.36670875549316
684130.03566741943359
683433.56461906433105
682737.79124450683594
682042.73720169067383
681348.86635208129883
680656.87285041809082
679968.47955894470215
679285.63564300537109
678609.26328277587891
677940.1998291015625
677273.75821876525879
950535.92777442932129
949471.74694633483887
948432.90117645263672
947419.09173774719238
946431.56427955627441
945472.88942527770996
944544.7376880645752
943644.65704154968262
942764.87944030761719
941896.03083801269531
941033.7851676940918
940181.92809104919434
939347.73259925842285
938535.29706001281738
937741.88958358764648
936959.37825012207031
936179.26850509643555
935396.04530334472656
934607.35345458984375
933812.11943435668945
933009.11073875427246
932196.18826103210449
931370.32484245300293
930527.49573516845703
929664.22704315185547
928778.31731605529785
927869.26104164123535
686920.92661094665527
686210.27755546569824
685502.78022193908691
684796.62221336364746
684090.59294509887695
683384.18795776367188
682677.06360626220703
681969.47704124450684
681261.77742576599121
680555.80547142028809
679853.60530471801758
679156.93621444702148
678466.33675003051758
677778.03697204589844
950267.60167503356934
949229.26559638977051
948212.10770034790039
947218.79949760437012
946253.19713973999023
945315.97827529907227
944403.20244216918945
943506.90316581726074
942618.46247482299805
941734.09326362609863
940857.21965026855469
939994.8431282043457
939151.66282844543457
938326.99617385864258
937515.16539764404297
936708.73477935791016
935901.91977119445801
935091.63385200500488
934276.57038497924805
933455.38027191162109
932625.84652900695801
931784.67461967468262
930927.9348258972168
930051.8099479675293
929154.08664321899414
928235.04335594177246
687024.3079719543457
686306.21737861633301
685589.43410682678223
684872.42143058776855
684154.36600494384766
683434.88738632202148
682713.98224258422852
681991.78147506713867
681269.6274471282959
680549.76810455322266
679833.88128852844238
679123.59563636779785
678414.56647491455078
950140.12798690795898
949112.93978691101074
948107.59593391418457
947127.96746635437012
946173.67390823364258
945239.97645568847656
944319.53592300415039
943405.17964363098145
942494.16625213623047
941589.44424247741699
940697.08902168273926
939821.27260208129883
938962.42588043212891
938117.15174865722656
937279.95599937438965
936445.93597602844238
935611.82209396362305
934775.33487319946289
933934.55382537841797
933086.54516220092773
932228.47552108764648
931357.90085792541504
930471.54364204406738
929566.21198272705078
928640.68575859069824
687243.87879753112793
686517.28771591186523
685790.02082633972168
685061.06691360473633
684330.09701538085938
683596.96971702575684
682861.50153923034668
682124.62170219421387
681388.6590690612793
680655.85820388793945
679928.85544395446777
679203.39274597167969
950129.95695686340332
949106.8173656463623
948108.13375473022461
947132.59199523925781
946174.66355323791504
945228.07880401611328
944287.77068519592285
943351.75861930847168
942422.08748435974121
941503.16756057739258
940598.55828475952148
939709.17610931396484
938833.45764541625977
937968.61563301086426
937110.87277221679688
936255.9707202911377
935399.90612602233887
934539.76216316223145
933673.43644714355469
932799.43707656860352
931916.59825897216797
931021.99797821044922
930110.63793754577637
929179.71076583862305
950185.57168388366699
949164.63580322265625
948166.48825073242188
947185.96796417236328
946216.5781364440918
945253.80041313171387
944295.83471298217773
943344.18387413024902
942402.06740570068359
941472.08536529541016
940555.56268692016602
939652.99809265136719
938763.82382202148438
937885.32484817504883
937012.35726356506348
936139.63735771179199
935263.63647079467773
934382.70575523376465
933496.22637748718262
932602.98828506469727
931699.62398529052734
930780.38678550720215
929842.17650032043457
949315.76817893981934
948312.55559921264648
947321.22006797790527
946336.66971015930176
945356.74813079833984
944382.60739707946777
943416.90066146850586
942462.24753952026367
941520.96267890930176
940594.73573875427246
939683.65434455871582
938785.09820556640625
937893.68955993652344
937003.78714179992676
936112.01670455932617
935217.39632987976074
934319.17141342163086
933414.59028244018555
932498.50830078125
931565.78753471374512
930614.82465934753418
946488.41431427001953
945488.02571487426758
944495.58661270141602
943515.09661483764648
942549.38603591918945
941599.99581718444824
940666.9163932800293
939748.01830291748047
938838.23681831359863
937931.88788032531738
937025.72433662414551
936118.45796203613281
935207.37942695617676
934287.21297645568848
933352.23096656799316
932399.49184799194336
931430.74123001098633
943613.96384239196777
942643.45671081542969
941688.86178398132324
940748.16872596740723
939818.06836318969727
938894.4276008605957
937973.61433982849121
937052.21873664855957
936125.50524139404297
935187.07157897949219
934231.20380020141602
933256.56789207458496
932267.68195724487305
943684.12301826477051
942710.53332901000977
941751.32407760620117
940804.24742317199707
939865.43915748596191
938930.30184555053711
937993.62922096252441
937049.42477226257324
936091.3406925201416
935115.02680778503418
934120.9631175994873
933114.82097053527832
1047505.0089168548584
1046622.4276847839355
1045759.613597869873
1044899.5099849700928
1044028.603515625
1043138.0276298522949
1042222.2148132324219
1041277.4915924072266
1040301.6140422821045
1039294.4194316864014
1038257.9374809265137
1037195.4346160888672
1036111.0169906616211
1035010.2877140045166
1033901.1578235626221
1032793.312744140625
1031694.9349708557129
1030609.9340267181396
1029537.4440689086914
1028474.1947212219238
1049598.152904510498
1048682.9734954833984
1047801.0974235534668
1046937.6303119659424
1046075.2043857574463
1045199.6160659790039
1044301.4185752868652
1043374.6260833740234
1042414.8869705200195
1041419.43581199646
1040387.9591941833496
1039323.6444492340088
1038231.7191753387451
1037118.7144680023193
1035992.5590667724609
1034862.9506015777588
1033739.609525680542
1032629.3215827941895
1031534.1885223388672
1030452.4059925079346
1029380.6255016326904
1028317.822660446167
1052653.5974311828613
1051664.615177154541
1050712.067497253418
1049797.4815673828125
1048914.6993541717529
1048048.9221019744873
1047182.5104026794434
1046300.9065532684326
1045393.9396343231201
1044454.9501113891602
1043479.3326416015625
1042464.0109310150146
1041408.9444942474365
1040317.698860168457
1039196.9095973968506
1038055.4938488006592
1036904.2143878936768
1035754.327808380127
1034615.6074104309082
1033493.7130947113037
1032389.2545223236084
1031299.634298324585
1030221.7055225372314
1029154.9346294403076
1028103.1377601623535
1027072.3228092193604
1054698.2346839904785
1053677.410701751709
1052690.6172275543213
1051738.0315017700195
1050821.7978610992432
1049936.1365699768066
1049066.1828022003174
1048194.3426818847656
1047305.2503890991211
1046388.024242401123
1045435.9834251403809
1044444.116418838501
1043409.0153923034668
1042331.1235389709473
1041214.9978313446045
1040068.7792472839355
1038903.0592823028564
1037730.1729793548584
1036562.8090171813965
1035411.0869979858398
1034279.4428882598877
1033166.7067680358887
1032069.3846549987793
1030984.7007141113281
1029913.3432273864746
1028860.1457443237305
1027830.7495136260986
1026828.0800495147705
1056663.9253101348877
1055605.6372489929199
1054587.5935955047607
1053601.315502166748
1052647.4320640563965
1051728.3810653686523
1050838.8844909667969
1049964.310396194458
1049086.7675113677979
1048190.3247528076172
1047263.4377117156982
1046299.0416164398193
1045292.1282901763916
1044239.3544826507568
1043141.1527423858643
1042002.6669826507568
1040832.9557552337646
1039644.4879322052002
1038451.6609535217285
1037268.6497631072998
1036105.7818565368652
1034966.0303821563721
1033846.7999839782715
1032743.9895153045654
1031655.0292530059814
1030580.9888935089111
1029526.7349681854248
1028497.6062240600586
1027495.5839805603027
1026519.7352466583252
1058539.4094142913818
1057432.6292133331299
1056379.0170078277588
1055363.4529838562012
1054377.1798095703125
1053421.2058162689209
1052498.8793983459473
1051605.1600666046143
1050725.4208278656006
1049841.7129554748535
1048937.5454216003418
1048000.962532043457
1047024.8353214263916
1046004.248779296875
1044936.0836639404297
1043821.1071434020996
1042664.7922077178955
1041476.6941795349121
1040270.2055950164795
1039061.364803314209
1037865.7359180450439
1036693.7520065307617
1035547.5129013061523
1034423.0424900054932
1033315.5849170684814
1032222.5968608856201
1031145.9232349395752
1030091.131742477417
1029062.8699855804443
1028062.1308708190918
1027087.2505321502686
1026137.7430324554443
1059146.0106163024902
1058044.0163230895996
1056993.3186073303223
1055978.8284435272217
1054991.9152679443359
1054033.8255290985107
1053108.114652633667
1052210.0967845916748
1051325.6254081726074
1050436.7187099456787
1049526.4224739074707
1048582.2086734771729
1047596.7627620697021
1046565.155725479126
1045484.3679237365723
1044355.420373916626
1043184.2432403564453
1041981.0701217651367
1040760.2591514587402
1039538.8062877655029
1038333.1427307128906
1037154.172025680542
1036003.2441291809082
1034875.2433986663818
1033764.7465915679932
1032669.3233013153076
1031591.0186004638672
1030535.5575733184814
1029507.5879230499268
1028507.4808330535889
1027533.0754566192627
1026583.8732395172119
1025665.4058799743652
1120752.4297637939453
1119168.7369155883789
1117601.7922840118408
1116069.7763366699219
1114573.8267211914062
1113112.8795986175537
1059568.9902000427246
1058470.1538867950439
1057421.3360614776611
1056407.5836410522461
1055420.0661563873291
1054460.0569553375244
1053531.476490020752
1052629.9238109588623
1051741.4716835021973
1050848.0570316314697
1049932.4751243591309
1048981.9671611785889
1047989.148063659668
1046949.4524154663086
1045860.0501956939697
1044722.1007957458496
1043541.6945705413818
1042329.114538192749
1041098.933422088623
1039868.8691082000732
1038656.3186435699463
1037472.5429267883301
1036318.5186176300049
1035188.2554054260254
1034075.8888721466064
1032978.8637638092041
1031899.4808006286621
1030843.8085994720459
1029816.2793312072754
1028816.7694683074951
1027842.7541904449463
1026893.7961463928223
1025975.7385520935059
1025099.8968925476074
1122737.1127281188965
1121158.1501598358154
1119558.5335502624512
1117977.4268894195557
1116432.9075241088867
1114925.5824127197266
1113454.0772933959961
1059791.2460842132568
1058693.703592300415
1057645.6489906311035
1056631.9897117614746
1055643.9044857025146
1054682.7406539916992
1053752.4490146636963
1052848.8638782501221
1051958.268892288208
1051062.5094509124756
1050144.2389850616455
1049190.4958324432373
1048193.8107719421387
1047149.7436428070068
1046055.5811309814453
1044912.5769271850586
1043726.8916778564453
1042509.0424365997314
1041273.8608016967773
1040039.3914585113525
1038823.3617000579834
1037637.254264831543
1036481.8479175567627
1035350.6160488128662
1034237.3694248199463
1033139.5577030181885
1032059.6860637664795
1031003.8567314147949
1029976.4770278930664
1028977.3230457305908
1028003.5117454528809
1027054.606538772583
1026136.7097053527832
1025261.2755908966064
1024435.3312015533447
669755.27385711669922
669074.53774261474609
668392.4025936126709
667711.2332763671875
667034.85922431945801
666364.8550968170166
665704.1192741394043
665050.58953094482422
664404.71348762512207
663762.68313407897949
663120.6410961151123
935880.3435115814209
934877.44461250305176
933881.96148490905762
932888.00385093688965
931892.37497329711914
930896.28300666809082
929902.13347625732422
928910.72375869750977
927921.24053382873535
926932.71255111694336
925945.36954498291016
924961.58566665649414
923984.59638214111328
923016.1037483215332
922056.94952774047852
921108.21229362487793
920170.08707237243652
919241.95121383666992
918323.5796947479248
917417.38271141052246
916526.81144332885742
915653.54315948486328
914795.47643852233887
913948.56642723083496
913110.6103687286377
912282.67483139038086
911466.55198287963867
910659.53609085083008
909854.88425254821777
909045.52980422973633
908227.48305511474609
907400.18297958374023
906564.60738754272461
905721.78349304199219
904871.89917755126953
904014.29313468933105
675844.17507934570312
675131.50716018676758
674422.75579452514648
673718.29741096496582
673019.2670726776123
672326.55932998657227
671640.09501266479492
670958.68473052978516
670280.46705055236816
669603.31707954406738
668925.52776908874512
668246.21647071838379
667566.09613609313965
666886.58175086975098
666210.36744117736816
665538.50974464416504
664873.6850643157959
664214.83094215393066
663563.34228324890137
662917.3144416809082
662273.51555824279785
935868.71809196472168
934852.85442543029785
933848.80611228942871
932848.36788940429688
931846.85233879089355
930846.58367538452148
929853.22509574890137
928868.7706356048584
927890.34584808349609
926912.9385986328125
925934.00031852722168
924956.15743637084961
923985.44772720336914
923026.76776504516602
922082.15924453735352
921151.58923149108887
920232.43037414550781
919321.01920890808105
918415.85214042663574
917519.85532379150391
916638.61758422851562
915775.81193161010742
914929.5842342376709
914093.41470718383789
913261.83319091796875
912434.06780815124512
911611.93517112731934
910794.32011413574219
909976.69186401367188
909153.57946014404297
908321.4350757598877
907478.91110992431641
906626.12826347351074
905763.99921226501465
904893.01598739624023
904013.09315299987793
675072.64638137817383
674354.16930389404297
673640.40586471557617
672931.64667129516602
672229.04054641723633
671533.5963077545166
670845.35886383056641
670163.27576446533203
669485.52477645874023
668809.88549041748047
668134.39948654174805
667457.84328079223633
666780.42100524902344
666102.98910331726074
665427.52345085144043
664754.87682151794434
664087.73543167114258
663425.88892364501953
662771.36174011230469
662123.17997360229492
661477.4232349395752
935010.53840637207031
934000.13189315795898
932993.19800186157227
931984.00386619567871
930978.03127288818359
929985.62735939025879
929010.81140518188477
928047.8000545501709
927085.93121719360352
926118.50141525268555
925148.41985130310059
924185.50632095336914
923238.86159324645996
922311.51511573791504
921401.02541160583496
920501.3545036315918
919605.91470146179199
918711.98883056640625
917823.30274391174316
916948.57123565673828
916094.14290237426758
915258.13342094421387
914430.62262535095215
913601.27679634094238
912766.24505233764648
911927.26264762878418
911087.19792366027832
910245.99330711364746
909401.49433708190918
908550.44575309753418
907689.28729820251465
906815.5584659576416
905929.19933891296387
905031.91444206237793
673613.34840393066406
672893.38191986083984
672179.56273460388184
671473.3781909942627
670776.02413558959961
670087.64733123779297
669407.11843299865723
668732.34797286987305
668060.61165809631348
667389.27436637878418
666716.41715049743652
666041.7071647644043
665365.9052562713623
664691.30552673339844
664019.44878005981445
663353.759033203125
662694.75632858276367
662044.96851348876953
661403.42005348205566
660766.08810424804688
935242.25728607177734
934230.35140800476074
933222.23544502258301
932212.66835784912109
931209.64262580871582
930226.00771522521973
929266.68535995483398
928323.89031791687012
927383.06461143493652
926434.48157501220703
925480.8109073638916
924534.26629066467285
923606.68423652648926
922702.0666561126709
921815.89139556884766
920938.65387916564941
920060.91361427307129
919179.09075927734375
918298.72443771362305
917431.88951683044434
916587.27897071838379
915761.72262573242188
914941.30404472351074
914111.14132499694824
913264.84765815734863
912405.42226791381836
911540.10136032104492
910673.95653343200684
909807.16490173339844
908935.34267044067383
908052.18169975280762
907153.30798530578613
906238.77780342102051
905312.47268867492676
672938.68522453308105
672210.98140144348145
671490.99883460998535
670781.01152610778809
670082.39436340332031
669395.0765266418457
668717.4426212310791
668046.75338554382324
667379.6158390045166
666712.76421928405762
666043.73125839233398
665371.76112174987793
664697.48137664794922
664023.47800636291504
663352.31014633178711
662688.63532638549805
662034.22882652282715
661391.99681854248047
660760.40408706665039
660133.98203277587891
934510.68925094604492
933501.00832366943359
932493.22723770141602
931496.57052230834961
930523.18128204345703
929576.88556480407715
928649.9025707244873
927727.90612983703613
926801.00796699523926
925871.07073211669922
924949.66072463989258
924048.9959659576416
923172.9631290435791
922315.40671920776367
921464.00776290893555
920606.92585372924805
919740.09545707702637
918871.32230949401855
918015.51978492736816
917182.08172035217285
916365.64762115478516
915549.25158500671387
914715.35913848876953
913857.03507995605469
912979.4167308807373
912093.08330726623535
911205.68083000183105
910317.36611366271973
909422.52613258361816
908514.39304733276367
907589.60936737060547
906649.41452980041504
671648.07520866394043
670922.31535530090332
670208.58677864074707
669508.76477241516113
668822.46955490112305
668147.33138275146484
667479.7729663848877
666815.90964698791504
666152.35104942321777
665486.79123878479004
664818.56627655029297
664148.37494277954102
663478.65155029296875
662812.06957626342773