/*--------------------------------*- C++ -*----------------------------------*\
  =========                 |
  \\      /  F ield         | OpenFOAM: The Open Source CFD Toolbox
   \\    /   O peration     | Website:  https://openfoam.org
    \\  /    A nd           | Version:  12
     \\/     M anipulation  |
\*---------------------------------------------------------------------------*/
FoamFile
{
    format      ascii;
    class       volScalarField;
    location    "0.0165";
    object      rho;
}
// * * * * * * * * * * * * * * * * * * * * * * * * * * * * * * * * * * * * * //

dimensions      [1 -3 0 0 0 0 0];

internalField   nonuniform List<scalar> 
106891
(
1.1494340370115900818
1.1493436591747485664
1.1492659218732184101
1.1491974460650444811
1.149137801658335567
1.1490789435936887841
1.1490176408580063949
1.1489521526678858621
1.1488759150935363706
1.1487951297370111448
1.1487048990309263186
1.1533876630279427111
1.1536267613814268351
1.1538449186992445483
1.1540057440772397701
1.1540987145969805461
1.1541403120615261191
1.1541688068644071485
1.1542253174513934511
1.1543277453549245504
1.1544565932010002474
1.1545558848825321352
1.1545693897951343487
1.1544776792887472272
1.154319018147877296
1.1541722611675437893
1.1541170258000452709
1.1541923087232017764
1.1543764897217372312
1.1546119451736238659
1.1548537719383256128
1.1550909029163729524
1.1553414088233444623
1.1556154893518888471
1.1558937281905732331
1.1561269985985960229
1.1562655450084566855
1.1562887417147524882
1.156217492080717113
1.1560994204784658113
1.1559763522943207192
1.1558788961530723771
1.1558217756723085934
1.1558059796140216502
1.1558230565806841827
1.1558599411482042285
1.1558954661605866931
1.1559085474317898345
1.1558911189679830223
1.1492557784046866232
1.1494605909670778665
1.1496295160836322857
1.149741123888095462
1.1497830362234715551
1.1497546500943232051
1.149665430924055709
1.1495333905978295519
1.1493796770911119953
1.1492270040487551075
1.149091299651450182
1.1489843813998132926
1.1489067964385228926
1.1488574579893588989
1.1488277887982709657
1.1488072465241021547
1.1487906468929462989
1.1487621169271768906
1.1487260956178086957
1.1486701814424413737
1.1535761136548581263
1.1537178343481648835
1.153819941844039354
1.1538878242013062003
1.1539404278173406304
1.1540043295841053705
1.1541052442600354677
1.1542462368915884507
1.1544016103232552783
1.1545146215741841633
1.1545292271510718685
1.1544329759999834017
1.1542716914065322964
1.1541291598485725611
1.1540878479264580214
1.1541817778686096485
1.1543837094828097722
1.1546265920589884324
1.1548605984785018652
1.1550772056248415076
1.1553038259823231737
1.1555650935958887704
1.155846415087566692
1.1561011767782589654
1.1562711370929232846
1.1563238211162585323
1.1562691671705427332
1.1561481510825104557
1.156007130251286652
1.1558814463903690495
1.1557955052796837769
1.1557616737429845521
1.1557764486381421065
1.1558296993185859236
1.1558970189917150417
1.1559481418163661814
1.149044313798919692
1.1492597829637818396
1.1494468219187821134
1.1495820686862965321
1.149649500996139162
1.149643458383418082
1.1495690197664978349
1.1494419925017860251
1.1492832092518379117
1.1491166214466959072
1.1489618622956765392
1.1488356088279085832
1.1487443169894449024
1.1486905074233024759
1.1486698808700208652
1.1486719699536025452
1.1486918171320197324
1.1487098898710497163
1.1487274835034411158
1.148724184487590394
1.1535611111601369316
1.1535660939618377352
1.1535732529539197699
1.1536080160980874965
1.1536879580485119856
1.1538190700846462367
1.1539964053800806365
1.1541990270058244406
1.1543873807250333297
1.1545150619739819042
1.1545419446741378433
1.1544701278873468198
1.1543449891330572754
1.154245121721824141
1.1542407821391640343
1.1543578877605316091
1.154566515826811024
1.1548055090887334728
1.1550253197609037237
1.1552164036814431824
1.1554038878429964132
1.1556146379334111263
1.1558482734545494353
1.156069637074858214
1.1562266028425658426
1.1562860599137991802
1.1562497937326601249
1.1561458658726591064
1.1560152423702774183
1.1558989964264450023
1.1558198642335073547
1.1557924686825802318
1.1558225433631899026
1.1558983010074372899
1.1559962197726081357
1.1560776681931561605
1.1490994363707818238
1.1492757137066571538
1.1493994882208886654
1.1494557014966519937
1.149440438322002711
1.1493599634526174835
1.1492305928240078572
1.1490731484128307027
1.1489118915953582256
1.148766866206779369
1.1486544604752644272
1.1485808255983092074
1.1485458259491707622
1.1485443566652528968
1.1485638277705711996
1.1485996627673762394
1.1486332896677504678
1.1486638953964320997
1.1486774421803027657
1.1533867347834008132
1.1533319276326499114
1.1533664416007578524
1.1534970429949547022
1.1537058842617526899
1.1539538582400923339
1.1541933257866470175
1.1543788719710206259
1.1544777486636756958
1.1544842191279685029
1.1544212692985151847
1.1543364650493765922
1.1542880392055760996
1.1543203404247206478
1.1544437681608734625
1.1546330681742200674
1.1548459181389560957
1.1550437569682487915
1.1552178324636022122
1.155384207948670694
1.1555653206049647519
1.155767976179636447
1.1559732115032916866
1.1561392356869901743
1.1562347091364555407
1.1562433761521075937
1.1561819857469004535
1.1560830382978224407
1.1559799604686413765
1.1559035114984537174
1.1558741398453915572
1.1559013397687412095
1.1559799712547496053
1.156088147765287566
1.1485676564265363542
1.148763165983957002
1.1489446075834508498
1.1490869924972191285
1.1491707015170429251
1.1491861070622593211
1.1491338471914427366
1.1490257216122070627
1.1488795857218150331
1.148717852046575727
1.1485605146811399546
1.1484249163088839918
1.1483222192071391721
1.148255514417479306
1.1482275325482163009
1.1482268173222180963
1.148258481408377385
1.1483031847108005064
1.1483683203007613027
1.1484345559914670432
1.1532588862101849081
1.1531410994326372066
1.1531619041093306155
1.1533212401994163976
1.1535767736202990896
1.1538612954875764327
1.1541097947447738203
1.1542747233597865364
1.1543436062983183366
1.1543425616233535802
1.1543198740036266781
1.154322669940482049
1.154380553748546534
1.1545004923661994489
1.1546722125008810345
1.1548672242287743028
1.155059286696287657
1.1552280404851571483
1.1553680553550089716
1.1554884240683926944
1.1556101977262809299
1.1557516639864837682
1.1559106993240368944
1.156064850145967382
1.1561785841756402338
1.1562253759338116943
1.1562010270910605403
1.1561274900345019923
1.1560420059866010067
1.1559761391662939367
1.1559522090708087561
1.155987395781293614
1.1560770187812283716
1.1484688475092372784
1.148626968293706252
1.1487654834958254124
1.1488657966938786714
1.1489147082619359796
1.148905393104506345
1.1488392983767896638
1.1487244798154199188
1.1485756295051468001
1.1484097965951987064
1.148245774894878668
1.1481004129396483737
1.1479872590251509745
1.1479187397158303607
1.1478946169337143068
1.1479233781150106619
1.1479888279383656524
1.148095789966923741
1.1482144532687625915
1.1530986878920115313
1.1531113904225296363
1.153288151156901753
1.1535691803186778337
1.1538697320500048704
1.1541134426073345054
1.154253667735119171
1.1542902576269702397
1.1542689866304043367
1.1542527831797433358
1.1542943230932347642
1.154411466564173816
1.154590047265263264
1.1548016335636317464
1.1550162561769028446
1.1552097868407096293
1.155371839024262659
1.1554984169767854585
1.1555945559790814503
1.1556812681916113217
1.1557852917763467016
1.1559176623761582281
1.1560689694890495804
1.1562035408869981712
1.1562829036341206734
1.1562884643118738204
1.1562355616866311081
1.1561550894820633584
1.1560848006818298384
1.1560525452807923763
1.1560707475343392492
1.1561361059795309814
1.148406913982271238
1.1485084129734883795
1.1485918607848581985
1.1486482358026126604
1.1486710273994251708
1.1486561254858511649
1.1486035227083337684
1.1485164040581465894
1.1484024743741707564
1.1482716196976452405
1.148136719183650678
1.1480110290819209862
1.1479083667434064608
1.1478421411850148193
1.1478172977597882465
1.1478407639969625542
1.1479009000572784061
1.1479958858848464676
1.1480962512005623566
1.153219216680379855
1.1533917632634218542
1.153658743369723183
1.1539390567134715226
1.1541574181480518391
1.1542768835014054485
1.1543034095327355804
1.1542780366981635343
1.1542626137415092913
1.154304159255259643
1.1544259540831327548
1.1546156442896331473
1.154839436801186725
1.1550602079105896092
1.1552552248552587777
1.1554110535235022628
1.1555254479307259796
1.1556119343297042157
1.1556874413384956579
1.155776705951795158
1.1558974419808545342
1.1560409292999787034
1.1561737347620799632
1.1562565823793455877
1.1562720055822417464
1.1562316617935952667
1.1561675484718125784
1.1561120459424520934
1.1560881112857464004
1.1561014838448728792
1.148424875636357978
1.1484576273269939684
1.1484643877477462848
1.1484463694384547949
1.14840570818131682
1.1483459316630701963
1.148270001524890116
1.1481823799678849696
1.1480879515421720249
1.1479933222879525889
1.1479057601007607303
1.1478311860190490989
1.1477790189206571458
1.1477503676103075758
1.1477536074055398885
1.1477816984603819161
1.1478375194215264532
1.1479015222953163899
1.1536676517284563115
1.1538574321595105321
1.1540594987701422447
1.1542243253764103983
1.1543242830305129321
1.1543560622798523241
1.1543403498058038004
1.154315982123556461
1.1543297936454726127
1.1544132527665844634
1.1545678684900027022
1.154767842916642584
1.1549790394628198786
1.155173596193372676
1.1553355041937294345
1.155465369216691629
1.1555756133087828896
1.1556814364717873378
1.155797408704756668
1.1559278627853797339
1.1560594126389167613
1.1561647388752056553
1.156217990708533927
1.1562106236417943883
1.1561540017772471423
1.1560785242704938458
1.1560159096353459507
1.1559752944055736723
1.1482859888680383431
1.148318596703130412
1.1483272695612867231
1.1483109016324506424
1.1482697040500193797
1.1482063652456413472
1.1481235909739455625
1.1480262544663404345
1.1479196349361340257
1.1478108667299529166
1.1477086436700969507
1.1476201682077957766
1.1475561624685373108
1.1475182388219538065
1.1475153234591553009
1.1475406614210488243
1.1475981532590473488
1.1476685549689993326
1.1539433673989900608
1.1540608417929067997
1.1541759833268836477
1.1542705581780172697
1.154332339397649454
1.1543590465633537523
1.1543618796775989566
1.1543766999150519847
1.1544322511336724268
1.1545368467772267884
1.154676220051194413
1.1548246401400839023
1.1549638389574750086
1.1550916311651842072
1.1552211361946540524
1.1553562717252321423
1.1555014612838112598
1.1556532044925851288
1.1557956875860528889
1.1559112433092841865
1.1559796430727058425
1.1559909832863393131
1.1559492793718135761
1.1558754569462763584
1.1557930069408821616
1.1557220572437578721
1.1556717932954532202
1.1481949027160187615
1.1482307425165512171
1.1482435159186339391
1.1482259213190890712
1.1481753980765199152
1.1480932579939411298
1.1479857648049411889
1.1478619398119700445
1.1477335052956987305
1.1476134827863644361
1.1475120135454364156
1.147440070152998759
1.1473988856067323105
1.1473928191485098793
1.1474130453013644537
1.147460076013687269
1.1475133281789797746
1.153926349464306389
1.1539869129158104588
1.1540969954007898046
1.1542396872970632771
1.1543838905832681796
1.1545001097754881147
1.1545710012085808049
1.1545992714247392819
1.1546009904739182872
1.1545911433753355269
1.1545807050544230066
1.1545739449603253934
1.1545841019842610908
1.1546251521273320773
1.1547114549014272367
1.1548398559418042719
1.1550039093417530101
1.1551877431344330649
1.155367708193011822
1.1555226012236141653
1.1556331123760046342
1.1556845358757628084
1.1556739688680091049
1.1556095053322503752
1.155515155920297854
1.1554166521620834462
1.1553342534658668228
1.1482110147384951837
1.1482328805483188461
1.1482173867930312028
1.1481608539777277134
1.1480657468731303439
1.1479422169059074754
1.1478039323557889251
1.1476662835681619157
1.1475442970425289158
1.1474467364225908739
1.1473812779149874519
1.1473440843251316856
1.1473353033014064284
1.1473435725221585724
1.1473689371211392984
1.1473957115695228026
1.1536463966289658423
1.1537449040941925027
1.1538913454494912347
1.1540611416259762834
1.1542231634348869562
1.1543610249432114667
1.1544814310463094031
1.1545942830213511421
1.1546864280308668516
1.1547348789160492011
1.1547240950220234446
1.1546623341056898582
1.1545818258786655353
1.1545266259987150281
1.154524127344496609
1.1545748786818503806
1.1546637903160712479
1.1547739664146225991
1.154889837447045764
1.1549995545351796622
1.1550856072163733224
1.1551297334778278803
1.1551202315193169756
1.1550602119924437972
1.1549703366167225482
1.154880628770289519
1.1548137622077057074
1.1547839135149260414
1.1482462864367590782
1.1482764552933044655
1.1482511149097354153
1.148168443864245436
1.1480373788698852167
1.1478740886872573768
1.1476988425609084832
1.1475325801952096505
1.147390848321288237
1.1472867445756049776
1.1472224459110778039
1.1472000243538698072
1.1472093417371254098
1.1472487461962850297
1.147299386433312085
1.1534165527709958621
1.1536147637356639617
1.1538228186002874587
1.1540103757175323995
1.1541781330067908407
1.1543457689293230573
1.1545234625895641756
1.1546882999995908836
1.1547891473767040171
1.1547894701688796726
1.154694676139063958
1.1545534382071163115
1.1544255137619217066
1.1543468719264700084
1.1543219035882572587
1.1543359790509393203
1.1543760469525168322
1.1544370059440067777
1.1545150331514180131
1.1545925634403491067
1.1546465119090592033
1.1546527576500764667
1.1546110801033671045
1.1545350850784277252
1.1544541266806853663
1.1543956093238110228
1.1543826906464940141
1.1482143914941158602
1.1481850936436335253
1.1481013545072313864
1.1479734867350985805
1.1478200350237277583
1.1476621380758429414
1.14752122527919731
1.1474118134998299023
1.1473438747910851276
1.14731631059981809
1.1473253088653962983
1.147355538255058871
1.1474017125644864201
1.147439727676350163
1.1533086400592316156
1.1535546016246447376
1.1537690540447236298
1.1539720731752558525
1.1541966241472607635
1.1544496182658223749
1.1546933003312498389
1.1548604973749720948
1.1548994840084543245
1.1548080927136663565
1.1546342632566066744
1.1544401326892530513
1.15426678726372689
1.1541301826762635496
1.1540281843070270273
1.153963356845340682
1.1539465524036847111
1.1539815882095683097
1.1540524364351167907
1.1541264566762030608
1.1541716041599991982
1.1541710990940410309
1.1541308402206618133
1.1540762545195972777
1.1540411268807009293
1.1540611543378318515
1.1481139910053108633
1.1480291749797555401
1.1479125974086690221
1.1477818705723716874
1.1476543433078234546
1.1475473303868839459
1.1474697355732157433
1.1474276468957873565
1.1474161885762728108
1.1474309733778185194
1.1474587798051407717
1.1474961521754210025
1.1475279989595319474
1.1532849072557178616
1.1535314413836561531
1.1537725036805885903
1.154047376061114738
1.1543598945854944837
1.1546635035674566172
1.1548863077623721107
1.1549723316065629852
1.1549131616140193568
1.1547467067310885902
1.1545239658370232139
1.154283816477305491
1.1540488081585635882
1.1538321372632238671
1.1536549289744653102
1.1535446098559776207
1.153516369333871916
1.1535624996811384424
1.1536490413367517238
1.1537358008835358891
1.1537917415311402802
1.1538077156165484904
1.1538020887744135923
1.1538096480105577424
1.153872546108830166
1.147937332850613501
1.1478271851839023654
1.1477121441942550462
1.1476071762088266848
1.1475259645928974628
1.1474744768607891832
1.1474556104872268847
1.1474645923348203436
1.147496974677691961
1.1475415859006818931
1.1475949114959287378
1.1476446292803028637
1.1530836736592227076
1.1533272379197188062
1.1536312481107513506
1.1539973924404365313
1.1543746879081970835
1.1546864352347223637
1.1548684157507638215
1.154897909220301111
1.1547931534191862024
1.1545933276312645432
1.154335972998555393
1.1540475662985170135
1.1537507667443336334
1.1534797049131906288
1.1532755063855051336
1.1531691134432231483
1.1531635133313089536
1.1532315336404082018
1.1533303502275313868
1.1534173369183973179
1.1534729640381407023
1.153505382461229356
1.1535476248669844779
1.1536382842957562112
1.1530719822977557598
1.1534072745585239872
1.1538051341001838157
1.154215602886250247
1.1545666614362288804
1.154791720924364995
1.1548632003793406486
1.1547922130298813315
1.1546112970662916197
1.1543540708084583102
1.1540472778464558878
1.1537154053000819864
1.1533943484140896096
1.1531319398258579323
1.1529676868913367738
1.1529142816503445967
1.1529547708570970777
1.1530479063712857357
1.1531479598227698524
1.1532289826167660962
1.1532913390487340433
1.1533626251156285925
1.153478637471487156
1.1536141571951932239
1.1540478701087626412
1.1544335382028125814
1.1547021220632116556
1.1548186951275090095
1.15478511877203327
1.1546311583030257619
1.1543878531001778853
1.1540787235867346894
1.1537275130455930672
1.1533697600834729169
1.1530555385625176346
1.1528338711190961874
1.1527310384766511486
1.152736906482631829
1.1528142403983616671
1.1529182927714343165
1.1530181532374410569
1.1531084430816791464
1.1532094407749884368
1.153355145284847616
1.1546608228104922045
1.1546885832969633334
1.1545935337304864543
1.1544064735070360683
1.1541451673555367385
1.1538233998489231258
1.1534665975177162967
1.1531221970374339048
1.1528455331973337383
1.1526746127200209191
1.1526133268969922518
1.1526348216266306679
1.1527013890970168042
1.1527845527335762732
1.1528773561984693163
1.1529944454776503981
1.1531620934440658388
1.1542189081405334061
1.1539390511726710375
1.153608865871120992
1.1532658695120776571
1.1529612725053606237
1.1527380999737433243
1.1526096363004221246
1.1525596437066722988
1.1525606870743998478
1.152591003253554236
1.1526479560099689436
1.1527456339137973629
1.1529037550256227007
1.1538704138044457714
1.1535846649190233393
1.15328182675400992
1.1530011359677896365
1.1527800925335587312
1.152633685130332708
1.1525507520115629845
1.1525092299136447949
1.1524959221267911946
1.1525154386167049125
1.1525883854169554077
1.152735351984110368
1.1504309198098150446
1.1504427703269366479
1.1503988540109906236
1.1502793051365931554
1.1501160347984651366
1.1499938422655553438
1.1500097131843525222
1.1502043202852640924
1.1505281194280561063
1.1508721364185592329
1.1511210193009175917
1.1512076198574769936
1.1511265902993002008
1.1509232122698433987
1.1506748762389589213
1.150464687889984905
1.1503453359428570391
1.1503160292342018423
1.1503267738933233844
1.1503175145120763112
1.1504332340338834229
1.1504851161190381426
1.1505349449372168635
1.1505133614168334688
1.1503699871306165559
1.150129308333324607
1.1498865336282169114
1.1497692529972001196
1.1498589580344857897
1.1501349946516001843
1.1504906676622739248
1.1508019924279360158
1.1509835389379436954
1.1510193790378779877
1.1509442731419881056
1.150815233115470404
1.1506872853083289776
1.1505899940357995348
1.15052053815271349
1.150454661020354763
1.1503717397403976364
1.1502655092345641652
1.1504573027428304233
1.15037610220063935
1.1503517731703649662
1.1503964182593107157
1.1504711087038943518
1.1504898058710113506
1.1503663310919416407
1.1501010037404684194
1.1497934495774284613
1.149589074715773096
1.149596287420708185
1.1498166113911352237
1.150147376667819632
1.1504586524328628272
1.1506635313950570598
1.150747292534786359
1.1507503991657490605
1.1507206024077292206
1.1506865435007653797
1.1506461150807403282
1.1505794891843488248
1.1504736468922203141
1.1503346940230019246
1.150187125069558336
1.1500520968210183881
1.1499454496342675913
1.1502531025803557352
1.1502293689685243461
1.1501750797543843774
1.1501245349796096473
1.1501214360914766566
1.1501598561758514805
1.150177333403200608
1.150094825721805325
1.1498941935887547761
1.1496534959905322371
1.1495017457541518713
1.1495247044833101224
1.1497062610200450283
1.1499304581268596781
1.150068852927775831
1.1500650567742971564
1.149953020301557105
1.1498256320149413678
1.1497617452205439736
1.1497829311634915062
1.1498546712759110111
1.1499175996663397736
1.1499303867298089621
1.1498854130247531113
1.1498016921481410968
1.1496974134479163165
1.1495868374387527844
1.1494846258600779354
1.1494902543311846799
1.1497070884223830056
1.1497950008844419756
1.1497525809836768307
1.1496677379719635326
1.1496514132182078516
1.1497488759080392029
1.1498997304184106483
1.1499841562693189356
1.1499161767342280793
1.1497111342587722493
1.1494653863682844364
1.1492740434767645397
1.1491529613476032523
1.1490423899713382294
1.148873526061624295
1.1486501505592898731
1.1484516068196046756
1.1483818846508344613
1.1484958705879679819
1.1487561255041380814
1.1490610383522366078
1.1493044662506741727
1.1494331069640939536
1.1494601427794719495
1.1494362431243190237
1.1494045384078936944
1.1493854561241387824
1.1493889114102402438
1.1494302818937804922
1.1493405898834667678
1.1496016951294920627
1.1498237177248127328
1.1499192684135621789
1.1498798015622477831
1.1497800578414782979
1.1497233936827488954
1.1497526196833394163
1.1498105670684610757
1.1497877972138583758
1.1496139241905991568
1.1493306875285789204
1.1490608838792020219
1.1489083864402092061
1.1488887013364270651
1.148914201216931108
1.1488822598459886848
1.148773693579807853
1.148667293085698482
1.148673448957213461
1.1488566918636771153
1.1491795328722382852
1.1495321130685851596
1.1498047234049306731
1.1499496536343165598
1.1499899556631785202
1.1499802385649708913
1.1499591821299239847
1.1499326687254214363
1.1499026765752977663
1.1498936204110745685
1.1499578682274746999
1.1498225504017141052
1.1501501552551649521
1.1504256249764979181
1.1505572318924282005
1.1505351405557793232
1.150442534492515323
1.150391966288394574
1.1504339771477483101
1.1505050760206696481
1.1504856915473828938
1.1502976101005732978
1.1499884522839070033
1.1496889229164668489
1.1495196269434557745
1.1494959388513061871
1.1495195560411550773
1.1494756366818319471
1.1493397987740747723
1.1492040011274091693
1.1491950719348733578
1.1493864378520648462
1.1497378623292522359
1.1501211854128789991
1.1504116193168232307
1.150555390855655169
1.1505778852874308793
1.150537252488348372
1.150472894799843715
1.1503865806187478782
1.1502780008207478257
1.1501821268244378782
1.1501681404636736605
1.1502975783179529845
1.147846256657238273
1.1480377044586032032
1.1484604530686073343
1.1486562069899493022
1.1484300026955063245
1.1480060188657661424
1.1497783577466400562
1.1500870504940616801
1.1503444307867547458
1.150456012934899519
1.1504111778850940606
1.1502941180348531525
1.1502198918254042947
1.1502398409373326693
1.1502874875685455969
1.1502330283825763502
1.1499986349627389082
1.1496302762504584383
1.1492747784861638838
1.1490619167089075603
1.1490063792855438329
1.1490074676673445175
1.148941518760961733
1.1487785425987140364
1.1486137511639300524
1.1485833822983202435
1.1487602032919381756
1.1490995756879156531
1.1494628446961812074
1.1497197374573056017
1.1498209916414339204
1.1498010472679862648
1.1497266802406695962
1.1496381088626486111
1.1495312529931211998
1.1493976287346732157
1.1492721446688010101
1.1492321402019101129
1.1493451353281907146
1.1495979807948695228
1.1472357279613376591
1.1468564786559938273
1.14705402077705787
1.1474985998067928072
1.1476835195295675973
1.1474278251930611905
1.1469666157380611349
1.1478458406099243394
1.1481460438568007465
1.1483937668744501615
1.1484922070979324271
1.1484307698384463858
1.1482953901623864645
1.148205273515466418
1.1482136430329143995
1.1482528008248364948
1.1481888073037196385
1.1479412962371697837
1.1475572574066188469
1.1471903363562125922
1.146970966766610811
1.1469145201321857552
1.1469174341491685798
1.1468500048674743486
1.1466807285279578821
1.1465102991529703136
1.1464821245260572447
1.1466677932154958341
1.1470182489385019053
1.1473907532808593768
1.1476514606115035821
1.1477530108763835948
1.1477337193721850461
1.1476644228084458277
1.1475842133524076782
1.1474862859990317965
1.1473576299414038893
1.1472331654735323792
1.1471977366237120499
1.1473212045907752454
1.1475906994636682068
1.1478907528651769443
1.1488198470222352743
1.1487756034917289139
1.1487406574667251569
1.1487166461007691787
1.1487045324735754015
1.148702809777531364
1.1487036316053398366
1.1487051624693911389
1.1486879477923175319
1.1486566472031209951
1.1485891796319951386
1.1529275132186469488
1.1530265707782874074
1.1531232612992474706
1.1532382971412389328
1.1533789074529907648
1.1535217822183956304
1.1536456231518694704
1.1537418893783961682
1.1538192790269545807
1.1538934171507859716
1.1539651883842381164
1.1540203273940714546
1.154046599562971398
1.1540519837471117093
1.1540653997800320862
1.1541163834690610912
1.1542054760001525526
1.1543033362107149031
1.154371068345554141
1.1543958698584337874
1.1544055912142110465
1.1544598845620970273
1.1546126400550984492
1.1548792411234902744
1.1552257166205845973
1.155581218839952129
1.1558701924922549775
1.1560364330081907003
1.156064594594469197
1.1559754760251432781
1.1558211833618983189
1.1556642223435709127
1.1555559747457204711
1.1555222815573353845
1.1555580609411917337
1.1556365976053863953
1.1488046835750043151
1.1488030231034329631
1.1488004552859711893
1.1487937452529635163
1.1487807622204444513
1.1487618060013289334
1.1487390864854918338
1.1487137821547837024
1.1486877350736084402
1.1486626166350093481
1.148641966262848424
1.1486275759092772208
1.1486219313716024004
1.1486244624316621632
1.1486330507804360934
1.1486453382600640971
1.1486522621004473521
1.1486545240238354992
1.1486365024341271823
1.1486048451510297852
1.1485446145451458921
1.1526535891451656912
1.152824161466319941
1.1530386628974778063
1.1532931733627340698
1.153540749429684098
1.1537351080644269175
1.1538520364896682757
1.1538988879687219757
1.153908772238375402
1.1539201986617695361
1.1539488354236773215
1.1539784807315598414
1.1539862885784812896
1.1539698040128771872
1.1539533471038969648
1.1539765554374403767
1.1540563901734355312
1.1541775900720809833
1.1543029351216456124
1.1544045714590964735
1.1544831223678324594
1.1545733979660559587
1.1547149761194037687
1.1549256492877422176
1.155191452775826022
1.1554696037328424651
1.1557075044226612359
1.1558580883812910045
1.1558988187391396885
1.1558372259221403322
1.1557118376374622137
1.1555782564188310513
1.1554896894124531137
1.1554755915911341102
1.1555320640945752064
1.1556274838463467258
1.1488024169974970778
1.1487680863559348587
1.148732475330610292
1.1486946668465356503
1.1486541925951008203
1.1486112747482990493
1.1485677588008276206
1.1485255909138025743
1.1484868834180081976
1.14845269675546513
1.1484264940190158644
1.1484105195335059246
1.1484075691554149756
1.1484165232979812732
1.1484344798528263176
1.1484587065493976343
1.1484784202033750944
1.1484938358840250938
1.1484887218736707926
1.1484710314794217556
1.1484264133027357602
1.1527619071490819991
1.1530914450858831266
1.1534569878371574436
1.1537765180126462461
1.1539902288032664046
1.1540718211430798235
1.1540454361925334137
1.1539722832066843239
1.1539114785987489853
1.1538894640390138235
1.1538939786228434858
1.1538977965352590349
1.1538860705840696674
1.1538729896276374021
1.1538944488615512363
1.153981704325976132
1.1541387746599061082
1.1543306619216846531
1.1545159559746567268
1.1546686010060840388
1.1547867329889238697
1.1548925622965731108
1.1550125432276732163
1.155160300281991903
1.1553334984795267104
1.15550445256870149
1.1556340068307049407
1.15568690397914553
1.1556542207527800148
1.1555604159873849035
1.1554545922787697876
1.1553920377870379177
1.1554055446758113579
1.1554919648721306835
1.1487467285340711154
1.1486898005854844218
1.148632842471968285
1.1485753863447738521
1.1485163035455068226
1.1484555279252746107
1.1483935490326353523
1.148332870370768255
1.1482751466986105271
1.1482246142458392146
1.1481855905519511296
1.1481637461924232291
1.148161344255541394
1.1481755394523709413
1.1482045300646541719
1.148235812578873638
1.1482708223432491756
1.1482909698057484071
1.1483056046140140971
1.1482941796074292995
1.1528725109868278587
1.1532775626065669972
1.1536881220038566198
1.1540167651538877358
1.1541979538496691671
1.154220282552855803
1.1541277982178421713
1.1539966313334970582
1.1538937860188536177
1.1538518610430894551
1.1538612736863480546
1.1538881376032197323
1.153902264685726653
1.153909283262698704
1.1539356936559168609
1.1540229696975099483
1.1541874387183899131
1.1544147944762928049
1.15465486614615509
1.1548610770014837712
1.1549996614106057269
1.1550696792483554631
1.1551015986475323682
1.1551375375616348418
1.1552061907808877095
1.1553048991328684902
1.1554048000558927445
1.1554643515977334189
1.1554614036976638136
1.1554076023930863748
1.1553431747525071405
1.1553183851199491095
1.1553633253159854011
1.1554718243090305041
1.148758220532434482
1.1487015242775218127
1.1486415613321061535
1.1485761659435425042
1.1485016299975359111
1.1484155352605640577
1.148317807727761819
1.148213919323167298
1.148111771595498265
1.1480217200090274687
1.1479526095068890434
1.1479123580794172721
1.1479057447582239337
1.1479295933364348503
1.1479802874140796476
1.1480402008945225223
1.1481056803081119977
1.1481562858710643305
1.1481989281070572595
1.1482139286629853281
1.1534116022243943167
1.1537896606146116341
1.1540632403243420434
1.1541923592869183235
1.1541771164926808435
1.1540647737166316311
1.1539299639500038008
1.1538385190048596751
1.1538209617142534125
1.1538710733738710701
1.1539478556685875965
1.1540141737327502813
1.1540602232062249222
1.1541057629892081948
1.1541843956294430829
1.1543240798831151395
1.1545273440955354793
1.154758025991935444
1.1549644202723094999
1.1551023723162912038
1.1551523029262398268
1.1551342839486977709
1.1550974463426950667
1.155086792263480433
1.1551241622585248781
1.1551902697441047696
1.1552459460912192224
1.1552645005520802979
1.1552467496727361063
1.1552247442500231944
1.1552330822337253391
1.1552952877634903306
1.1486885344557202782
1.1486396120859767578
1.1485845243191861176
1.148516403984862988
1.1484299014949710394
1.1483227086237663972
1.1481993533778853678
1.1480689346257699768
1.1479455554134216921
1.14784211978536832
1.147769374262228359
1.147733447288821873
1.1477328584510306797
1.1477658304393576483
1.1478170095126656314