/*--------------------------------*- C++ -*----------------------------------*\
  =========                 |
  \\      /  F ield         | OpenFOAM: The Open Source CFD Toolbox
   \\    /   O peration     | Website:  https://openfoam.org
    \\  /    A nd           | Version:  12
     \\/     M anipulation  |
\*---------------------------------------------------------------------------*/
FoamFile
{
    format      ascii;
    class       volScalarField;
    location    "0.0165";
    object      rho_0;
}
// * * * * * * * * * * * * * * * * * * * * * * * * * * * * * * * * * * * * * //

dimensions      [1 -3 0 0 0 0 0];

internalField   nonuniform List<scalar> 
106891
(
1.1494315387620930302
1.149342549934320612
1.1492658520106904252
1.1491978123317880822
1.1491379821291018981
1.1490784824162432187
1.1490163815618592569
1.1489502025382951622
1.1488735977911548325
1.1487928697273410705
1.1487030736637708905
1.1533918743466855528
1.1536313922167931167
1.1538483196805275899
1.1540070756549998254
1.1540979776558548675
1.1541387252081527492
1.1541680561978562292
1.1542266270814309781
1.1543310519709646389
1.1544601974187294058
1.154557309251569519
1.1545668394753785257
1.1544714585172768384
1.1543113683740293673
1.1541664611808732932
1.1541153578987679573
1.1541949870899470554
1.1543817173368637885
1.1546175412641106472
1.15485867961913935
1.1550955479975166806
1.1553468528023917994
1.155621883500185243
1.1558999608935676129
1.1561312810908397353
1.1562665213252398821
1.1562864995122261735
1.1562134718007546219
1.1560953857752374052
1.1559737841887249843
1.1558784629677729683
1.1558236266914758694
1.1558099472612919367
1.1558285643815660038
1.1558662153120480287
1.1559015875082352398
1.1559137362635163448
1.1558953776608629216
1.1492611540025905459
1.1494645315270139996
1.1496312833740778281
1.1497403800845089616
1.1497798668511607367
1.1497495710884695352
1.1496593035937647809
1.1495271898651768794
1.1493742734645167047
1.1492230051578833372
1.1490889727948372379
1.1489836372926263142
1.1489072398788910956
1.1488585505365151995
1.1488290091479214095
1.1488082481021477665
1.1487912961922221999
1.1487624969537770792
1.1487264107765156051
1.1486706273119289268
1.1535774715944204782
1.1537181269588421273
1.1538192507493385541
1.1538867012040110449
1.1539398224184524988
1.154005327383591073
1.1541083859789109667
1.1542509319597771267
1.154405865181511226
1.1545159577805745865
1.154525986700771556
1.1544257882893778078
1.1542632494511542163
1.1541229924587623756
1.1540863078331300429
1.1541849713930183441
1.1543895127324579342
1.1546324962870344599
1.1548654440429184653
1.1550815295567176122
1.1553089483956533456
1.1555715202145517839
1.1558531587049167833
1.1561062989396357903
1.15627299064534661
1.1563221216341159625
1.1562651269579726776
1.1561435339736383376
1.1560034892714687871
1.155879911961037676
1.1557964517915135794
1.1557651291212207578
1.1557820275121108988
1.1558364386551673864
1.1559038008765329941
1.1559538306772925154
1.149049613440074058
1.149264189013943227
1.1494494344806187591
1.1495822977623955108
1.1496472322830975088
1.1496390397947218176
1.1495631643322885562
1.1494356158373988386
1.1492772118745917531
1.1491117217941921869
1.148958508442206039
1.1488339575536186121
1.1487442290492264618
1.1486916164454679112
1.1486717150204173166
1.1486741376023796857
1.1486940737476543095
1.1487121599467184918
1.1487297844472947883
1.1487265132160613401
1.1535575223572411829
1.1535623194675701519
1.1535704599306022544
1.1536071091491781893
1.1536892192157583992
1.1538226095423458339
1.1540015863652461903
1.1542045855169396074
1.1543914820903276031
1.1545157865577797551
1.1545383968509066452
1.1544632597075239477
1.1543374518023015174
1.1542400188733490385
1.1542400433341155619
1.1543613753741908123
1.1545722642407838521
1.1548112235103253909
1.1550297268021956221
1.1552200102250604896
1.1554079954108682493
1.1556199606225199261
1.1558542304387919852
1.1560746329275231048
1.1562290146957117098
1.1562852837204167233
1.1562465132531378753
1.1561416482726247779
1.1560114917402193324
1.155896822185752848
1.1558200343452518233
1.1557950935934586667
1.1558274953207157143
1.1559048114763523785
1.1560029725241744991
1.1560832148365343119
1.1491034389683527639
1.1492784514426599429
1.149400338864017046
1.1494543548659374999
1.1494370135802454147
1.149354975471496676
1.1492247958607904046
1.1490673518513325746
1.1489067984279135448
1.1487629597474708909
1.1486519809737238962
1.148579807396491903
1.1485461420208114003
1.1485457340249767277
1.1485659602428588411
1.1486022790180279163
1.148636190814710023
1.1486669607547475014
1.1486805389259224786
1.1533789290001055239
1.1533275125696242913
1.1533663748197455767
1.1535009253511658844
1.1537123643634761283
1.1539610072291890397
1.1541991525071477742
1.1543818541195045579
1.1544770885697817064
1.1544803114135948618
1.1544156134615621845
1.1543312717869158579
1.1542853495544511677
1.1543210765950964181
1.1544475110914735883
1.1546382380326869477
1.1548506994445579821
1.1550472058848706425
1.1552202731421237214
1.1553866571314885814
1.1555687621478898386
1.1557723412132345775
1.1559775927119062544
1.156142251062495907
1.1562354270189825201
1.1562417301933793912
1.1561788752071211483
1.1560796823241348275
1.155977469054167317
1.155902667906012482
1.1558754742160830542
1.1559049990735332791
1.1559854370855560113
1.1560939987271519058
1.1485711739128454667
1.1487665434596960878
1.148947302674975246
1.1490885118861973169
1.1491707118233556173
1.1491845091912504806
1.1491308203212695638
1.1490216889576487791
1.1488750909074343376
1.1487134194456398717
1.1485565481926602871
1.1484216874595323254
1.148319892782131646
1.1482542050007582546
1.1482272942454534448
1.1482276463786054155
1.148260301587371135
1.1483058409045157067
1.1483716338839418114
1.1484382077930452848
1.153247814194674481
1.1531356247603161691
1.1531628579011850011
1.1533274371458721586
1.1535856181490113936
1.1538697492840528369
1.1541153332320577274
1.1542760342330171675
1.1543411769546219059
1.1543381873872786691
1.1543157366999330371
1.1543204347026463363
1.1543809542933674006
1.1545032583098089329
1.1546764317520121779
1.1548716856946203979
1.1550629187438055112
1.1552301479801454498
1.1553688509440998011
1.1554887821690762451
1.1556111124128620737
1.1557538674102281195
1.1559139613570341698
1.1560681629864391073
1.1561805999348540031
1.1562253786282665757
1.1561990820792282797
1.1561245140742464343
1.1560391494556732095
1.1559743541269076328
1.1559521938860688461
1.1559893396670297694
1.1560805923372889925
1.1484713153066461455
1.1486291923207965215
1.1487672447281969124
1.1488669029057760884
1.1489150121633835422
1.1489048189465067562
1.1488378821028750743
1.1487223633031153902
1.1485730124165549615
1.1484068737715924513
1.1482427300175133134
1.1480974578984040058
1.1479846841732523899
1.1479168986295438248
1.1478938815036050514
1.1479240112758859471
1.1479908790413089203
1.1480990644059616557
1.1482184739508065618
1.1530926366172855602
1.153112952573096317
1.1532955422946407076
1.153578890897521525
1.1538781340504071782
1.1541178062222663403
1.1542531067948516021
1.1542859529626712245
1.1542635882708514039
1.1542490507478948558
1.154293695817365295
1.1544139089895968375
1.1545944659737084059
1.1548065024573119786
1.1550204695792687382
1.1552126227437902184
1.1553730042188661287
1.1554978092922274513
1.1555929892956278149
1.1556800634968733554
1.1557855992738041984
1.1559198130169374696
1.1560721217934766258
1.1562061946438209059
1.1562837090414530561
1.1562869642027313599
1.1562324810810955533
1.1561515924409118128
1.156081829463289079
1.1560509325963275185
1.156070540202616348
1.1561367372112505425
1.1484081070970315608
1.1485095276620647109
1.1485929506029681768
1.1486493643763830974
1.1486722030451876897
1.1486572422441665431
1.148604372339189883
1.1485167514618079831
1.1484021240018300603
1.1482704664178535747
1.1481347944361264268
1.1480085209749049113
1.1479056153191271594
1.1478396066960256938
1.1478155212615821501
1.1478402393229409917
1.1479019243576711329
1.1479984264947973305
1.1480999224087802268
1.1532205773496726486
1.153398318926737165
1.1536670872192864579
1.153945501852466915
1.1541596040053330174
1.1542743620930497883
1.154297531217187478
1.1542713139754365859
1.1542576380751594645
1.1543026086361543037
1.1544279764681590894
1.1546201008321879122
1.1548445792814965305
1.1550645815788851412
1.1552579129597730923
1.1554117492357174335
1.1555243520399962609
1.1556097001278531344
1.1556853319888424902
1.1557759978383670418
1.1558986009241360993
1.1560432245766492088
1.1561755689835913063
1.1562565925219001617
1.1562697700348181229
1.1562276980926071701
1.1561628853328396183
1.1561077048762613551
1.1560844035202408886
1.1560984191287677625
1.1484247673380010291
1.1484577130302144887
1.1484648804072994377
1.1484473961624095395
1.1484072349683189795
1.1483477193148829976
1.1482716372703247742
1.1481833967225274495
1.148087980787459994
1.1479922082538105421
1.147903599387444018
1.1478283414168002352
1.1477760353724801856
1.1477478607101248009
1.1477521350914079434
1.1477816287547670804
1.1478389461579112663
1.1479042262521066409
1.1536711308160969569
1.1538616412795006383
1.1540620769815157498
1.1542236354256862896
1.1543199530383070339
1.1543488907603485227
1.1543319596825061257
1.1543085765030509648
1.1543253980664958114
1.1544125627087860053
1.1545702518779921153
1.1547719216535163866
1.1549831407223889457
1.1551764416673602209
1.1553364911245544988
1.1554649250194179988
1.1555744857051284402
1.155680405921175824
1.1557971092755972009
1.1559283971765517141
1.1560600391933220088
1.156164358688005267
1.1562156002446006831
1.1562061135056946881
1.1561479094430238135
1.1560718431496108671
1.1560093660459682674
1.1559688483900516509
1.1482855369193010198
1.1483184802918697809
1.1483277260098037065
1.1483119682683669005
1.1482712198725351094
1.1482080079929606331
1.1481249385456639978
1.1480268826545723115
1.1479192044317088062
1.14780922135849206
1.1477058664259298659
1.1476165914771301324
1.1475523065730084404
1.1475147186510687991
1.1475127137023379831
1.1475393531362145794
1.1475982954629113664
1.1476700313063801229
1.1539430149697258443
1.1540594387871776494
1.1541728154762920244
1.1542650358821255896
1.1543244017400622337
1.1543495373041250396
1.1543523601945668844
1.1543689370336336353
1.1544276305214213885
1.1545355101314735968
1.1546770458776751678
1.1548265469260994287
1.1549656027650301304
1.1550933173664452713
1.1552226364070683484
1.1553576305867758744
1.1555027985419616954
1.1556542582343445336
1.1557958434879533893
1.1559098562203264926
1.155976175236758996
1.1559852724451484818
1.1559416455064910334
1.1558667365622368184
1.1557839114169476957
1.1557129145385649505
1.1556626693376006454
1.1481965350053362496
1.1482326995822853544
1.1482455990215851838
1.148227800798691467
1.1481767101951945165
1.1480936659779443776
1.1479850205691948251
1.1478599623176386491
1.1477303965111520512
1.14760949362975051
1.1475075027626262525
1.1474354510416326924
1.1473945709134389936
1.1473891865242193955
1.1474103987133110749
1.1474585936274876996
1.1475130603635070869
1.1539240746818304473
1.1539849331610312344
1.1540947342445924129
1.1542362355443791522
1.1543784876586997701
1.1544923660622592454
1.1545612251450481089
1.1545886712444268785
1.1545910118219828711
1.1545826881385954366
1.1545740906595509667
1.1545694006613327343
1.1545815568976907084
1.1546249652360234261
1.1547132138289701864
1.1548430112673229164
1.1550077074651021736
1.1551912091600862187
1.1553698111502281876
1.1555226026498759406
1.1556305283570740272
1.1556791109012183316
1.1556659494120919973
1.1555995694552938513
1.1555042921755154239
1.1554056975295461385
1.1553236428377007261
1.148215732936479494
1.1482368853394606667
1.1482201313968067868
1.1481619578073289922
1.1480650625207666771
1.1479398387825718864
1.1478001573850622474
1.1476615490057342495
1.1475390744709561552
1.1474414412377611505
1.1473762074975351055
1.147339429028931157
1.147331202604342959
1.1473401554022417681
1.1473663623218839369
1.1473941780796901302
1.153646083933876243
1.1537451374557223804
1.153891233634147806
1.1540592960155944269
1.1542186830067293624
1.1543542415735532636
1.1544733390803780804
1.1545856518361670151
1.1546774862447284349
1.1547255378374716717
1.1547146634133123033
1.1546538415112344023
1.1545754628215609827
1.1545235099674937551
1.154524029367370197
1.1545769141240360689
1.1546666934586149456
1.154776622068389047
1.1548914835503993892
1.1549995861004227482
1.1550834293494740557
1.1551248265491635969
1.1551125308763650068
1.155050426457617796
1.1549594572189494368
1.1548697637544784733
1.1548036713907297024
1.1547748055124003042
1.1482521514217809422
1.1482802283463895421
1.148252405239331031
1.1481672222291250396
1.1480339936333809892
1.1478691363173245676
1.1476930237667857249
1.1475265318791874058
1.1473850560251488417
1.1472814972901432817
1.1472178496597629227
1.1471961051428634093
1.1472061282774843605
1.1472463392300302765
1.1472979844347039879
1.1534200864205501613
1.1536174986081515481
1.1538229899995253724
1.1540073812339695092
1.1541728685784655717
1.1543398524118064774
1.1545176238172849548
1.1546820512630480149
1.1547814617501122036
1.1547801236241996836
1.1546848727117404732
1.1545450091116828961
1.1544199190892197038
1.1543442349372732281
1.1543212957535859964
1.1543363081248418922
1.1543766456067749981
1.1544375981033794254
1.1545151330883680618
1.1545913573839172717
1.1546431847915530344
1.1546468934303983911
1.1546029521443283983
1.1545256470443021612
1.1544445421116207307
1.1543867358098931497
1.1543754744424936654
1.1482185550908026173
1.1481864274920439151
1.1480999931482154253
1.1479699508435647903
1.1478150861768778856
1.1476565751656517822
1.1475157240763322886
1.1474068223021238744
1.1473396033576324093
1.1473127679729202555
1.1473223972604069676
1.1473531971472674673
1.1473999725525578786
1.1474387556857701398
1.1533138509341123168
1.1535565251022672495
1.1537676589984167119
1.1539689411382638706
1.1541936315881071717
1.1544473448519854131
1.1546906323933450178
1.1548558344481805182
1.1548922675956170281
1.154799129912794875
1.154625445218587787
1.1544328401888419577
1.1542614109125095556
1.1541262124804039235
1.1540250859306582232
1.153961156087193185
1.1539455719205999884
1.1539816304507974909
1.1540526307818046448
1.154125580631730319
1.1541687329054246547
1.1541659934485872796
1.1541240489760959953
1.1540687922858525738
1.1540343463153617254
1.1540562757828896068
1.1481153166326738546
1.148027998203919875
1.1479095541727080132
1.147777758154972183
1.1476499286155494861
1.1475432166676153845
1.1474662780713817956
1.1474249491601289375
1.1474141608294676775
1.147429456513497259
1.1474576681314001547
1.1474954590744037564
1.1475278485219346791
1.1532878311285763573
1.1535314399020710763
1.1537715969439554797
1.1540475080170291555
1.1543613280177260627
1.154664677336964651
1.1548853214163772307
1.1549683722358232707
1.1549066752798378133
1.1547391312565506993
1.1545163192650924611
1.1542765771330669722
1.1540420015572692147
1.153825919045286863
1.1536500532297750965
1.1535419473110468669
1.1535160965655089083
1.1535638514940118604
1.153650632053356162
1.1537361921918130037
1.1537901196833721951
1.1538040736017167731
1.1537973460834134443
1.1538052762394606088
1.1538700200849931754
1.1479365656865339052
1.1478250108559913123
1.1477093206289612493
1.147604393514420229
1.1475237070936710193
1.147472958907037377
1.1474548293037887259
1.1474644020580093695
1.1474971706296015483
1.1475420132834199816
1.147595522079387198
1.1476454644870712762
1.1530846509112004927
1.1533283395867279797
1.1536340853756257285
1.1540019291158489789
1.154379379160943575
1.1546893128577484511
1.1548682737388069608
1.1548947611252742274
1.1547878857643310013
1.1545867466242738519
1.1543285114355876786
1.1540395158907776896
1.1537427176190500067
1.1534728912758611674
1.1532712523409611727
1.153168076961930133
1.1531652978552733302
1.1532347682459571647
1.1533333274345016761
1.1534187657118619708
1.1534724267512750373
1.1535035110951148418
1.1535457333239820255
1.1536378619308378379
1.1530746958378388367
1.1534119965426095078
1.1538117293012977171
1.1542227228695165486
1.1545724209665724214
1.154794694658834775
1.1548631437479601747
1.154789641376213094
1.1546068143198828793
1.1543479630437432082
1.1540398243346527973
1.1537072308738698379
1.1533867331880942597
1.1531265070889269442
1.1529656615398569119
1.152915695255989581
1.1529585113097227111
1.1530522927335797867
1.1531514493158887547
1.1532308982194228175
1.1532919883552590345
1.1533630642306977876
1.1534801498504536621
1.1536217723011106262
1.1540563887032948553
1.1544411334024518023
1.154707276149427253
1.1548210450090237167
1.1547850041262470722
1.1546291529647880747
1.1543841396510616804
1.154073213651989338
1.1537204457845571248
1.153362294782769526
1.1530494922643195199
1.152830769600310612
1.1527313998677040097
1.1527400678607402362
1.1528186911611855159
1.1529225914785850016
1.1530214938396738944
1.1531109016629284003
1.153211801539694159
1.1533584119546620439
1.1546649040721752577
1.154690457936730974
1.1545938763382492809
1.1544054607530074286
1.1541422868901372034
1.1538183842659741618
1.1534602380943741462
1.1531161251674000301
1.1528414997192435454
1.1526735581663423158
1.1526149890102412865
1.15263811563934504
1.1527050760375503469
1.1527879901325099876
1.152880581375152369
1.1529980653292934978
1.1531666837565590633
1.1542185303978163002
1.1539364542093666355
1.1536041995006878214
1.1532604122201164376
1.1529567523508699178
1.1527356812181017709
1.1526094350420428292
1.1525609534549823287
1.1525627149314277009
1.1525933740288794027
1.152650852049093233
1.1527495578453117453
1.1529090183748378351
1.1538700090851026214
1.1535819889045462183
1.1532775551732115105
1.15299670860063741
1.152776748792271988
1.152631776940320707
1.1525499635512319596
1.1525091521999095701
1.1524965567445859538
1.1525171946436749693
1.1525918851314038704
1.1527407096373503137
1.1504291581462362526
1.1504411086829102739
1.1503950639563702563
1.1502720245451900638
1.1501059101155501896
1.1499833854696461799
1.1500017319472530808
1.1501996804891845283
1.1505257830853363732
1.1508702442465112981
1.1511182471390428717
1.1512039282743484758
1.1511230858606549265
1.1509211315738627768
1.1506753719611029219
1.1504681591553529429
1.1503509139590477606
1.1503215300199716165
1.1503299987022133077
1.1503172226470022022
1.1504289311225137649
1.1504823379556023966
1.1505325839393769627
1.1505087180567676874
1.1503615384214773698
1.1501176174607696812
1.1498742685162250954
1.149759613513831269
1.1498534041329975253
1.1501324311310072712
1.1504888859492374831
1.1507993549242450104
1.150980099617625152
1.151016654886102053
1.15094382755636504
1.1508179138862033586
1.1506928099071527249
1.1505967322929468999
1.1505263080981815715
1.1504576451685282201
1.1503715004759107465
1.1502628248362931629
1.1504537562602370482
1.1503704433021078035
1.1503463512820626402
1.1503925673434840515
1.1504680923283765459
1.1504847654576548788
1.1503569843834278164
1.1500879588270933596
1.1497796918613343298
1.1495781007918906003
1.1495899373368461127
1.1498138416315926147
1.1501455340933961491
1.1504559328846477584
1.1506601067203441335
1.1507450413239419529
1.1507513263885582599
1.1507253313164025332
1.1506940535713028329
1.1506540963751590301
1.1505855795067971847
1.1504764866479491037
1.1503344689520729194
1.1501849840965794325
1.1500495672785284729
1.1499439662657175987
1.1502535585429969345
1.1502259442028794911
1.1501687928560964114
1.150118080253194508
1.1501166100133064507
1.1501560311385683466
1.150171826687703458
1.1500850956348087628
1.1498803323353188333
1.1496388303196398706
1.1494900743937104259
1.1495178841691584548
1.1497032156556667992
1.1499280960948798924
1.1500652305174203782
1.1500606398989865475
1.1499502798012184446
1.1498270877878151719
1.1497679998641248122
1.1497922910792726103
1.1498641374420552896
1.1499245179762065394
1.1499336980028178612
1.1498857162727924575
1.1498003328534662781
1.149695594628469042
1.1495855789297502181
1.1494846067889004093
1.1494948154667952167
1.1497085282471277701
1.1497916345625347478
1.1497456881711605181
1.1496603427646565621
1.1496459633384452648
1.1497449357441231754
1.1498944117040570401
1.1499744114642078685
1.1499018181319380361
1.1496951995316646578
1.1494522881315694107
1.1492660380105053086
1.1491487753479701084
1.149038934825940661
1.1488687501086605192
1.1486449406887091484
1.148448862399903625
1.1483844655492045916
1.14850417290083473
1.1487676475769368345
1.1490720930662474686
1.1493121367715977144
1.1494367094003776764
1.1494607851529119458
1.1494355808841743016
1.1494035809290299444
1.1493847641216963229
1.1493890492375538059
1.1494323974630902274
1.1493454834541154685
1.1496068150601981284
1.1498254755388175319
1.149915853228532292
1.1498723941662203352
1.1497719211299968212
1.1497171902970648727
1.1497480276507006103
1.1498045410853676707
1.149777134360255193
1.1495983258546811356
1.149313657646125808
1.1490470263345009538
1.1489002404412433922
1.1488851244860049938
1.1489114201291381612
1.1488778304777167438
1.1487685914082630401
1.1486648515650381697
1.1486767993695876644
1.1488662672831044809
1.149192349745584929
1.1495439554317887776
1.1498126165626325612
1.1499531807231986313
1.1499906623276625606
1.1499799681346778435
1.1499586865893720589
1.1499320270841810743
1.1499023480914891682
1.1498950768127540467
1.1499631132985927984
1.1498281190538930385
1.1501558895373911184
1.1504277588058637871
1.1505537871066446876
1.1505273434488789697
1.1504338655978301187
1.1503853786449196317
1.1504292072815527348
1.1504988653836998314
1.1504746311808136117
1.1502813640534614859
1.1499706384254717584
1.1496743589912881145
1.149511444916480718
1.1494925728753895289
1.1495169971843099965
1.1494710819085014464
1.1493343928133861187
1.1492015062728737629
1.1491988571728433133
1.1493969503218286476
1.1497517257882179376
1.1501336587035966286
1.1504196457736513004
1.1505587950312297085
1.1505785582812695367
1.1505371827913137839
1.1504726949148391668
1.1503858761064147398
1.1502772009673882803
1.150182979527082372
1.1501730938111629499
1.1503076122338766751
1.1478394743819977375
1.1480452760357762187
1.1484671577906051532
1.1486499774982890099
1.1484117693014905814
1.1479872022902655182
1.149784292150513032
1.1500931224691020027
1.1503467094782238167
1.1504524622859733096
1.1504030501398554431
1.150285057645903164
1.1502129735137465172
1.1502349407648200241
1.1502811409677879961
1.1502216296976128795
1.1499818327816220265
1.1496116912597986737
1.149259894952866512
1.1490535885904531455
1.1490030957771451003
1.1490050248498424601
1.1489369392352712929
1.1487728529584981807
1.1486111835021448613
1.1485874936384636857
1.1487713129279133462
1.1491141061857983452
1.1494756636110567971
1.1497277376091832313
1.1498241861568974098
1.1498016391957126547
1.1497267629550673718
1.1496381552153220884
1.1495305997043261392
1.1493965395923855244
1.1492726450027557217
1.149236970096676469
1.1493555136134150363
1.1496114123681595576
1.1472107455953541866
1.1468502904572446255
1.1470627757421258952
1.1475060158268721722
1.1476769134115405446
1.1474087937408374849
1.1469471004509907974
1.1478519996611074028
1.1481523604584413789
1.1483961492008736283
1.1484886317328244498
1.1484224853927353927
1.1482861386003668791
1.1481982308198179776
1.1482087574846155942
1.1482464458075298808
1.1481773186301853507
1.1479241735672218727
1.1475384959944261443
1.1471753991356055113
1.146962695986466052
1.146911485842651901
1.1469151420886660731
1.1468453844280501741
1.1466749918138592346
1.146507804568701161
1.1464865768755030384
1.1466793420937131387
1.1470332111094523331
1.1474038295823134614
1.1476594987731811859
1.1477561724882650029
1.1477343668161315016
1.1476646757247930264
1.1475844818310032558
1.1474857460529792608
1.1473564547059400542
1.1472335407307163724
1.1472026561655723764
1.1473318297787205022
1.1476046263265413661
1.1479026599430757205
1.1488214584293616749
1.1487780863618153315
1.1487437384083167835
1.1487199824439375817
1.1487077514056167615
1.1487055177656506633
1.1487055013668159287
1.1487059228070215511
1.1486874660177255336
1.1486549480032928194
1.1485863462240524235
1.1529263000560263652
1.1530255448411703689
1.1531234532979455221
1.1532405280751945043
1.1533826153734125786
1.1535258213895125401
1.1536491844348890634
1.1537447482152864975
1.1538217628796478831
1.1538958598164938962
1.1539673250225370715
1.1540216012216406583
1.1540468331265296698
1.1540517819734827931
1.1540657973841346173
1.1541177303241734187
1.1542071068707553394
1.1543037053788927082
1.1543693369882530586
1.1543926168317555359
1.1544029969127143076
1.1544607192458309353
1.1546184080503036906
1.1548895504083298569
1.1552383996399271382
1.1555932125150107925
1.1558786956940609869
1.1560400076607642017
1.1560634030418868168
1.1559710744896147805
1.1558159964468519565
1.1556605043203025396
1.1555552122009247196
1.155524688085345808
1.1555627772123133745
1.155642107104501326
1.1487975890923947109
1.1487953265559842642
1.1487926705127962101
1.1487864510681999874
1.1487744984229650846
1.1487569924365859109
1.1487360326693787371
1.1487126643486609279
1.1486885094365204552
1.1486650359380259356
1.1486456397187485567
1.1486320337606226172
1.1486266773361566429
1.1486290139156543066
1.1486369832588769757
1.1486482758121077108
1.1486539283165999592
1.1486547520853909177
1.1486352533038375334
1.1486022741775050449
1.148541007349576315
1.1526538826599346255
1.1528272157708059353
1.1530444393808476633
1.1533006383331299016
1.1535476778167166323
1.1537397628729353372
1.1538537073805241739
1.1538981858910799527
1.1539071268021408034
1.1539187907847239245
1.1539478269190897031
1.153977238376728387
1.1539842372657322933
1.1539674931804815294
1.1539520113760419751
1.1539770623037512998
1.1540585939495335843
1.1541802140678927291
1.1543046978533666458
1.1544049867168286738
1.1544832453472233524
1.1545749911828449008
1.1547193007701386236
1.1549328464235253389
1.155200419294565517
1.1554783456380559592
1.155713948501529309
1.1558608748267531485
1.1558977592533770107
1.155833308461999609
1.1557070316109394614
1.155574888211711837
1.1554893567957709166
1.1554785373801239601
1.1555372332667923629
1.1556331812140001603
1.1487938672652622252
1.1487587289743685925
1.1487230555310981028
1.1486859935335393956
1.1486469848477423028
1.1486060659617947088
1.148564850412028715
1.1485250612724451358
1.1484885856442323959
1.1484562380893692524
1.1484313210419079265
1.1484160345600264996
1.1484132036998164761
1.148421731997356865
1.1484387838172518403
1.148461726404661265
1.148479921084157418
1.1484937358454050393
1.1484870980281116637
1.1484681036754902372
1.148422487796513014
1.1527692215011049459
1.1531023546279535186
1.1534683445293911763
1.1537852601643203698
1.1539942126855926574
1.1540706116291417072
1.1540406227770232395
1.1539664090980235045
1.1539063676896736954
1.1538856038959328654
1.153890770293133583
1.1538945070447881314
1.1538827312423085569
1.153870610938061203
1.1538943653037256887
1.1539843486456700106
1.1541434240416774681
1.1543355953966738525
1.1545197802915680985
1.1546708236221445709
1.154787886702279831
1.1548937686106444112
1.1550148473634869184
1.1551639948511036593
1.1553378727805816428
1.1555084515324642869
1.155636140541808965
1.155686367329213704
1.1556512712115869501
1.1555565395463542888
1.1554518426111408669
1.1553921086818037534
1.1554088231783550267
1.1554972345527136923
1.1487364940807887059
1.1486795208292110981
1.1486234061180105037
1.1485675667877603967
1.1485106270067448886
1.1484522169594872931
1.1483925713251030842
1.1483340462140307903
1.1482781786008862124
1.148229061799788342
1.1481908861435397018
1.1481693020683925166
1.1481666129307219748
1.1481800518011200385
1.1482078851722066215
1.1482377052370036363
1.1482710996312728291
1.1482896993507942796
1.1483030854121420994
1.1482908045021877896
1.1528831003669000044
1.153291126305052483
1.1537007857379040221
1.1540250155683111632
1.1541997534015286941
1.1542160274417059274
1.1541197816819914745
1.1539877728066132434
1.1538863582785221507
1.1538466249213381598
1.1538575130439414629
1.1538848895751927515
1.1538990931779906646
1.1539067337801764968
1.1539351480572672681
1.1540254229627402438
1.1541927259579256582
1.1544213020264602054
1.1546605852923712554
1.1548642191268994051
1.1549996799547002091
1.1550674658054447264
1.1550988504359835929
1.1551358809086957891
1.1552063693347869311
1.1553063631363769126
1.1554061113635218927
1.1554641727796812756
1.1554593707109712675
1.1554047397640836436
1.1553411485481195342
1.1553187108747948741
1.1553664093092519405
1.1554765803218622899
1.1487481579696976475
1.14869125588447063
1.1486318609082251108
1.148567685919365422
1.1484948329716917481
1.148410642773319168
1.1483148301059313834
1.1482127461052840101
1.1481122576226168164
1.1480236964200387639
1.1479558247502488211
1.1479164244428172736
1.1479101539734128945
1.1479338034789199341
1.1479837944200872446
1.1480426211735130781
1.1481067794116111003
1.1481560000632515806
1.1481974201617553
1.1482115767095892878
1.1534244543396729998
1.153800148287730476
1.154068766291014736
1.1541917781249138031
1.1541710506312046203
1.1540556259263179406
1.1539205046093798934
1.1538309820330583388
1.1538161450142672138
1.1538682351386848612
1.1539457902260832345
1.154012049747713986
1.1540582505734904295
1.1541048884816329512
1.1541858182375561714
1.154327982483696724
1.1545329283423104716
1.1547632650670860421
1.1549672494688658642
1.155101510532178466
1.1551480739118924479
1.1551282905031574622
1.1550920145712144649
1.1550836101879760065
1.1551231668695651766
1.1551902622455385572
1.1552454574953825439
1.155262820149019598
1.1552444685934915025
1.155223137412444423
1.1552331667640993729
1.1552974047375150768
1.1486792209726550684
1.148630282121075874
1.1485756114812610829
1.1485082229663583497
1.1484226968883919362
1.14831668376810625
1.1481946683981678614
1.1480657169523988959
1.1479439080590407851
1.1478420796614325905
1.147770822237910826
1.1477360290292482059
1.1477360171250299281