/*--------------------------------*- C++ -*----------------------------------*\
  =========                 |
  \\      /  F ield         | OpenFOAM: The Open Source CFD Toolbox
   \\    /   O peration     | Website:  https://openfoam.org
    \\  /    A nd           | Version:  12
     \\/     M anipulation  |
\*---------------------------------------------------------------------------*/
FoamFile
{
    format      ascii;
    class       volScalarField;
    location    "0.0071";
    object      k;
}
// * * * * * * * * * * * * * * * * * * * * * * * * * * * * * * * * * * * * * //

dimensions      [0 2 -2 0 0 0 0];

internalField   nonuniform List<scalar> 
75962
(
3.6110865141648612728e-05
4.7171589490887276075e-05
6.0017942007919163441e-05
8.4832875532834481911e-05
0.00011369020857264838732
0.00013365683449165490448
0.00014528990023917774319
0.00016251566601922499858
0.00020654088488588715085
0.00026541310952046175218
0.00029938171747995835159
0.00031476401773523676525
0.00034050440883376343823
0.00038803545238041107926
0.00042960012206568506769
0.00046378159222470435917
0.00050369673339783062153
0.00055043611723405120196
0.00059557493287632943483
0.0006379207963753459219
0.00068514280327849463176
0.00074380270886641988628
0.00081416102809989143209
0.00089225007511066012703
0.0009692161787393395846
0.0010314077899716720885
0.0010699977703335530714
0.0010908924298509052944
0.0011129955683813505356
0.0011589736061421722531
0.0012670362344134402949
0.0014020755418839802014
0.0015237264809567602989
0.0016138500375757699763
0.0016658195090516083985
0.001689860754767445435
0.0017111073366563363946
0.0017569676644238001705
0.0018908402538332506112
0.0021057520017422597797
0.0022841245804608961527
0.0024094845280141908954
0.0024978810897499947354
0.0025764291119351142613
0.0026597848088173005679
0.0027404597914346315833
0.0028049040978461981487
0.0028518611680183134777
0.002891307659812379291
0.0029309942135337836711
0.0029701324273257619091
0.0030042482109693007843
0.0030302563633928664144
0.0030511465131972579333
0.0030804459750342402108
0.0031412698300122632658
0.0033020357092774258942
0.0036243116595910456965
0.0039472329672325077998
0.004200464094565663567
0.0043513337795688545456
0.0044152089799810523632
0.0044351521744437740272
0.0044505918079131533138
0.0044824703358637670372
0.0045473658928728219464
0.0046421678637569669876
0.0047635713487527570065
0.0049012751346258990465
0.0050357725786585689695
0.0051426894410244745198
0.0052062199527263671936
0.005235989513640390558
0.0052643288949267555074
0.0053266830168227381065
0.0055115877442790854948
0.0059009038165816910318
0.0062435680797758939115
0.0064808600412150961859
0.0066131715523462010486
0.0066703766185379296388
0.0066882783051629927235
0.0066954363181926960721
0.0067068231029687513586
0.0067341209346565141999
0.0068102395079537546285
0.0070197029875094683546
0.0073006749859867324168
0.0075608578026624207249
0.0077604878280782578145
0.0078728820073719323752
0.007906976039072841772
0.0079066351610700743441
0.0079064948557286390124
0.0079426288538380854926
0.0081435386590075087981
0.0085409003878720527597
0.008815378475350337667
0.0089797298680766440837
0.0090803828723047645688
0.0091535950988766642822
0.0092129781269840588243
0.0092593622632896627894
0.0093014919696054586956
0.0093676322248089638478
0.0095121449868499161756
0.0098558647484097948455
0.010257611058808764962
0.010571599422170169583
0.010739292365191862103
0.010782707178029850292
0.010779451161490944539
0.010766896366700766732
0.01078038047115754787
0.010896372984544338072
0.011331369820918122532
0.011882209665245389504
0.012316785986253938126
0.012643808263495507835
0.012861594659441907829
0.012977084131783996751
0.013016646945844768599
0.013023934005482611792
0.013033828211443722681
0.013075020889763516035
0.0132428342538160361
0.013477182243390816926
0.013601560673268987822
0.013635727652338306901
0.013630406861818817124
0.013578976383705195635
0.013400724816479886448
0.013232266095303035769
0.013157513985328009309
0.013149590226709218302
0.013189947214741140277
0.013426051464167964092
0.014150406124041581615
0.014804561027671124876
0.015157401422821603285
0.015326866786862028413
0.015532225650181936266
0.015949399210291884121
0.01655824389676074232
0.017240541248273705266
0.017842215761044954297
0.018244137496665407266
0.018415947562192152426
0.018435950896065506077
0.018372096593892828231
0.018084787288457408738
0.017847364243642065834
0.017807157122377403891
0.017880010662384180492
0.018328733593873530044
0.019313705305239639576
0.019934458149849697273
0.0201926936067925826
0.020249737193108456601
0.020249036936602095998
0.020248680473144681224
0.020263665098628300121
0.020271766633945281777
0.020250603160423857191
0.020105978322538256564
0.01959606091022336738
0.019051247393122056062
0.018743324240649728019
0.018623352177362249155
0.018606485006373473662
0.018627050601820221293
0.018736646399354132259
0.018907732004058552117
0.019014384336132044567
0.019070416721843622826
0.019093334385146931709
0.019098063995125577619
0.019095547692431900921
0.019075352057207173306
0.018997169083136040968
0.018838966001441890402
0.018703911995556137676
0.018602171743124049086
0.01853763943227158123
0.018501956863219558291
0.018488010684073866163
0.018486075078655163362
0.018490218046057209367
0.022013960444661778704
0.022097938641225705475
0.022164892148338530969
0.022220520047467402086
0.022270057491246043196
0.022319638442081426305
0.02237353507596707633
0.022432936440255228649
0.0224996576654128283
0.022572419829760700938
0.022648713390281387942
0.022725210511803962954
0.022798609359091760729
0.022866458890503198187
0.022926708492629201824
0.022980025601225424758
0.02302716848912823161
0.023071159497866665367
0.023115844342420182461
0.023165328742444264709
0.023222295715466117344
0.023289624648432899479
0.023368231625067757695
0.023458551392367094773
0.023558821599953452125
0.023665668259452675437
0.023777437293999927059
0.023891171816808089157
0.024004222657611803959
0.024113121800956472535
0.024214058982237118139
0.024303078230684473787
0.024376970133040475747
0.024432813925511758651
0.024471231680850833584
0.024493813811310969492
0.024504634201413730277
0.024507706655699488391
0.0245075050206827183
0.024503519713595489637
0.024492235167732086254
0.024482518354803334271
0.024476828114026093208
0.02447256063433100523
0.02446500152894092936
0.024449014195862636689
0.024425639047255368747
0.024397299727616554577
0.024364891976607471608
0.024331051174849200464
0.024296717203438025767
0.02426416079576844062
0.024232915576639736666
0.024203791002412995692
0.024175305969449778498
0.024147776322125474868
0.024120313015025245801
0.024093607528439833082
0.024067520766832082441
0.024042695468882571003
0.024018876347211472883
0.02399616468283927509
0.023974011732732825736
0.023952567709752972669
0.023931546109903781977
0.023911489595271315928
0.023891814420660743151
0.023873216717619851618
0.023854816012987854756
0.023837475000245366558
0.023820114797928736844
0.023802744672787489594
0.023784309662748581715
0.023764144745067005554
0.023742312031565303981
0.023718446568006930353
0.023693772470363628352
0.023668280431629974692
0.023642887987619761597
0.023617254184439939735
0.023591748069309685654
0.023565982076630753034
0.023541172484017967165
0.02351656690938803973
0.02349380971341180277
0.023470824436254762724
0.02344883796066726464
0.023425429352512360665
0.023401905780440875743
0.023376563803072777925
0.023351111664526379152
0.023323883322392439249
0.023297268344159519776
0.023269183871051736523
0.023242789718099877982
0.023215419534636013571
0.023190078759330719216
0.02316341587535995783
0.023138390934341727251
0.023111468217473587344
0.023086307548802680739
0.02305933490298367472
0.023034222778900055595
0.023007383938842381615
0.022981727046665539893
0.022954063998621907633
0.022927464286343401945
0.022898719807862778081
0.022871805045451526484
0.022842952832105342664
0.022816486010448281535
0.022788447216091616693
0.022762867746566158716
0.022735573079546798209
0.022710842798091573913
0.02268377241745295203
0.022659487348843959653
0.022632644515667009466
0.022608472837042172671
0.022581706685318083533
0.022557142011700406781
0.022529750898514486201
0.022504787141662326022
0.022477442825288858341
0.022452704059826227717
0.022425639101713343293
0.022400436041259286918
0.022372225073930777223
0.022345880825512091233
0.0223163673381756196
0.022289359919753445188
0.022259559983448685277
0.022232691557180744857
0.022203267555662899863
0.022177132074102760828
0.022148249607545307527
0.022122600930772413214
0.022094131274608769244
0.022068897186700926066
0.022040951338792223041
0.022016388031805996656
0.021988997077953757742
0.02196472925818453506
0.021937501484096639387
0.021913049579586247467
0.021885597560298820918
0.021860608161436242969
0.021832513465179712031
0.021806896378427292199
0.021778017955154022056
0.021751813022732699454
0.021722598107196906814
0.021696188545282869137
0.021667465797790878834
0.021642168658137880821
0.021614668289143608437
0.021590863019906800235
0.021564554414494969264
0.021541809782122299521
0.021516168690636962996
0.02149382235702108554
0.02146768037896187864
0.021444797224079929776
0.021418082246108405969
0.021395113865147696863
0.021368918305555997805
0.021346686928777468262
0.021321427041008009923
0.021299511551441517587
0.021274419155764140443
0.021251966542444305358
0.021226048293626866709
0.021202931824949276807
0.021176541199621364692
0.021153570619219200233
0.021127177907761886949
0.021104172344282950274
0.021077565202504120606
0.021053750473219352141
0.021026720574597080465
0.021002623198839304175
0.020975877083918643279
0.020952478301148432654
0.020926756913013107309
0.020904496220618282165
0.020879444619264601879
0.020857664599538205258
0.020832018602669841872
0.020809539658989784777
0.020783006943534534927
0.020759828756359097884
0.020733260804953503043
0.020710201327676071303
0.020684336514158116471
0.020662157523137159032
0.020637338616883056652
0.020616515295925567225
0.020592699925906766956
0.020572555539246379502
0.020549159484847367985
0.020528699042379895678
0.020504869870170975427
0.020484035112959445013
0.020459780553252687046
0.020439176210071064582
0.02041505228683870507
0.020394837306736638555
0.020371234830502262664
0.020350975098411820674
0.020327772954048781845
0.020307506621157152965
0.020284219497449372527
0.020264252767466059413
0.020240826328795764877
0.020220874708143744825
0.02019724942682209895
0.0201769490824899346
0.020152891510264708125
0.020132333719313718484
0.020108166813417576585
0.020087939326075429647
0.020064568186192312943
0.02004527149154663665
0.020022713091949757847
0.020004654292107789532
0.019982690838527709942
0.019964882485000032958
0.019943405429638974558
0.019925600649301440648
0.019904126723109781538
0.019886493883434375879
0.019865230410240995035
0.019848148570468477497
0.019827020630222725456
0.019810355227933718752
0.019789486087455405994
0.019772635289175184009
0.019751825796416950382
0.019734879711176895462
0.019713865925101346777
0.019697259300895494233
0.019676179188441719065
0.019660210190836132499
0.019640130987612816615
0.019625084318618930823
0.019606278194837220563
0.019592558722955549094
0.019574733881181718281
0.019562037938223940381
0.019545321481379093753
0.019533796757367802993
0.019517704878451412609
0.019506766857272126586
0.019491015239347566496
4.5413740375616243425e-05
6.1398941496732895116e-05
7.0263515161329639122e-05
8.989922839654331053e-05
0.00011702347333216329408
0.00013484209385914913888
0.00015024093263128529465
0.00018088622152811128715
0.00023106046411614742384
0.00028099689405034335241
0.00031157356861691434336
0.00032630754637644567885
0.00034743216938090671058
0.00040323617795792504777
0.00047444235715344272065
0.0005111360902369988966
0.00053546908580598450225
0.00058072513860244704548
0.00063983944167854021542
0.000688138057151565629
0.00072082432417945271376
0.00075811840863202373426
0.00082035459609756792611
0.00090680354019324373172
0.00099469168078237363805
0.0010587156604466854085
0.0010932207345948372155
0.0011160570189886135761
0.0011556553686223247288
0.0012432215107892707721
0.001365035557409820027
0.001486678115719455677
0.0015858141405554805094
0.0016516824613880098493
0.0016874736364425801591
0.0017082811892939226295
0.0017378951040396884743
0.0018057533830692451635
0.0019993522947583824458
0.0022911869548761466461
0.0025249740628999223918
0.0026577925642207434441
0.0027057595510390792387
0.0027218657557302769305
0.0027495887492570581651
0.0028180731153178389774
0.0029001865835133317471
0.0029690451581071146576
0.0030225287209428262913
0.0030638415828276974358
0.0030946688649315188396
0.0031156675216028498036
0.0031309288395734639725
0.0031481189428601312127
0.0031794316086529578191
0.0032503430689337082897
0.0034492622333133979295
0.0038061427119380633957
0.004141198193288533197
0.0043915717553796324718
0.0045377223602912986414
0.0046007621195913242507
0.0046218233128971619034
0.0046386383737001659136
0.0046745023609390786226
0.0047571042565785507869
0.004871252032208508824
0.005001735696668146991
0.0051368021910560644067
0.0052604012322474682714
0.0053553509849782561167
0.0054111162170810923541
0.0054363968386950244777
0.005458167335529062747
0.0055055864998377933642
0.0056455786798632941886
0.0060526561550907666265
0.0065214128417641244184
0.0068608862788962733312
0.0070603320414551855311
0.0071519284673076466766
0.007184481548777438796
0.0071960610465089799512
0.0072072978114475858696
0.0072264316750043876281
0.0072652834965475903556
0.007365050832253033572
0.0075963853007496966174
0.0078366016687935469154
0.0080254341616035791696
0.0081368245290283809645
0.0081765397480612102277
0.0081795293177312471816
0.0081791935332421062538
0.008201964890043262138
0.0083372979817173502315
0.0087271727337390088419
0.0090856078491597710295
0.0093341043721728265969
0.0095028822652178449037
0.0096208028731367169206
0.0097040858768968063508
0.0097589024751010364916
0.0097961991918473836916
0.0098436090107542340011
0.0099441855462476403532
0.010227401938584037427
0.010704194578867787246
0.011098652254510095808
0.011333828831439300006
0.011417653193533928296
0.011424974111397505003
0.011413593782874561708
0.011413168765667888044
0.01146151258979632992
0.011710828012126382747
0.01224356270348215224
0.012690676486094719724
0.013021056644905075125
0.013231352953268566558
0.013337563203346612314
0.013375346281113901017
0.013390638298582861407
0.013419461977739528813
0.013506112462553010456
0.013762373440300618502
0.014031893528166526283
0.014193455129635924178
0.014258516880208087566
0.01426527921846524119
0.014247523713284779984
0.014153035134080164947
0.013986746892563198252
0.013896266972837989853
0.013878032614844737838
0.013899569013252078761
0.014050371069476588412
0.014605933700841081113
0.015273209598583708038
0.015738594087642877178
0.01608394401443744709
0.016430254310069270646
0.01688644150610632208
0.017487712666100385661
0.01816161956731660726
0.018770250609832395128
0.019189129640554331013
0.019375545587150679733
0.019399494624711372676
0.019335164831872989066
0.019028724051474113499
0.018745359467410068616
0.018681454364574339583
0.01873260251212182162
0.019083144359159240344
0.019962837328778886697
0.020578703525206566011
0.02090500859098794878
0.021100745344800150849
0.02128267397224309701
0.021472408261556510944
0.021617139360016621175
0.021676462381450378736
0.021670820017728513462
0.021566488361280649472
0.021105552349127646578
0.020455854082747935985
0.020075574982367037219
0.019921079841748796924
0.019894599669729454844
0.019911997644773381244
0.020009527396006001471
0.020155392888303123172
0.020238952216729024641
0.020277604159621622631
0.020288976128549292971
0.020289287892139556274
0.020278005677938224643
0.020226392063305488611
0.020072562581230208451
0.019901913457753776099
0.019771722611164541106
0.019682155681690596122
0.019630048409491437922
0.019604376853639655237
0.019597307613193160752
0.0195983196443783661
0.019608918597761287872
0.01965804551993778973
0.023097732884180575269
0.02321370141963706793
0.023296187002364056318
0.023351076028514945737
0.023388512282795592689
0.023417141295016472013
0.023447274165751846864
0.023486756865029542046
0.023539121958387851374
0.023605001819951124814
0.023682991165604658917
0.023769048560653122104
0.023857657746462299087
0.023943896785789658271
0.024024462174979433621
0.024096539411744794662
0.024160543053102067484
0.024217872175692264219
0.024271642267284607164
0.024324887637565250492
0.024382343131440335077
0.024447256357909976504
0.024521855879630957004
0.024608117051670964914
0.024705538612517587843
0.024813667771715144234
0.024928373521674745267
0.025047922527444529267
0.025168728622700076852
0.025288058137103965745
0.025401618606984789628
0.025506595607017915062
0.025598301066252604485
0.025675169960805616781
0.025734652886386450571
0.025776725589363929519
0.025802948075648854398
0.025816508048123829738
0.025821795699221831294
0.025822589384736104046
0.025820696103757517087
0.025813822302608552955
0.02580612488351225961
0.02580131539061693291
0.025797189818677745271
0.025790168727908107521
0.025773133761917348811
0.025745740760831761773
0.025713328603756840235
0.025677627290020477863
0.025640262937615735522
0.025602884919525642493
0.025566600342266345564
0.025531998315393669707
0.025499026127907747918
0.025467570545694016154
0.025437035184057425752
0.025407572473673933205
0.025378722405666014061
0.025351281767255311184
0.025324705239689625225
0.025299589117037783043
0.025274923719584292681
0.025251061166020168092
0.025227307447039670069
0.025204330663891688635
0.02518184171160422688
0.025160189777744867978
0.025139049682460817142
0.02511851400280635388
0.025098226041135960479
0.025078391179602883138
0.025057963183417061859
0.025037300862277744179
0.025014708043805553017
0.02499128397698273385
0.024965547827684914789
0.024939664874269941441
0.02491259060890082741
0.024886355347272067634
0.024859477061006985538
0.02483343225234235091
0.024806544014537853377
0.024781067681552242099
0.024755035567640696487
0.024731214294272135801
0.024706519771132671309
0.024683394308896520336
0.024658408221842890995
0.02463397521515325525
0.024607176172831694838
0.024580743653153973999
0.02455202097599402597
0.024524518969197901114
0.024495241715958356032
0.024468295699583364478
0.024439656597792430714
0.024413412852400877967
0.024385028987178536397
0.024358818223434483552
0.024330167774157140936
0.024303673151618594012
0.024274585432565092685
0.024247566655371772387
0.024218124884978091405
0.02419059163239217769
0.02416066048121338905
0.02413265432752912526
0.02410211913909328374
0.024073988520311399159
0.024043501695228033238
0.024015900716572672474
0.023986186607376076135
0.023959490875083609696
0.023930492792530091289
0.023904678080866728629
0.02387602477955994007
0.023850722476333637012
0.023822338677446305844
0.023797179067307116379
0.023768888511463387436
0.023743503212868593416
0.023714756242267064079
0.023689047224329459057
0.023660228654238023294
0.023634507336213052969
0.023605564108224647013
0.023578999326310356999
0.023548529438763312477
0.023520549885854096644
0.023488816950479080026
0.023460409458878898198
0.023428833876708327066
0.023400941213113125861
0.02336994585145395209
0.023342885414290696217
0.023312343844728716791
0.0232857494263607398
0.023255659090520592464
0.023229409465053425798
0.023199824947013687054
0.023174157298408097627
0.023144988108778238173
0.023119558563530980683
0.023090446943199626623
0.023064881297293716306
0.023035669125678816249
0.023009947500587830949
0.022980534383346688104
0.022954484622738548921
0.022924328253078548462
0.022897489423400314845
0.022866579617615404724
0.022839301135898094214
0.022808839485375397016
0.022782721261055207534
0.022753687818093414064
0.022729117541509035599
0.022701127382575216063
0.022677320484744800666
0.022649596713592415331
0.022625902022050385642
0.022597703462848246075
0.022573663802425161795
0.022545372070681680282
0.022521761368075463722
0.022494389271573003719
0.022471902925480593399
0.022445524784643899885
0.022423239009085094847
0.022396581907940228684
0.022373218199509124771
0.022345264300706497995
0.022321061995614736168
0.022292677223574260126
0.02226873800071451151
0.022240575867209781691
0.022216613492059906348
0.022188101353865438692
0.022163409977618737934
0.022134509990332305873
0.022109738473291708216
0.02208136357668149391
0.022057591066801988944
0.022030446296845019455
0.022007875289869895108
0.021981471846165747536
0.021959253478215947503
0.021932104165831044218
0.021908822684521590124
0.021880347940685516972
0.021855861422307117092
0.021826726814963837153
0.021801972425838610226
0.021773391986034420359
0.02174974079277350314
0.021722795434954336041
0.021701189538022372383
0.02167584429962010617
0.02165539269827590485
0.021630538737813561484
0.021609757190165564122
0.021584263825199491438
0.021562783738217426721
0.021536614721999022132
0.0215149221598662857
0.021488514927045353903
0.021466967397810256951
0.021441066972239301164
0.021419841207856778892
0.021394706534183134672
0.021373994566927508737
0.021349229358525779326
0.021328893146739750369
0.021303930113498889543
0.021283533203609331097
0.021258098090151538589
0.021236964819776240482
0.021210685354444411277
0.021188908716427458379
0.021162466198039173171
0.021140872978896749906
0.021115331830913582067
0.021095077906588668992
0.021070592569112811532
0.021051884253282571874
0.021028115100480342797
0.021009909848284935574
0.020986517696685785123
0.020967958580528970464
0.020944478516222442277
0.020925773463381546619
0.020902375435454312314
0.020884233792459374474
0.020861051628892818277
0.020843587761593281721
0.020820726160004625338
0.0208031591241082843
0.020780565287141269937
0.020762959244633016204
0.020740267043010063991
0.020723082860894286722
0.020700360413393553011
0.020683811438654890053
0.020661915855114454388
0.020646198497520220488
0.020625544142173549839
0.020610962359671886057
0.020591393037096387963
0.020577688133737885579
0.02055909325554752462
0.020546498550358470447
0.020528301006156397107
0.020516197940349204659
0.020498259554434912488
4.267217548571728043e-05
5.7442173347657358052e-05
6.6966848588095349913e-05
8.8803513195489153014e-05
0.0001255736595733169419
0.00015215214067817455662
0.00016652760792828532168
0.00018343553450341369194
0.00022428421009286996337
0.0002826786172261340469
0.00032272636031080681159
0.00034116535557073734064
0.00035883228877155778219
0.00040217603903980819009
0.00046864907170226187665
0.00051601685314994739061
0.00055171087317598286812
0.00058968469702565999655
0.00063311956860031789237
0.00068418591858725663016
0.00074971522980957661531
0.00083245975052720952003
0.0009251144737655482694
0.0010147359027619128665
0.0010898600327242430243
0.0011418834593016503193
0.0011701807190849700026
0.0011863135163755963997
0.0012090291655485220761
0.0012613895087344763335
0.0014014752117838154277
0.0015729563833081700638
0.0017045955552208423307
0.0017845670000107502224
0.0018220412275454526876
0.0018393475371635764973
0.0018628736997936652057
0.0019215917404372632061
0.002107931052353526416
0.0024077708004647665682
0.002644600649339393008
0.0027897079271091240575
0.0028593187382314898433
0.0028896389969359733731
0.0029136024504147648925
0.0029491773445488723808
0.0030020761837419112326
0.0030687830540574007575
0.0031450410673172549646
0.0032234356430112885011
0.0032916628955572614819
0.0033402140237711098504
0.003368408259990611324
0.0033852763741060248014
0.0034065218242105483638
0.0034511365599632537644
0.0035715768095434872846
0.0039001539576269225913
0.0042911852185828977535
0.0045998143184806175587
0.0047955348226907997672
0.0048928896597585855299
0.004931084164935992456
0.0049506720055545530568
0.0049831263041074744941
0.0050571235947147619855
0.0051773633287157325156
0.0053174271969647322889
0.0054560165314981234549
0.0055703777735602467286
0.0056447965518463903006
0.0056796161015080807652
0.005692907383482849297
0.0057094730960913662662
0.0057542075714767529707
0.0059088777700161366699
0.0063518006737838250686
0.0068059783631015868463
0.0071094181949642957369
0.007271685744522696053
0.007338141220054693499
0.0073616654801671637179
0.0073831526388724970367
0.0074262696727161259594
0.0075317928785704714098
0.0077406691182854226244
0.0079744392886406285925
0.0082060761710351908665
0.0084026516916220830855
0.0085306407325244377332
0.0085824849798412355256
0.0085877582328794822147
0.0085770957725532590704
0.0085737730113604280341
0.0086107786242560647311
0.0088273302354746202569
0.0093732154829198940232
0.0098013109010562822487
0.010058186309710620207
0.010195795816235898867
0.010263463332055166796
0.010295272174094692932
0.010314269941036667902
0.010340750087896248555
0.010398281186599307724
0.01056105020539606712
0.011026780519156417423
0.01154464287790073207
0.011879613302005601755
0.012020800387729889749
0.012041643715850551891
0.012017615887761972163
0.011942904018785853795
0.011918050982960341072
0.011936275598945660092
0.012075202175583051728
0.012513618132840862232
0.012942091535746725814
0.013230650546773298562
0.01339751061519846298
0.013476112173672716993
0.013519146113044808871
0.013587612491122459321
0.01375926437165229943
0.014109814911812977589
0.014439740270344249978
0.014675682170000838717
0.014799482790476863742
0.014836184138480874861
0.014833947840249750091
0.014791685717193038194
0.014642227445741113137
0.014511378683704277345
0.014463945265971282078
0.014466109986160123613
0.014538351200752029288
0.014891477005484288557
0.015884157572011038673
0.016773167832038582414
0.017296153087082634381
0.017526934721597525746
0.017627813639582809446
0.01777605782340117499
0.018153620965859935954
0.018914045139326922385
0.019626425687301714967
0.020107589040777695821
0.020315445072967900503
0.020336958089927515553
0.020247392501274691368
0.019859765920942025474
0.019548543349456288382
0.019491734005955874826
0.019570957863066590354
0.020069085471037879237
0.021172434299543272523
0.021878382584968096569
0.022212910680931716167
0.022382399431939776352
0.022546501055216373183
0.022746592507958334622
0.022919250605018572087
0.02300176210983129188
0.023002631457127456494
0.022917165346150812633
0.022498579955617131754
0.021757426802646955694
0.02128166425861582195
0.021057776251558631836
0.020990678682036367081
0.020987900265459394356
0.021006861579695793041
0.021086795243502470115
0.021197389610443314462
0.021282644122688397503
0.021343122091403380486
0.021376538426598548637
0.021384244203256318195
0.021379725225737000738
0.021350059767338506328
0.021237592975724087913
0.021054710269788935034
0.020923355679192172374
0.020845388176310420542
0.020807610961762531415
0.020792561423735415882
0.020789528442496384847
0.020790557833710695407
0.020796133020131793434
0.024328801411021099693
0.024399570744849160414
0.024459939606436467002
0.024513619348942201903
0.024566116374610660889
0.024623646068647857266
0.024692290709287269962
0.024775921822769591402
0.024874107339347278911
0.02498309450159502676
0.025096989201061299657
0.025208472901810833472
0.025311250005970863108
0.025400955358757994901
0.025476732798711283073
0.025538722565800284908
0.025589551864056203634
0.025633008453798442061
0.025674036044803390938
0.025716552299139744386
0.025764654290014232796
0.025821273725518786163
0.025888626898501094359
0.025967738609601914712
0.026058639824893307935
0.026158909743503107326
0.026266160429820901295
0.026377553056568723427
0.026489531119496260297
0.026598398609789252606
0.026701274563030587966
0.026795767687514484429
0.026880459683305053808
0.026953938148011002962
0.027016354188157763044
0.027067484561630248546
0.027108575858653019552
0.027140557495368682756
0.027163419772439884037
0.027177938871629857276
0.027185724820825214743
0.027188703304114766185
0.027189109383715329843
0.027188727214036905594
0.027188394640871287739
0.027188378365944378123
0.02718816484933387484
0.027186380248055627695
0.027178681331621813017
0.027154226102415052191
0.027109643737391320856
0.027063982376623857418
0.027016848612110903188
0.026972061947505707874
0.026927972456392876288
0.026887392205019160912
0.026847841678312830277
0.026811477175583957322
0.026775757236500850877
0.026743055788690666547
0.026710898358183618462
0.026681528793199012911
0.026651916336259750401
0.026624450302239626581
0.026596110258695345591
0.02657005857347769992
0.026543056765175779277
0.026518692952308582644
0.026492821691028220488
0.026469606442889107023
0.026444410159790706499
0.02642169281139370926
0.026396700065946836905
0.026373319582961837759
0.02634709172104005015
0.026321501255780435646
0.026293038777961259128
0.02626570079844118763
0.026236291215734966475
0.026209287684552520087
0.026180106104326496957
0.026153525320632593776
0.026124201078203460741
0.026097725136852888833
0.026068904940151245431
0.026043383614751551558
0.026015551061320939252
0.025990629415205808439
0.025962676180743660126
0.025937228848950798221
0.02590801507660291797
0.02588101835854981006
0.025850203970198864373
0.025822104964138330174
0.025791092979748297953
0.025763633415719532777
0.025733123732346024209
0.025706272102547549074
0.025675647241374825736
0.025648815750717243733
0.025618007324526511498
0.025590524479539852182
0.025558888624776131965
0.025530333193970335126
0.025497865165480942951
0.025469207471229785011
0.025436517907318035442
0.025407780555800528466
0.02537484741964739221
0.025345856474673869596
0.025313235412670314489
0.025284879043731754017
0.025253026436721826703
0.025225703887803617442
0.025194449035797459452
0.025167859731157427028
0.025137064958378165652
0.025110733297235142414
0.025080049348651989316
0.025053733005299585329
0.025022913342909600815
0.024996597787583969136
0.024965642929540687173
0.024939224553980721827
0.02490817695953750216
0.024881631696743178317
0.024850096122490228367
0.0248224244975663276
0.024789151058925887328
0.024759770830792646873
0.024725309927630494122
0.024695740256127411694
0.024661911748077823547
0.024633326780819749663
0.024600430634505454641
0.024572665971681360852