/*--------------------------------*- C++ -*----------------------------------*\
  =========                 |
  \\      /  F ield         | OpenFOAM: The Open Source CFD Toolbox
   \\    /   O peration     | Website:  https://openfoam.org
    \\  /    A nd           | Version:  12
     \\/     M anipulation  |
\*---------------------------------------------------------------------------*/
FoamFile
{
    format      ascii;
    class       volScalarField;
    location    "0.0071";
    object      k_0;
}
// * * * * * * * * * * * * * * * * * * * * * * * * * * * * * * * * * * * * * //

dimensions      [0 2 -2 0 0 0 0];

internalField   nonuniform List<scalar> 
75962
(
3.6123361047809934875e-05
4.7165425184554671701e-05
6.002771552423144454e-05
8.4854485300119505422e-05
0.00011369061510316682379
0.00013362534073364784864
0.00014524785589148156277
0.00016250771954031951972
0.00020662944528519570919
0.00026545582075444650169
0.00029934169284414794505
0.00031471158179230971155
0.00034050434048224731366
0.00038805064329117648506
0.00042958384317215566814
0.00046376183903477799595
0.00050369589039049578443
0.0005504414471990602643
0.00059557004956627211233
0.00063791851058819944685
0.00068516284753640684362
0.00074384291582102078297
0.00081421853546992395152
0.00089231666814654014234
0.00096925492161768777872
0.001031379789014322864
0.0010698960718013392646
0.0010907580932566099483
0.0011128941243651786514
0.0011589852118642745681
0.0012672393040327250766
0.0014022701265597400672
0.0015238364624247445304
0.0016138294516340717221
0.0016656779804686849301
0.0016896644804448193548
0.0017109449137976296285
0.0017569433621261896714
0.0018912419506648765668
0.0021061404140622456971
0.0022843305305241048964
0.0024095043014254772726
0.0024978061761254965502
0.0025763646101863275049
0.0026597431220274879438
0.0027403787250196453597
0.0028047496140931236185
0.0028516647955161801217
0.0028911093551442857211
0.0029307980629034941292
0.0029699250246632948394
0.0030040240501293122635
0.0030300151173297562059
0.0030509052452659364899
0.003080257428234246548
0.0031412437661669390804
0.0033025883586486007998
0.0036250591567015279758
0.0039478486573620297229
0.0042007793867176995012
0.0043513182385912464387
0.0044149614424843063726
0.0044348179360463174659
0.0044502756050525523954
0.0044822347045833351234
0.0045472250274623199698
0.0046421132863514518938
0.0047636023368523641719
0.0049013509352607191952
0.0050357997532521807729
0.005142571530577851914
0.0052059461344528372428
0.0052356594562170980997
0.0052640685746601295972
0.0053266324271717185521
0.0055122904308706815665
0.0059018274329778082354
0.0062441663828325727134
0.0064810540062419270957
0.006613019771017745671
0.0066700111832937846595
0.0066878364862704726274
0.0066950095488958203185
0.0067064455992223810307
0.0067338471775175339287
0.0068102581052856625901
0.0070202476474227303027
0.0073011900421599499472
0.0075612052596490545234
0.0077605452490954471637
0.0078726134494269146141
0.0079064921739206150963
0.0079061070821595212654
0.0079060062226480945502
0.0079424301127340272977
0.0081443957569435482258
0.0085416343321803554767
0.0088156816437086945454
0.0089797381710228878215
0.0090802578284859252616
0.0091534118827821635278
0.0092127398983478988453
0.0092590742942471656457
0.0093012169558543533049
0.0093674991057223922636
0.0095124552157190515184
0.0098568158979847764894
0.010258374008613945286
0.010571905157485626467
0.01073910191981220473
0.010782238132752638288
0.010778912871044628655
0.010766358437352541513
0.010779963246729810239
0.010896668935158114119
0.01133309571930795831
0.011883600549515607736
0.012317774427273687002
0.012644349178479119544
0.012861662328209224823
0.012976761385529349616
0.013016120615453341883
0.013023394197899754512
0.013033358770822713046
0.013074798331764328138
0.013243259123703410643
0.013477326998977976272
0.013601274558841027276
0.013635165934919216135
0.013629731235863135411
0.013577994051529247363
0.013399361112770277749
0.013231306411338709592
0.013156918473955893714
0.013149177171504012121
0.013189872999992847263
0.013427319458632569482
0.014153107475926440459
0.014805987305861523229
0.015157807384821860713
0.015326912561251720274
0.015532695383547033552
0.015950686275078611309
0.016560083206633633562
0.017242418965415753224
0.017843569191250831241
0.018244633974553940703
0.018415661114004108073
0.018435316561387634499
0.018370961176927973896
0.018082906471272343352
0.017846393293126507767
0.017806720428368848913
0.017880207020542836921
0.018331513461390915726
0.019316372184646393717
0.019935376040496548267
0.020192441562113312703
0.020249025075701889559
0.020248307905136216089
0.020248032131624908031
0.020263114446771320065
0.020271130323514026383
0.020249751353463803227
0.020104235119901180812
0.019592917901147029885
0.019049046720357776935
0.018742058495250738664
0.018622709188241774042
0.018606067900133933107
0.018626779808971552499
0.018736852252520929535
0.018907759786332408586
0.019014188587260165419
0.019070085976002650735
0.019092932194433205606
0.019097622686218448246
0.019095058098782657224
0.019074703311791861571
0.018996113533495846692
0.018837890773601699557
0.018702994951117237615
0.018601442367818996765
0.01853707063818603798
0.018501492094206796468
0.018487597496795172419
0.018485672039687747747
0.018489849129772487069
0.022014107831882838429
0.022098014951914619203
0.022164907968094570839
0.022220483540626913971
0.022269978348447280747
0.022319531832812575939
0.022373416143774395304
0.022432824178015342564
0.022499570315873424625
0.022572363811272228018
0.022648685414856328108
0.022725204845424732542
0.022798617041671770389
0.022866477039155241185
0.022926736206605319301
0.022980059387110934183
0.0230272033781103308
0.023071193349793874677
0.023115880315554268587
0.023165376511696873785
0.023222369808737802072
0.023289734607793204091
0.023368374042041190758
0.023458711647092986979
0.023558979431652030817
0.023665814960779560372
0.023777579003097768645
0.02389132081401826313
0.024004387496274037783
0.024113297282168343061
0.024214227415318131942
0.024303217064006336912
0.02437705796400676736
0.024432838865670797324
0.024471190897058934383
0.024493708552193287076
0.024504468337043540382
0.024507487354792342749
0.024507243881352728382
0.024503202367286439078
0.024491897573690964846
0.024482224581626205878
0.024476584610330399949
0.024472347388975908972
0.02446477965047964831
0.024448744039921102567
0.024425318192619917962
0.024396932920984566034
0.024364504198343631819
0.02433067635635432005
0.024296383013830084169
0.024263875930470794884
0.024232668360656017814
0.024203557289586320744
0.024175059782969937627
0.024147500104020325901
0.024120001699398069261
0.024093269381773255861
0.024067171842131983989
0.02404235369775167136
0.024018554344995089039
0.023995866701730570597
0.023973735027286668942
0.02395230760410571591
0.023931302245106186866
0.023911267291474452151
0.023891623593400839604
0.023873064724174327539
0.023854702448549012367
0.023837387741252966805
0.023820030044124543278
0.023802634661209579742
0.02378414837247514943
0.023763918558447755247
0.023742020711775894265
0.02371810331321582907
0.023693396411513700101
0.023667889828251503087
0.023642498313890834838
0.023616878334910322568
0.023591398563562425428
0.023565672574110647225
0.023540912217922933813
0.023516359283083376752
0.023493646287753813806
0.023470687807479080622
0.023448705133570373754
0.023425276980142184513
0.023401716074485597735
0.023376327241791394762
0.023350828432442523319
0.023323564485453265882
0.023296929771457752789
0.023268843644096606771
0.023242460381027708893
0.023215106714159796514
0.023189780325497927338
0.023163125363210333024
0.023138100086736529404
0.023111171696932407416
0.023086002319369389874
0.023059019825361220385
0.02303389753648794197
0.023007045854756803804
0.022981374045757049784
0.022953694303172528929
0.022927076664449892035
0.022898316872298596358
0.02287139067242916976
0.022842534572340849469
0.022816073152272613872
0.022788048237745772706
0.022762488079683420444
0.022735213997875074882
0.022710498831175700285
0.022683437046825814798
0.022659153333666554042
0.02263230791941411163
0.022608134199501934286
0.022581368212525702865
0.022556807275532452656
0.022529423008938315176
0.022504466915416763972
0.022477126868883375022
0.022452386353147713721
0.022425310815272502668
0.022400089957899986526
0.022371859039978313211
0.022345497081486444951
0.02231597447353678848
0.022288968404556491754
0.022259179823722066716
0.022232329263787885959
0.02220292547578281428
0.022176807289263380379
0.022147937030167378497
0.022122295320280295494
0.022093828824366269076
0.022068596816922140397
0.022040653800978256271
0.022016094170885423809
0.021988706225117161247
0.021964439156976420242
0.021937206955896165067
0.021912744858374643558
0.021885275581497932312
0.021860263442670474499
0.021832142951676708487
0.021806500190126795746
0.021777601051168871821
0.021751384113783078789
0.021722167358146630967
0.021695767264149092707
0.021667062704540100693
0.021641787711413066481
0.021614309964674439241
0.021590523166649045611
0.02156422718662844018
0.021541487718129043866
0.02151584498064549808
0.021493490968534863933
0.021467340429663587381
0.021444450511996733522
0.02141773360067776924
0.021394768878845605437
0.021368579965912758156
0.021346355521909346487
0.021321097291341045699
0.021299178777646494282
0.021274077133990453026
0.021251611339909853848
0.021225678736794741097
0.021202548678411377303
0.021176147316579765206
0.021153167065920328721
0.021126765454686939616
0.021103751387743226869
0.02107713571227037494
0.02105331674385658644
0.02102628756682546271
0.02100219761408058522
0.020975463848116226301
0.020952079647971945386
0.020926370644185624675
0.02090411534834048235
0.020879061319584626966
0.020857269334178848985
0.020831607101375385765
0.020809112146456674314
0.020782569260870308731
0.020759391391526476472
0.020732833445323301663
0.0207097935388659872
0.020683953465279531631
0.020661800560196244558
0.020637006261300681886
0.020616202849291272864
0.020592402501023399086
0.020572268958587165699
0.020548878663142863127
0.020528420809900606997
0.020504591456969496061
0.020483753922189970598
0.020459496524487370828
0.020438888515728968753
0.020414762210498968442
0.020394547001497818212
0.020370944887222946357
0.020350689111025457856
0.020327490920174967615
0.020307227413861126536
0.020283940403332031271
0.020263966997202099984
0.020240528601485247712
0.020220560751225698237
0.020196918424809084947
0.020176604416587303609
0.02015253990497055045
0.020131982206822964659
0.020107821450795555079
0.0200876037283522213
0.020064241954212139879
0.020044951596232162688
0.020022397079558981736
0.020004337424595508566
0.019982370752252724688
0.019964560663741571372
0.019943082200075405025
0.019925278071222216753
0.019903805894904667839
0.019886174756749076115
0.019864911714653949587
0.019847826280795434484
0.019826692070107006932
0.019810017456931353075
0.019789136436173287298
0.019772275104890463249
0.019751456173189449461
0.019734503365684559484
0.019713488733823281152
0.019696884500640617077
0.019675812711016784501
0.019659856229538818367
0.019639791411600729387
0.019624762097645145897
0.01960597501172922294
0.019592274420702208981
0.019574468115583516098
0.01956178969780555596
0.019545088081962078141
0.019533573035962727843
0.019517485646886482964
0.019506545050402866043
0.019490783316509364964
4.5433715388428302603e-05
6.1374300886505122579e-05
7.0245670656836586604e-05
8.9913927242080431048e-05
0.00011702649539210520011
0.00013480807688714797573
0.00015020336737417777574
0.0001809071716732114617
0.00023112398125751969962
0.00028101646322768448994
0.00031151873305388489517
0.00032624137283508361637
0.00034741569121831739932
0.00040333646553919650941
0.00047446816200168655904
0.00051107313072957692105
0.00053542501411442931531
0.00058074124172252867323
0.00063985394553457111862
0.00068810546280246979479
0.00072076888135485844746
0.00075810196896562243116
0.00082040975693203053477
0.00090689327589381504239
0.00099473954306878906682
0.0010586737653760427014
0.0010931062145016290713
0.0011159418272535155409
0.0011556226687473871405
0.0012433460879903706232
0.001365200401991617735
0.0014868045141936939071
0.0015858406427528616046
0.0016515913159091623243
0.0016872984202326859419
0.0017080910584053258378
0.0017377698108334094316
0.0018058429531126387203
0.0019999975375266259604
0.0022917772664449620641
0.0025252532305570559584
0.0026577156010912732741
0.0027054690897279748928
0.0027215618083502837905
0.0027493851099672675202
0.0028180186558765985168
0.0029001008454478966608
0.0029689053041027815664
0.0030223458510425941018
0.00306362029400397088
0.0030944113478399365783
0.0031153920153616271489
0.0031306557129500483735
0.003147870261464199345
0.0031792521458969477677
0.003250375674451522201
0.0034499655321858883894
0.0038069645584176648942
0.0041418185095734695936
0.0043918510803637265255
0.0045376631109650929566
0.0046004784476291176593
0.0046214569744231813811
0.0046382890827682977247
0.0046742508620520864179
0.0047570171743057387825
0.0048712357508316509944
0.0050017745857957266603
0.0051368427452771472583
0.005260365461420353668
0.0053551701604389973996
0.005410792119459930001
0.0054360224142350529325
0.005457854262341858137
0.0055054430648078765687
0.0056460118736570783643
0.0060540227189137801184
0.006522388573802465235
0.0068613318832350085955
0.0070603103569099644535
0.0071516270273278611386
0.0071840813377962190953
0.0071956590121985165853
0.0072069181561363517691
0.0072260825164388465397
0.007265013445144218214
0.0073651291420767876078
0.0075967781007745937422
0.0078368628228219407855
0.0080254649594809161078
0.0081365718204182459206
0.008176072673256921941
0.0081789954455096028352
0.0081786808736153560756
0.0082016456530450247697
0.0083377192889175430479
0.0087282458119226965371
0.0090862032676904749828
0.0093343794937547179547
0.0095029564854480236963
0.0096207363347612494947
0.0097038909818402581398
0.0097585909153859434068
0.0097958366197850432061
0.0098433237926662808803
0.0099441980446929121445
0.010228397437872852743
0.010705225969915067169
0.011099224555967067071
0.011333832434483655932
0.011417258793602330993
0.011424452978430926428
0.011413021726609611645
0.011412633775743367265
0.011461348578177897595
0.011712022562170840145
0.012244987549593426904
0.012691662004374786379
0.013021552001694499182
0.013231367833377643758
0.013337221590626259504
0.01337484247840472866
0.013390147909407202134
0.013419087390692713974
0.013506143828352216649
0.0137630171789408038
0.014032185675886401505
0.014193320742400317158
0.014258045975093995572
0.014264662400847836696
0.014246765029788957535
0.014151832062552773331
0.013985714739155486602
0.013895575139863915876
0.013877560929989039493
0.01389932154644339668
0.014051035338416274084
0.014608330041197371135
0.015274851826083927706
0.015739500067123247951
0.016084524933292342064
0.016431020916461772097
0.016887753419109644698
0.017489532081320219997
0.01816349750313249467
0.018771644643211987669
0.019189663455003145437
0.019375254345561126329
0.019398815453695369276
0.019333967120276032703
0.019026623352143518658
0.018744207498577844517
0.018680937152543982543
0.018732599197859679113
0.01908520090602370059
0.019965443040319601209
0.020579729624736930321
0.020905175327067749419
0.021100697534771107461
0.021282708317572195111
0.021472414599358710663
0.02161686859190591059
0.021675851458816768752
0.021670006504570404893
0.021564929989025666962
0.021102179062902088474
0.020453271070095004752
0.020074086000353850295
0.019920349547278688035
0.019894169002041203753
0.019911710742925539663
0.020009663550167228196
0.020155343152578573951
0.020238683156174615274
0.020277203018366898868
0.020288506984937892952
0.020288785045279849467
0.02027738366357062505
0.020225462177101069527
0.020071248166305632327
0.019900787281787776783
0.019770822688549488655
0.019681470506376794183
0.019629525370879748886
0.019603948305696814597
0.019596913162411858794
0.019597926956424070039
0.019608591402403955511
0.019657998946995935974
0.023098045193032910177
0.023213871410136175527
0.023296226996936595516
0.02335101123978544288
0.023388369030444982472
0.023416948011874560293
0.023447065023740675666
0.023486562481842259559
0.023538966261596280805
0.023604901161679847643
0.023682946700723819106
0.023769049555424890535
0.023857686499475779657
0.023943942134387875137
0.024024520370465093227
0.024096611029240821988
0.024160629133293694965
0.024217967117382315639
0.024271737963608007449
0.024324980642680453513
0.024382437205963770205
0.024447357781236078722
0.024521972385906830316
0.024608250914912838114
0.024705685978218091398
0.024813819390354315692
0.024928526006764487738
0.025048082854183736923
0.025168903014902717363
0.025288243853553001028
0.025401801311130012273
0.025506751687384560112
0.025598408554780498897
0.025675216559460568855
0.025734634771386787067
0.0257766479803064677
0.025802817147816906745
0.025816328142098117493
0.025821568861590617899
0.025822321660857319031
0.025820383092544481329
0.025813479135032946915
0.025805810643838755086
0.025801045778154903243
0.025796955270076176586
0.02578993873144025395
0.025772847874885398273
0.025745412656780743144
0.025712960499881677701
0.025677234676615909303
0.025639870526040452886
0.025602515325763339216
0.02556626362018143972
0.025531689925312708173
0.02549873243062207584
0.025467275807033135787
0.025436728787453715545
0.025407251432664972046
0.025378391277342930016
0.025350948502666840328
0.025324378061155210923
0.025299273142759644978
0.025274619679250223681
0.025250767543837371321
0.025227023616654319083
0.025204060901603573402
0.025181594491586575119
0.025159975079446218055
0.025138872567657982726
0.025118370492469298955
0.025098102100302062401
0.02507826373909282508
0.025057807485237421075
0.025037095223597188171
0.02501444214907241545
0.02499095905313765062
0.024965175861775334293
0.024939262693431267504
0.024912175104487874894
0.024885942042993311474
0.024859080195568639821
0.024833065624184882253
0.0248062213080806164
0.024780796864317972128
0.024754817797281267189
0.024731039541101083878
0.024706369843114424356
0.024683246148798798636
0.024658238544048485807
0.024633766666728167116
0.024606920445016677162
0.024580443391165208294
0.024551689588210412474
0.024524174172814119932
0.024494902113208146671
0.024467972049324302614
0.024439351924738235422
0.024413122097841463004
0.024384743366212803528
0.024358528432488459059
0.024329866984235625632
0.024303357551331339348
0.024274254303586245002
0.024247221473640369338
0.024217765841540894733
0.024190218696396190157
0.024160273046268845865
0.024132252141523313771
0.024101704836359472833
0.024073566099128734103
0.024043077955578560229
0.024015483673959912847
0.023985783735032996378
0.023959106503852939385
0.023930127797876194623
0.023904327433808610082
0.023875682600724760368
0.023850382549201271098
0.023821997659332998926
0.023796837457401572719
0.023768548194444034244
0.023743166374891964271
0.023714423112021775636
0.023688714785103079374
0.02365989052519434574
0.023634156392561417315
0.023605193137341350107
0.023578604725935873448
0.023548114035717621767
0.023520121643859564359
0.023488388566307964733
0.023459993248835343121
0.023428437947258601293
0.023400568061147902776
0.023369593388260254813
0.023342547159208578561
0.023312013346384382467
0.023285421747216903526
0.023255331330601390627
0.023229082372422785174
0.023199500531716248791
0.023173837342617568946
0.023144672923860083735
0.023119246687488128472
0.023090134538966303884
0.023064563929624463945
0.023035340941915446317
0.023009602883289619057
0.022980168327574778536
0.022954094295543354953
0.022923915490257538996
0.022897061274863444308
0.022866146714380336524
0.022838875897986488789
0.022808431353857260004
0.022782334266530042399
0.022753320724988354562
0.022728763598969355803
0.022700778518001729633
0.022676968730545282726
0.022649237816013318564
0.022625535698370044524
0.022597334146278510308
0.022573298543253204895
0.022545017535999158781
0.022521420781854276094
0.02249406048987302037
0.022471579293594508286
0.022445195924637374729
0.022422896300068238806
0.022396218423565865396
0.022372832882656526476
0.022344861258679987737
0.022320646997219095037
0.022292255764949319569
0.022268311375442356725
0.022240142095891111962
0.022216169813539233396
0.022187646105179582162
0.022162947037157675056
0.022134046459343761915
0.02210928440386682875
0.022080927344835982878
0.02205717642929291844
0.022030050374396131091
0.022007489319879326023
0.021981083918331839611
0.021958849366157655314
0.02193167461331215623
0.021908364146667809458
0.021879863747174099764
0.021855362329412496986
0.021826226983822236138
0.021801488010213192215
0.021772935539696735424
0.021749321130876929364
0.02172241614505058746
0.021700847354023597435
0.021675531797425800357
0.021655099973636696142
0.021630254480419320445
0.021609471975612911526
0.021583970095812220202
0.021562476941093117189
0.021536294583536546438
0.021514590673701095014
0.021488177996788902085
0.021466632895391087044
0.021440740696833660017
0.021419528653595240608
0.021394407278185284538
0.021373704548432501116
0.021348941344731097586
0.021328596392607489934
0.021303616111972595304
0.021283194950147060059
0.021257733757416106407
0.021236578823448995501
0.021210286872968827504
0.021188509057823184945
0.021162074071443506829
0.021140494564592538645
0.021114968390964772293
0.02109472613361331253
0.021070249474783451366
0.02105154304121433298
0.021027772031141561682
0.021009564606804285308
0.020986169719031843445
0.020967610587415943385
0.020944131316976952878
0.020925427651367282944
0.020902030534434408449
0.020883885594271331398
0.020860697350769757952
0.020843223399060212958
0.020820348758930278671
0.020802770639044513429
0.020780167392058901399
0.020762555898133965016
0.020739864250086920139
0.020722683676708517769
0.020699970899615904169
0.020683434503982786601
0.020661552665118324695
0.020645850252847309375
0.02062521077934673791
0.020610644641663868754
0.020591090531978693129
0.020577401097860974905
0.02055882049474378262
0.020546234881121613197
0.020528042259969410399
0.02051593764082853058
0.020497990892517813782
4.2650174107987928122e-05
5.7415146805947855782e-05
6.6950337689904157522e-05
8.8830490600652579555e-05
0.00012558224423402122275
0.00015212679118319004878
0.00016648464358243723503
0.00018341441537939897049
0.00022435200049285069709
0.00028272655483552465482
0.00032269504890022405238
0.00034109096862244901553
0.00035878085842850374011
0.00040222693213654399846
0.00046868176294580839863
0.00051598284616044076765
0.00055166049549575351795
0.0005896509252494525153
0.00063310263404466472336
0.00068420083694717144084
0.00074977443355829878104
0.00083254698761750067348
0.0009251970911287157916
0.0010147820771476316962
0.00108984471187817465
0.0011417917236470349462
0.0011700248226374581305
0.0011861384879971374837
0.0012088985819598380925
0.0012614224787546477954
0.0014018078408409809666
0.0015732046334259919187
0.0017046793550968724392
0.0017844837763509276748
0.0018218491633261702477
0.0018391280765197894065
0.0018627006767914856041
0.0019216227268334074799
0.0021085767484811017772
0.0024083499238916807744
0.0026448702794140631876
0.002789670113390944374
0.0028590889092203358203
0.0028893511579610631386
0.0029133471863851526963
0.0029489851915422021257
0.0030019303814448920417
0.0030686646178706492027
0.0031449409886911898308
0.0032233204163513505362
0.0032914967714902224928
0.0033399911977460058216
0.0033681397930303683987
0.003384989689135036936
0.0034062680184024883567
0.0034510030727158539678
0.0035718863439144288643
0.0039011648193214274773
0.0042919822549282189011
0.004600249117802457724
0.0047955963360662486744
0.0048926793755093298324
0.0049307327479681780161
0.004950294684277743891
0.0049828162956832271896
0.0050570064533645544061
0.0051773631168066077193
0.0053174722143998721588
0.0054560158088970767479
0.0055702462912525264882
0.0056445005926603983998
0.0056792010722698689495
0.0056924756707559401661
0.0057091118071355452523
0.005754046323485106397
0.0059094043546941707815
0.0063531795118411263715
0.0068068255312681204966
0.0071097212589718173509
0.0072715809452663865767
0.0073378248474478035071
0.0073613055757107736035
0.0073828432941543779833
0.0074260607090056232615
0.0075319147923466238728
0.0077409372854091934926
0.0079747060852499527389
0.0082062719389536641773
0.0084026836502298085652
0.00853043072156059283
0.0085820506468113795517
0.0085872209436736943178
0.0085765124920070233416
0.008573253336777927891
0.0086105492544686808298
0.0088282629604826013542
0.0093746465332909603707
0.0098020160510467468917
0.010058408255205967055
0.010195718117886460458
0.010263202441974480367
0.010294896343901275074
0.01031384393683611525
0.010340352207319656805
0.010398049050708520202
0.010561474870543730367
0.011028272072515768118
0.011545588994619160328
0.011879832281160213059
0.01202044406428321062
0.012041065700511107556
0.012016869926510709635
0.011942139179335295798
0.011917487281507073774
0.011935903365781532978
0.012075678104453100095
0.012515039236142477472
0.012942909932077084623
0.013230941050584874366
0.0133973725931238654
0.013475726618860033035
0.013518747390070001702
0.013587410332394000631
0.013759745563006416103
0.014110577335023858497
0.014440286195708649034
0.014675830559969996539
0.014799227246191407406
0.01483566297062737481
0.014833318458725146261
0.014790754593220314592
0.014640968265905199633
0.014510476977623533792
0.014463344431152521177
0.014465664342401379425
0.014538459778991612639
0.014893478557197718445
0.015887829618066250104
0.016775250849044326396
0.017296828754912674242
0.017526721033396332888
0.017627470050578249172
0.017776194307976618536
0.018155376561489161569
0.018916359352126058124
0.019628143096134084006
0.020108250884861008506
0.02031514317541715034
0.02033622597147493119
0.020245953111533272761
0.019857358123372331749
0.019547326308253801241
0.01949120260609491298
0.019571131444911085695
0.020072145108710501976
0.021175441237770400299
0.021879546492015275461
0.022213019808973732266
0.022382273714133572862
0.022546539734585886033
0.022746682241754578868
0.022919062402029795333
0.023001158018404323918
0.023001819769372600089
0.022915700698322244433
0.022495099369403276368
0.021754462636156556704
0.021279842395549017353
0.021056820783700490318
0.02099015620995273862
0.020987471230531254407
0.021006550337903329151
0.021086777183357600929
0.021197287518627837277
0.021282431716018113815
0.021342787493426381568
0.021376067196816048166
0.021383668112977281817
0.021379069903113612217
0.021349225372081948038
0.02123632695072337484
0.021053589328234229017
0.020922517949265615617
0.020844776808145649982
0.020807130323967807511
0.020792132602784178103
0.020789110413430494234
0.020790143225364390855
0.02079574657395507481
0.024328879960404281579
0.024399595613092548568
0.024459916111015066881
0.024513560108706682755
0.024566037808085881833
0.024623569669929665227
0.024692240371592625442
0.024775914209845963099
0.024874144734166121068
0.024983165980133604372
0.025097073328171883022
0.025208545237551747975
0.025311294233048686059
0.025400971974240675599
0.025476733212510680598
0.025538723152714562503
0.025589567168942631281
0.025633044080974790035
0.025674087329515579703
0.025716609279858856224
0.02576470976657955006
0.025821327078911916753
0.025888683541088475248
0.025967804819649085296
0.026058717264412611936
0.02615899817459650667
0.02626626290437309233
0.026377671691305185075
0.026489661782794843986
0.026598529751860579967
0.02670138868713442179
0.026795846649627894781
0.026880491309351835227
0.026953922839675178297
0.027016302176948642222
0.027067407749131175421
0.027108479546768263907
0.027140431919551861323
0.027163247564907715831
0.02717770915527608841
0.027185442195154400219
0.02718839079966119468
0.027188801617463172894
0.027188450224400258215
0.027188162525433420824
0.027188183072578687299
0.027187986003160784926
0.027186186300901374335
0.027178425480611657222
0.027153834939741390564
0.027109210813303748905
0.027063538843485945851
0.02701641113625500093
0.026971640680019944719
0.026927570929629406071
0.026887010164474308554
0.026847477484746321008
0.026811129040690974412
0.026775422691705207112
0.026742731286465638157
0.026710579798758411763
0.026681211782682512368
0.026651598227768278498
0.026624130762158373931
0.026595793982886365564
0.026569753705352926881
0.026542774999282668646
0.026518442498373373528
0.026492605358511389646
0.026469416336563304087
0.026444229990872963193
0.026421501622362755096
0.026396477022824608311
0.026373051295545561767
0.026346772795941338086
0.026321137029797152251
0.026292641043368536469
0.026265283894515895763
0.026235869476529678768
0.026208870944680762866
0.026179704910200208429
0.026153149284559785992
0.026123860686932585951
0.026097427635181885686
0.026068651470123445357
0.026043167066477673072
0.026015356404340179292
0.025990436684075985535
0.025962465671263073447
0.025936984550446327141
0.025907730344960328006
0.025880697516158877175
0.025849860930640188722
0.025821758451488562025
0.025790759232531768053
0.025763319837960818592
0.025732830163070149337
0.025705990084227938602
0.025675367274746029034
0.025648528201656785319
0.025617704435182041267
0.025590202927103612024
0.02555854763172346264
0.025529974616538365917
0.025497491649377791723
0.025468818740244075077
0.025436114010997733226
0.025407362586346179251
0.025374419004187197951
0.025345424866437607503
0.025312808005169423059
0.02528446258339587388
0.025252626030532389356
0.025225320313863829752
0.025194081054184209317
0.025167502589208409075
0.025136712759145595636
0.025110381508525646266
0.025079695738565218471
0.025053378088101267013
0.025022559670878588567
0.024996246725735641464
0.024965292997582700513
0.024938870558444674319
0.024907810722447267654
0.024881244597139529073
0.024849681695900141531
0.024821982143739585586
0.024788687611696266777
0.024759299443858462375
0.024724846665743680646
0.024695299002105527975
0.024661499370539113202
0.024632942298665336939
0.024600066992771067037