/*--------------------------------*- C++ -*----------------------------------*\
  =========                 |
  \\      /  F ield         | OpenFOAM: The Open Source CFD Toolbox
   \\    /   O peration     | Website:  https://openfoam.org
    \\  /    A nd           | Version:  12
     \\/     M anipulation  |
\*---------------------------------------------------------------------------*/
FoamFile
{
    format      ascii;
    class       volScalarField;
    location    "0.0071";
    object      p;
}
// * * * * * * * * * * * * * * * * * * * * * * * * * * * * * * * * * * * * * //

dimensions      [1 -1 -2 0 0 0 0];

internalField   nonuniform List<scalar> 
75962
(
99393.267654946932453
99423.953161237208406
99338.139833524139249
99363.00439986960555
99311.503120982742985
99345.424407153899665
99461.522481684864033
99482.343311211821856
99440.10750659344194
99436.711956265658955
99484.762019984191284
99571.38055440352764
99667.517763318261132
99679.863745528724394
99596.925894570769742
99501.943709049708559
99434.591621297979145
99396.183595267357305
99405.77281663636677
99480.207440014579333
99568.427275702197221
99588.490135833606473
99537.672063861347851
99501.536845329741482
99514.254595154561684
99539.141917515109526
99547.994379898984334
99542.290037505910732
99524.823229635527241
99498.486685758078238
99471.487199430441251
99451.735520283342339
99448.038849569958984
99455.157248783085379
99456.411021800333401
99444.701375901466236
99423.441205192473717
99392.914276182928006
99374.009679109090939
99401.164532783426694
99463.681385320567642
99501.500459305942059
99489.649464095622534
99474.374582899035886
99479.15714210565784
99473.102571933646686
99438.267949967907043
99405.284233772166772
99401.996710965671809
99411.997544223690056
99412.544857377579319
99415.634247259542462
99445.269065622065682
99494.955884349867119
99537.477973478249623
99553.452586796294781
99540.153610178313102
99508.15022275778756
99482.537000921656727
99488.637103745015338
99526.968279116801568
99566.368676252808655
99582.143937070926768
99577.665525897056796
99561.208680463489145
99528.486124406248564
99480.885201017474174
99442.187795280959108
99436.570051159069408
99458.394375559437321
99476.575558862256003
99469.980477893826901
99450.946491938026156
99444.949288392905146
99456.190685822861269
99470.45011531781347
99478.238473403805983
99480.067564757540822
99479.049860021375935
99468.377722872217419
99453.299227491850615
99438.311245443313965
99432.896868842464755
99438.64404965902213
99450.726460895763012
99464.512553324413602
99473.978554405533941
99473.872023461954086
99464.333086480473867
99448.518448749979143
99430.134500728177954
99411.608188468555454
99391.35697851247096
99368.961803048936417
99343.642761915965821
99315.331595354611636
99286.912845985745662
99263.660369912176975
99254.411784334806725
99264.472142534796149
99288.074813248676946
99313.15685651145759
99333.172520951833576
99349.567527217412135
99364.457145820590085
99372.742694881031639
99364.003756263075047
99334.876660392517806
99298.151325726939831
99276.240760313885403
99282.349941891967319
99304.92610048680217
99317.57060200671549
99300.097156827352592
99260.125430752319517
99225.045418347945088
99218.10831953966408
99239.802529982451233
99268.678805224102689
99281.335389823492733
99273.680289284675382
99259.962097467781859
99257.396148212021217
99272.555446688784286
99300.398630751107703
99331.237038779014256
99356.466627468471415
99370.232259454161976
99370.28917500411626
99361.141935110834311
99352.520800119411433
99352.873942059435649
99367.310428427779698
99394.780968065897468
99430.606982678364147
99468.119035595809692
99502.064939313859213
99530.339224831681349
99552.821088445183705
99567.849032894228003
99571.271073195137433
99559.703361014297116
99535.703467164727044
99508.35797843754699
99490.138231585238827
99489.492909549269825
99506.056059732291033
99532.3014747180423
99560.099872807055363
99585.475733534316532
99609.611311251821462
99635.294063785011531
99664.317776863987092
99693.641900289265322
99716.059252186969388
99723.230857233182178
99710.364784139834228
99680.851991805815487
99644.926974063724629
99615.66117743315408
99602.226113290118519
99605.15142025174282
99615.157232306941296
99619.9991870001395
99613.713704350069747
99601.200819558202056
99593.718660774247837
99601.030213134625228
99622.749593306172756
99649.259513852215605
99666.936693236857536
99667.747800225100946
99653.951286820185487
99636.459422280502622
99627.006307539646514
99629.735168344443082
99639.738193812547252
99646.80153819322004
99642.152423897976405
99626.533246422375669
99608.102737481982331
99597.34920447562763
99599.865885759252706
99613.817955589969642
99631.561633537348825
99644.537256972718751
99649.349349578522379
99648.988772380515002
99594.363243573985528
99599.80206970096333
99607.155586077831686
99612.771083952888148
99612.622802974874503
99603.927955089355237
99586.426669645734364
99562.187999949892401
99534.636906217303476
99507.453949196133181
99482.791363253840245
99462.88210044495645
99448.686986350599909
99441.493567493700539
99443.275082805877901
99454.180052955984138
99472.559027678784332
99495.117046679675695
99517.986414612809313
99538.669203989105881
99556.753945978620322
99572.508627751900349
99584.880412362050265
99591.259280908416258
99589.044601470115595
99577.612138153592241
99559.460232350087608
99539.61280085038743
99523.658660028551822
99515.515463433839614
99516.253185710243997
99524.686203299177578
99538.738903813646175
99556.578947249334306
99576.679384072587709
99596.999266759521561
99614.601983621061663
99626.337372989248252
99630.316710831786622
99627.324139408956398
99621.131958555444726
99617.167975753705832
99620.005865891100257
99631.000606635119766
99647.368755381015944
99663.445507900556549
99673.686162490965216
99675.640615041513229
99671.27435116757988
99665.922214755904861
99665.426089104104904
99673.253962788148783
99689.065279605216347
99709.189384022480226
99728.49372704414418
99742.403138249064796
99748.320468336285558
99746.148574965991429
99737.899022100958973
99726.788810145109892
99715.955027691597934
99707.385088688577525
99701.507383039424894
99697.74266545381397
99695.719459758853191
99696.334233116795076
99701.853267369006062
99714.943922495032893
99737.108971574692987
99767.279898261214839
99801.36354431550717
99833.199854923514067
99856.666739303531358
99867.753632239546278
99865.63743052216887
99852.326926374647883
99831.340289289495558
99806.2569563427096
99779.986766986898147
99754.82149307031068
99732.852940803277306
99716.272001368779456
99707.215081296948483
99707.159000666040811
99716.173198602322373
99732.489316952371155
99752.738798283739015
99772.748452948464546
99788.669176137584145
99797.922718480418553
99799.768046901808702
99795.363361049894593
99787.279451384601998
99778.528298815625021
99771.589887420428568
99767.78629810862185
99767.201445850849268
99769.020046100908075
99772.031474138857448
99775.187932179513155
99777.912660485002561
99780.058359085829579
99781.619550045812503
99782.401400622911751
99781.912783636798849
99779.578308431140613
99775.002777213449008
99768.200139997017686
99759.755664441428962
99750.801040263802861
99742.848053241803427
99737.44895130279474
99735.753397104504984
99738.100317986041773
99743.839748210870312
99751.513080550066661
99759.404382606837316
99766.237546134507284
99771.658230212837225
99776.208132894462324
99780.892734768713126
99786.615589232722414
99793.695127718194271
99801.55685376621841
99808.810786411704612
99813.682794717926299
99814.622179464015062
99810.830136235439568
99802.573696748178918
99791.075877033275901
99778.11395895962778
99765.511995150533039
99754.673727926594438
99746.326337083082763
99740.433384619042045
99736.394163528952049
99733.420292259455891
99731.056786196757457
99729.432137224866892
99729.202769992596586
99731.090675765779451
99735.443102437973721
99741.933492319280049
99749.563316538260551
99756.82810444101051
99762.03988578429562
99763.675939668115461
99760.72129754209891
99752.903482738882303
99740.839398911281023
99725.972356268815929
99710.328315577731701
99696.124189105874393
99685.32557381982042
99679.305521709451568
99678.58495536960254
99682.778535146484501
99690.715322979507619
99700.817410022122203
99711.421200529526686
99721.297489562188275
99730.00806040930911
99737.891373192134779
99745.817886234610341
99754.82654854618886
99765.706604061138933
99778.754341490435763
99793.520485211483901
99808.899093878862914
99823.564531939293374
99836.326012385936338
99846.384969010556233
99853.372085611132206
99857.299535251644556
99858.444074491853826
99857.167680424885475
99853.853787839558208
99848.961077383108204
99843.166082356241532
99837.468061275794753
99833.053125049089431
99830.991357833525399
99831.824767391488422
99835.277134112344356
99840.184114115327247
99844.756175856702612
99847.032315695934813
99845.39662513017538
99839.096374238477438
99828.549642723242869
99815.219405887808534
99801.156020347363665
99788.466936337150401
99778.796659704777994
99772.959454619413009
99770.888030238755164
99771.944679713342339
99775.246486369214836
99779.88457326607022
99785.001068132638466
99789.899931967986049
99794.078470440697856
99797.217797728604637
99799.09334215594572
99799.625419257819885
99798.980626849472173
99797.617463226008113
99796.173450721340487
99795.303884338442003
99795.389733663047082
99796.336207846688922
99797.504722890531411
99797.812900878794608
99796.050851633786806
99791.23227239852713
99782.967924592478084
99771.633406569599174
99758.308483658911427
99744.498293057404226
99731.694910815000185
99720.938111611278146
99712.558873027330264
99706.309056398880784
99701.601907544987625
99697.807907071357477
99694.513779994987999
99691.671371501317481
99689.539612062944798
99688.504181675263681
99688.940320092879119
99690.797688589125755
99693.680477558576968
99696.872436135425232
99699.39834286509722
99700.44091670466878
99699.364508913829923
99695.916653857959318
99690.296223369048676
99683.163428279891377
99675.246801505083567
99667.219777943973895
99659.838636714484892
99653.795726723401458
99649.787927160927211
99648.335806743882131
99649.782680614225683
99654.350225829490228
99662.148768244340317
99673.19750892277807
99687.23638051461603
99703.611303727331688
99721.324307094066171
99739.108114723407198
99755.675984719287953
99476.905778472719248
99553.025806018209551
99353.463322911266005
99220.698397471307544
99257.095998720818898
99319.504036935046315
99336.850006407650653
99360.232752649331815
99414.320828763695317
99497.858039408354671
99565.299477957611089
99630.549028806388378
99713.630434020931716
99742.586981433836627
99678.279941720757051
99546.139952543147956
99425.790618053899379
99382.112253500847146
99407.13315428273927
99463.802716756312293
99519.033327781668049
99543.422694379871245
99520.267210428297403
99483.40458487138676
99475.292138875302044
99502.556746069938526
99530.355835983034922
99521.923990062830853
99475.207358263724018
99421.075122485155589
99393.123279309467762
99402.393987334682606
99427.881137863296317
99439.748153737877146
99430.101106511676335
99413.060743492242182
99399.163210282786167
99377.904539030700107
99365.978464742249344
99398.269785414333455
99461.67060424653755
99492.225644764272147
99468.180162102769827
99438.0235544492607
99436.953020947868936
99439.304895325840334
99422.213963503323612
99406.461042552953586
99411.700542553633568
99421.801418617440504
99420.361475656827679
99426.634625779566704
99466.144624468259281
99528.047031601294293
99571.089550850549131
99577.364856097075972
99560.93968485869118
99537.972098832105985
99522.505263194223517
99528.336692687720642
99554.869727560231695
99584.441136155481217
99597.19075862612226
99587.104857149795862
99556.16039416725107
99510.142873404445709
99464.314057784882607
99441.784179891968961
99454.494522867331398
99481.685501649888465
99487.48238103708718
99462.960627936103265
99432.283122308697784
99423.669985192624154
99440.823533897157176
99462.349334212340182
99473.573974088751129
99471.804185872912058
99459.086794153146911
99437.883772796587436
99417.172355274771689
99411.996438097092323
99428.114163245772943
99457.930735337344231
99483.313221029005945
99489.200384359312011
99474.187285130392411
99446.612893050638377
99419.996945509803481
99403.974296435597353
99395.411695071554277
99385.79028894212388
99371.256643107350101
99352.418490141542861
99329.830385005494463
99301.030376959213754
99265.113951193183311
99232.613384818425402
99219.556513315532357
99235.072447372280294
99270.544008037104504
99307.199645317828981
99332.302420942520257
99344.312053895395366
99348.304215301192016
99345.527264268108411
99331.455230161795043
99304.916026000748388
99276.962980522323051
99266.089125513593899
99279.771865242219064
99304.780999113630969
99315.880471100637806
99302.600373943845625
99274.574997250878369
99252.096677480265498
99248.849122935120249
99261.827635463836486
99275.840337055167765
99278.829912007291568
99270.489372881085728
99260.1294592073682
99257.373324543063063
99267.272422205322073
99288.907506221905351
99318.000033703821828
99347.036438208888285
99368.066674829082331
99376.529843808413716
99375.282446773126139
99372.125447805708973
99374.347413501105621
99385.162099009074154
99405.009302947641117
99432.04995535510534
99463.104908706736751
99494.584232061039074
99522.854494147162768
99544.40482846548548
99554.72393020518939
99551.323696867737453
99535.025422118371353
99511.271726802980993
99489.348757264859159
99478.173007817429607
99483.177798096206971
99502.673751920359791
99529.796112487485516
99555.575969524841639
99576.501896107642096
99594.582960705825826
99615.038299675055896
99639.697988479223568
99666.670834960794309
99689.264004079435836
99698.835698749899166
99691.501093252678402
99670.353588091442361
99644.869628287808155
99625.455704853826319
99618.51871774061874
99621.816961731339688
99626.87922205812356
99624.673510271401028
99613.11065432743635
99599.178222145696054
99593.777324653652613
99603.535500956044416
99627.467945773882093
99656.125651942042168
99678.348834099931992
99687.690188125605346
99684.767922799204825
99676.563080170744797
99671.273510623112088
99671.65468868878088
99673.675023677191348
99669.345612218719907
99653.872183113839128
99629.313511991756968
99605.55336935800733
99593.367688053636812
99598.04286633337324
99616.556608111262904
99640.190683178108884
99659.987462560151471
99671.492953054126701
99677.145049384169397
99681.346234653959982
99617.053575951562379
99622.97778588962683
99629.693757790329983
99636.009258444872103
99639.103889422825887
99635.693312400151626
99623.723410017992137
99603.233743007789599
99576.570759854541393
99547.422764674556674
99518.910339464709978
99493.122906958305975
99471.436363163913484
99454.700060948365717
99445.18602848352748
99445.391974058249616
99456.866994309602887
99478.509872112539597
99506.418125243595568
99535.659784863441018
99561.94067143209395
99582.764029665806447
99597.109226602784474
99604.463112467885367
99604.323910639548558
99596.519428003841313
99582.244061484423582
99564.750657216747641
99548.49229224602459
99537.27522406517528
99532.789577588540851
99534.332117049896624
99539.929120682907524
99548.005110021927976
99558.27071959200839
99571.168443569316878
99586.444417746752151
99602.119863741507288
99614.810965242635575
99621.459533707573428
99621.372967401010101
99617.125713723158697
99613.604839452949818
99615.676508142831153
99625.743519318493782
99642.338784433697583
99660.770012402397697
99675.673770138877444
99683.848225603011088
99685.707217426577699
99684.673840196264791
99685.060501987114549
99689.806200396007625
99699.328333321755053
99711.85760207461135
99724.580610019678716
99734.826327999762725
99740.961599925241899
99742.673480064258911
99740.762429956448614
99736.717059451970272
99732.074157284383546
99727.784304182045162
99724.020127952360781
99720.605920074303867
99717.90490930818487
99717.45309507031925
99721.749577716778731
99733.166190199815901
99752.59892963632592
99778.496266987276613
99806.84568655185285
99832.257963361000293
99849.753205533052096
99856.340399386666832
99851.653261047002161
99837.463446416877559
99816.602112295047846
99791.96504744856793
99766.088519123295555
99741.245704738248605
99719.721096816443605
99703.844813586096279
99695.665655108561623
99696.326972636117716
99705.523756762282574
99721.280880218284437
99740.233057116929558
99758.365355406727758
99772.09302422440669
99779.267026296438416
99779.654522731914767
99774.841914532560622
99767.593245401018066
99760.948193702352
99757.244557566256844
99757.475155916050426
99761.229879953622003
99767.087685344988131
99773.358166397956666
99778.699832858052105
99782.385917616513325
99784.331694640321075
99784.789031067411997
99783.920419257090543
99781.587090786793851
99777.491290510864928
99771.484302643541014
99763.843041069630999
99755.325795726734214
99747.077942224845174
99740.479607246132218
99736.871292579831788
99737.157665454171365
99741.45977361232508
99749.031951369950548
99758.479291995463427
99768.281262663716916
99777.357890640938422
99785.408608832614846
99792.886804651338025
99800.583409547005431
99808.983622294879751
99817.771639306447469
99825.732288616156438
99831.151844716863707
99832.431565867649624
99828.633073411445366
99819.856063579762122
99807.297631428999011
99792.982581890973961
99779.111514258940588
99767.408751011695131
99758.693569365816074
99752.842696164414519
99749.044345588961733
99746.194055418032804
99743.353772100192145
99740.132294286013348
99736.888129658269463
99734.553358743767603
99734.192471551461495
99736.463999979154323
99741.362605641028495
99748.166384170675883
99755.654688869966776
99762.3188465583371
99766.616832032959792
99767.225411746068858
99763.338477996789152
99755.063525401157676
99743.4827559167461
99730.521821336165885
99718.507542201943579
99709.587134736895678
99705.153047254338162
99705.524417951106443
99709.933428430493223
99716.782782211201265
99724.283858730748761
99731.067678609819268
99736.707804176039645
99741.794341469270876
99747.812784761175863
99756.271387365210103
99768.123150040933979
99783.388073870490189
99801.057403865357628
99819.416492854710668
99836.626563956524478
99851.17644076886063
99862.348132391591207
99870.245556387817487
99875.499171508286963
99878.706678566755727
99880.193715889341547
99879.977824757486815
99877.852211874444038
99873.753651201404864
99868.151090131752426
99862.173574460975942
99857.481683908423292
99855.823570560154621
99858.324568611787981
99864.912446605827427
99874.23310861743812
99883.981219700406655
99891.396451101623825
99894.026023135636933
99890.407973451976432
99880.382579539247672
99865.078557100365288
99846.738840295671253
99828.174887388609932
99812.072096320072887
99800.42777287386707
99794.359589500483708
99794.002144973317627
99798.628021483076736
99806.839961390593089
99816.811283745468245
99826.557424216720392
99834.33075576632109
99838.966361374928965
99840.061237679110491
99837.968879379986902
99833.675572187290527
99828.551539959502406
99824.084458962242934
99821.546975932928035
99821.617782879460719
99824.086745626525953
99827.816117195194238
99831.032195319290622
99831.813272196537582
99828.6807006138406
99821.016231469489867
99809.259038225165568
99794.741385090776021
99779.307040689163841
99764.807754069770453
99752.645339420996606
99743.39977107073355
99736.830475137248868
99732.189317415846745
99728.681473915392417
99725.77621663598984
99723.275297617467004
99721.287242494843667
99720.219754129764624
99720.557561886220356
99722.467966696436633
99725.579357048263773
99729.115271141083213
99732.009635054986575
99733.231030075374292
99732.112140845070826
99728.452457999635953
99722.694613920146367
99715.628659981724923
99708.130445509887068
99701.109186472531292
99695.181803501152899
99690.767302147607552
99688.16098315945419
99687.536331297742436
99688.928706637307187
99692.468499323353171
99698.27227736862551
99706.496921550482512
99717.227053020324092
99730.187743936214247
99744.735206401310279
99759.831729384692153
99774.184686636988772
99129.299703115655575
99219.539272104098927
99412.735919803162687
99500.143547893167124
99299.054134624326252
99079.415232552200905
99059.73778456846776
99169.824839075037744
99342.197366932552541
99512.692618946530274
99607.45822100348596
99631.023609155701706
99650.162403178255772
99680.552863237462589
99658.708010210117209
99548.227820185100427
99430.043046747014159
99393.657687922721379
99420.144665646585054
99441.295588708642754
99456.195152507571038
99477.974464295766666
99480.667201117059449
99450.703256557346322
99434.624159863946261
99460.36038153716072
99493.480633499115356
99480.666475937148789
99422.287395207080408
99367.12371512815298
99352.31211186942528
99375.331901037774514
99402.645040601622895
99407.499082975264173
99402.799046630825615
99406.965300746887806
99415.166661960218335
99399.234537171054399
99376.00906460765691
99395.966925110056764
99457.108992355293594
99494.068626624648459
99472.475386844278546
99431.269309115043143
99416.365252160016098
99423.973122816212708
99429.90473494111211
99433.104371644905768
99440.607438601902686
99442.500524376606336
99435.920011856913334
99447.476741578764631
99497.852436551387655
99561.233905668908847
99591.540391892558546
99589.333237473561894
99581.16708312589617
99576.56839422826306
99569.527521572337719
99565.357738647871884
99576.218762595453882
99599.33457197410462
99611.061673902062466
99592.209474929768476
99547.590271760127507
99498.960103747522226
99467.200106315722223
99461.623631014648709
99475.769293483826914
99488.75280616657983
99480.214856253791368
99451.606482791219605
99426.671677728678333
99425.911319464910775
99446.499133810328203
99464.23591715603834
99462.69793622965517
99446.608906630266574
99427.530454875974101
99411.093276269850321
99405.627705630016862
99416.834139924918418
99447.078442094381899
99481.374434378565638
99497.754102664839593
99482.094473261502571
99439.163004771457054
99388.505173490484594
99353.480428876588121
99344.190977791731711
99351.751340886767139
99359.88943899529113
99360.796587576100137
99353.555013054807205
99336.461346380965551
99304.310060257223086
99260.275456834249781
99221.593680664882413
99209.412121407614904
99230.103923986767768
99271.135132267008885
99309.30116134682612
99328.860669108558795
99330.125811830686871
99322.981082877726294
99315.273637635662453
99305.384446600801311
99289.892508052973426
99275.629772095839144
99271.957713296666043
99282.924394034183933
99299.51286465836165
99308.378574760965421
99305.332944911526283
99294.994678137169103
99286.253425152695854
99283.299703702054103
99283.493379250227008
99282.126586200130987
99277.303969715794665
99270.22411827056203
99263.303669559856644
99259.158204207255039
99262.372454414100503
99276.396856347782887
99300.649128534947522
99330.000112350040581
99356.603320681941113
99375.813468738968368
99388.139832006942015
99396.626203403240652
99404.525085823654081
99412.754678509838413
99423.547696393638034
99439.429240140932961
99461.712089757522335
99487.984598622642807
99512.276992241939297
99527.920938631315948
99530.634558232530253
99521.186358883569483
99505.472279434514348
99489.917124188723392
99480.114890308468603
99479.31769421880017
99488.769198550813599
99506.605374005681369
99528.599005592812318
99548.263760903297225
99563.155983208285761
99574.967292021246976
99588.436916608232423
99605.536760675240657
99625.193640785044408
99643.232419928026502
99654.793931297273957
99657.178431287771673
99652.940624689174001
99646.475410575818387
99642.846558277989971
99643.86080152404611
99646.115467723298934
99643.490029990600306
99633.106154230190441
99617.445761846407549
99604.820964651444228
99603.600371042732149
99616.395714872865938
99639.945278213650454
99666.775083085041842
99689.76103785468149
99705.006901000102516
99711.694653579397709
99712.743131033887039
99711.733171525440412
99709.397993548278464
99703.530111119878711
99689.877611552205053
99666.999182332583587
99638.535311449813889
99613.666338430295582
99601.737363316016854
99607.040026913673501
99625.984966625735979
99650.302379215572728
99672.085299084166763
99687.828538875299273
99698.994331400681403
99707.963896305038361
99642.178612504721968
99651.907522596404306
99659.407009959351853
99663.538202369876672
99662.656065500239492
99655.154013074556133
99640.753718168125488
99620.624352799975895
99596.906580333714373
99571.593981291953241
99546.185451483295765
99521.468113405251643
99498.119318622324499
99477.982551111490466
99464.175693811557721
99460.308231460294337
99469.101784362195758
99490.335206602641847
99520.307269256227301
99552.995810257561971
99582.244966439830023
99603.857025008357596
99616.258730271089007
99619.693534468009602
99615.271913112257607
99604.729656492098002
99590.635405294015072
99576.288849007207318
99564.877093975563184
99558.275113964336924
99556.401238959660986
99557.568989158578916
99559.791765193775063
99562.285703173372895
99565.97794287794386
99572.614816677043564
99583.095642372863949
99596.190000290036551
99608.658258546085563
99616.937478902516887
99619.263658452779055
99617.021381321159424
99614.353529318919755
99616.131334758159937
99625.386120845476398
99641.79231128867832
99661.958649040258024
99681.186706158870948
99695.745490870249341
99704.29169454080693
99707.787528889428359
99708.403636746385018
99708.444715677542263
99709.595793427390163
99712.588210830785101
99717.35348233433615
99723.433525059866952
99730.225276212586323
99737.020718283747556
99743.063205052167177
99747.705996364340535
99750.535051533268415
99751.361703217044123
99750.223145066440338
99747.603456852069939
99744.741790347427013
99743.736589992899098
99747.08522410634032
99756.625134839996463
99772.455195951173664
99792.469182208646089
99812.82516225251311
99829.265934226321406
99838.506262240378419
99839.075730144410045
99831.374059728725115
99817.124709657771746
99798.586501486497582
99777.874094125407282
99756.639979277781094
99736.315544824261451
99718.464737235888606
99704.838096744482755
99697.037572049273876
99696.066096513066441
99701.863929801940685
99713.021687162603484
99726.867800311854808
99740.035638370740344
99749.470565641720896
99753.432426672035945
99752.048724877036875
99747.167444904931472
99741.60046838868584
99738.155080643875408
99738.697509159057518
99743.629865039561992
99751.928730161613203
99761.719208678157884
99771.062787984250463
99778.568231811004807
99783.601437193123274
99786.196557381554157
99786.701732227840694
99785.412087698205141
99782.344518506637542
99777.308157115025097
99770.33622711780481
99762.028773256781278
99753.546422444240307
99746.342272339868941
99741.820478544090292
99740.988860444747843
99744.229708349885186
99751.189543128566584
99760.84994709174498
99771.864139121025801
99782.968132784313639
99793.345918973034713
99802.814923246740364
99811.763912427340983
99820.775862172755296
99830.055737012109603
99838.977187233263976
99846.078534881249652
99849.488660926203011
99847.666304328158731
99840.053977997609763
99827.413105979561806
99811.659269300289452
99795.344719571396126
99780.976325076248031
99770.250100116318208
99763.612079469283344
99760.271171924134251
99758.686156317809946
99757.199295311351307
99754.624559154981398
99750.602472550148377
99745.669411440787371
99740.949495522829238
99737.708987145422725
99736.847401553342934
99738.644931951916078
99742.715862629876938
99748.250008143018931
99754.231354061557795
99759.623134702065727
99763.348153617975186
99764.491808411912643
99762.59684067206399
99757.946011766180163
99751.646817214073963
99745.321369780867826
99740.622991969488794
99738.626159548541182
99739.36648395821976
99741.992225464622607
99745.155743945026188
99747.554843332094606
99748.798038282009657
99749.603130331335706
99751.723131985636428
99757.208598228826304
99767.742630291773821
99783.794558736131876
99804.263849770562956
99826.761106047866633
99848.378467126123724
99866.692379428524873
99880.347717443248257
99889.227555141711491
99894.417658390724682
99897.395849553839071
99899.295938434632262
99900.517105809703935
99900.678169954917394
99899.074274114333093
99895.27508193050744
99889.643359591122135
99883.511793331737863
99878.953850656049326
99878.196073845771025
99882.693324950101669
99892.564116747118533
99906.37443920057558
99921.34969740055385
99934.095518148387782
99941.497713340751943
99941.502761525523965
99933.40718099634978
99918.134401146598975
99897.877399436532869
99875.696237762545934
99854.992287597662653
99838.866094141136273
99829.460066643194295
99827.608006295587984
99832.805300609514234
99843.39840500295395
99856.827715315870591
99870.098559147838387
99880.428057500190334
99885.900685702828923
99885.896082635590574
99881.110135505790822
99873.282086175342556
99864.753965253126808
99857.861146605209797
99854.321906392244273
99854.756047771588783
99858.549343499020324
99863.989998011471471
99868.725837582664099
99870.379957655764883
99867.262724019674351
99858.867809319694061
99845.942765331623377
99830.23647311438981
99813.99314832368691
99799.224639312829822
99787.421812745189527
99779.195029085458373
99774.137857002933742
99771.149677522087586
99768.923470682188054
99766.522944374388317
99763.75727990231826
99761.065517471492058
99759.165365621884121
99758.603073129153927
99759.638967126025818
99762.033242477089516
99765.03325009503169
99767.686231633240823
99768.978470630114316
99768.162451997341122
99765.173152987321373
99760.377909326038207
99754.561104465159588
99748.667292735452065
99743.612099572637817
99739.892226290496183
99737.62188721325947
99736.495007780467859
99736.176196908447309
99736.503054712040466
99737.56090119908913
99739.752023385764915
99743.691326040003332
99749.893055523047224
99758.476704519664054
99769.087075309638749
99780.91790055425372
99792.7060401498602
99803.163401790981879
99377.879272196398233
99337.845316389793879
99330.064225273992633
99296.706126418532222
99345.222486225466128
99374.396606388065265
99253.818872481599101
99137.567390723299468