/*--------------------------------*- C++ -*----------------------------------*\
  =========                 |
  \\      /  F ield         | OpenFOAM: The Open Source CFD Toolbox
   \\    /   O peration     | Website:  https://openfoam.org
    \\  /    A nd           | Version:  12
     \\/     M anipulation  |
\*---------------------------------------------------------------------------*/
FoamFile
{
    format      ascii;
    class       volScalarField;
    location    "0.0071";
    object      p_0;
}
// * * * * * * * * * * * * * * * * * * * * * * * * * * * * * * * * * * * * * //

dimensions      [1 -1 -2 0 0 0 0];

internalField   nonuniform List<scalar> 
75962
(
99388.880553651077207
99422.971865701052593
99339.472677275552996
99364.371241777873365
99312.100857081561117
99349.775282164264354
99464.719726889190497
99482.046220752381487
99439.329583744445699
99437.691355171860778
99487.526980564391124
99575.417214957196848
99670.592484725464601
99679.400440809782594
99594.55042419921665
99499.856285913701868
99433.352307619483327
99396.163444946199888
99407.727102945093066
99483.722380457518739
99571.035003974902793
99588.508583428018028
99536.652574473657296
99501.609159204308526
99515.244154863525182
99539.87426828884054
99548.070517709682463
99541.797616093652323
99523.834509466585587
99497.23884899308905
99470.336596128167002
99451.026050497937831
99447.783329966521706
99454.865340577656752
99455.631722875521518
99443.500397197771235
99422.028964761164389
99391.56626143581525
99373.643165504312492
99402.221323765319539
99464.87283896979352
99501.256004583352478
99488.501944300485775
99473.687529365386581
99478.654140735088731
99471.739266783668427
99436.381154452566989
99404.060146912248456
99401.587400179516408
99411.505354495049687
99411.797865484317299
99415.38939983068849
99445.854904889522004
99495.885346594674047
99537.809722066900576
99552.756529797567055
99538.526140641595703
99506.218211068524397
99481.280358346077264
99488.616700422164286
99527.637262262403965
99566.652252653773758
99581.687441009504255
99576.747055683619692
99559.873901238679537
99526.5581101434218
99478.761416863970226
99440.784937206553877
99436.368420057740877
99458.666288035135949
99476.251236878524651
99468.978639677399769
99450.027988881134661
99444.627221859191195
99456.316811062060879
99470.536776529595954
99478.187897144976887
99479.937291672860738
99478.676364671700867
99467.736614489622298
99452.494020391997765
99437.665265722869663
99432.7111332337372
99438.91860270347388
99451.295611601788551
99465.10695613178541
99474.316319989899057
99473.777099781131255
99463.830749266955536
99447.816852110408945
99429.36864548450103
99410.800558862189064
99390.477233972691465
99368.067072635094519
99342.769210032143747
99314.502214378502686
99286.202035385009367
99263.315074177357019
99254.697341638995567
99265.394936266879085
99289.321938585388125
99314.363116815875401
99334.233812543403474
99350.517577239137609
99365.198388206888922
99372.973966655190452
99363.459740340244025
99333.756927259222721
99297.153531606905744
99276.035658895605593
99282.967379790672567
99305.645459425722947
99317.459739272511797
99298.95336947713804
99258.662918948204606
99224.23900191890425
99218.41797645376937
99240.779311720572878
99269.434818822875968
99281.334555277891923
99273.111695609637536
99259.415580517495982
99257.317802448495058
99272.997255819558632
99301.066087752566091
99331.815931397373788
99356.703072658943711
99369.977358639065642
99369.585366163199069
99360.267637590921368
99351.851332075806567
99352.672354967115098
99367.643065327138174
99395.539994791179197
99431.576583368136198
99469.082957021761104
99502.892513853541459
99530.98603198332421
99553.266965465038083
99567.966992128407583
99570.881331820579362
99558.739729309701943
99534.420351816399489
99507.186552014463814
99489.459672157216119
99489.479896665827255
99506.566161437192932
99533.019707565137651
99560.797531766220345
99586.108571819888311
99610.256407229564502
99636.011855137985549
99665.075602729630191
99694.189497279410716
99716.046249681094196
99722.398194322435302
99708.717260198041913
99678.685011028021108
99642.750057056706282
99613.945528370910324
99601.196425880756578
99604.645811306094402
99614.721426245829207
99619.277612457124633
99612.698049287224421
99600.220089256516076
99593.203384936699877
99601.158373213853338
99623.319388159070513
99649.802088390890276
99667.006928451242857
99667.205306365678553
99653.050046516829752
99635.660181364379241
99626.616801767973811
99629.760173787275562
99639.87221545810462
99646.683821829385124
99641.621822539760615
99625.770998096064432
99607.489285114730592
99597.177769366317079
99600.213673253485467
99614.470893542224076
99632.18892378511373
99644.904983623579028
99649.456303334372933
99649.030262232758105
99595.123174534979626
99600.662247507658321
99607.999638833702193
99613.428498724533711
99612.940381721622543
99603.839086249805405
99585.973181242385181
99561.496262522021425
99533.872317010289407
99506.755863431375474
99482.24878994091705
99462.576735945753171
99448.654718564284849
99441.809721641853685
99443.977446335426066
99455.222649082978023
99473.822834560589399
99496.43226953438716
99519.204553769814083
99539.726813722169027
99557.654250432067784
99573.238245705142617
99585.357968313532183
99591.370212535155588
99588.721896083967295
99576.904336671359488
99558.53823869417829
99538.712443046082626
99522.985715030779829
99515.170708822333836
99516.226294412263087
99524.904100142390234
99539.122301315816003
99557.069956438877853
99577.219007736144704
99597.492930966051063
99614.922168605073239
99626.371557626902359
99630.033527587773278
99626.813818529131822
99620.58943702110264
99616.81081378016097
99619.970003192545846
99631.26961333208601
99647.776518110636971
99663.764299494112493
99673.754690160523751
99675.455244454511558
99670.995266955069383
99665.787595175148454
99665.62818815006176
99673.84733922452142
99689.947982331868843
99710.156729634283693
99729.326174246016308
99742.942767394444672
99748.517524520750158
99746.061501530130045
99737.661119385316852
99726.555953527189558
99715.849200127326185
99707.459025625226786
99701.747434707169305
99698.110501515839132
99696.209027885503019
99697.001227391607244
99702.797481312809396
99716.252035210534814
99738.788903529843083
99769.217947082579485
99803.334941997585702
99834.935305166858598
99857.944295619032346
99868.465186197878211
99865.804485886517796
99852.066005683751428
99830.80621562874876
99805.597708104905905
99779.331119770824444
99754.288047254274716
99732.561110253736842
99716.337744778356864
99707.727366587656434
99708.146351430856157
99717.579025524959434
99734.170564446103526
99754.494187432908802
99774.366469443019014
99789.979753169929609
99798.83508597376931
99800.288218103552936
99795.583275602097274
99787.340991917153588
99778.574174285502522
99771.724527890561149
99768.055011246513459
99767.592347794503439
99769.481075336167123
99772.496445870929165
99775.602709196857177
99778.246011230163276
99780.298212778652669
99781.761005524705979
99782.435240375707508
99781.824773953383556
99779.354110539134126
99774.633936056561652
99767.694421574677108
99759.145269906075555
99750.144934487296268
99742.224851583407144
99736.937914212583564
99735.409822248111595
99737.934326223097742
99743.811253384905285
99751.549910584348254
99759.436294938743231
99766.226776046547457
99771.609771505638491
99776.157154455970158
99780.881660280996584
99786.671684312401339
99793.813653795892606
99801.695404354992206
99808.900591599027393
99813.650904540118063
99814.415008791838773
99810.433261339581804
99802.020152243771008
99790.438980619612266
99777.48750445251062
99764.985479337570723
99754.30864535937144
99746.143735287972959
99740.414099162269849
99736.493105913614272
99733.58852140714589
99731.260154009534745
99729.661111595778493
99729.467271070505376
99731.405702743766597
99735.81124176440062
99742.333156733511714
99749.94693175800785
99757.129449317988474
99762.186719063043711
99763.606151900690747
99760.398619063780643
99752.330960587030859
99740.064150421938393
99725.078433416478219
99709.420268145928276
99695.302896477340255
99684.669788194441935
99678.857518119431916
99678.345938886486692
99682.712349257155438
99690.761035898249247
99700.901368509483291
99711.476086320355535
99721.284483223294956
99729.92371381400153
99737.760009449179051
99745.6810556131677
99754.72651221214619
99765.669175428076414
99778.773552447702968
99793.553249603763106
99808.889468802284682
99823.457908052529092
99836.082485952734714
99845.987245974261896
99852.824192029016558
99856.61773805647681
99857.646033037774032
99856.265719780276413
99852.857936567568686
99847.889615516425692
99842.052053378603887
99836.360596126280143
99832.007177501145634
99830.050662254710915
99831.00589216373919
99834.555021761887474
99839.494105816018418
99844.013430206512567
99846.156147510002484
99844.335941864643246
99837.850959431307274
99827.172815778088989
99813.801921360762208
99799.803084265848156
99787.274825853834045
99777.833332256428548
99772.249924813295365
99770.417898303683614
99771.674227535782848
99775.128400779387448
99779.873817629413679
99785.060699168083374
99789.995875459339004
99794.17860793141881
99797.293976477711112
99799.125870031406521
99799.609920029426576
99798.929253704089206
99797.554730229298002
99796.129238954104949
99795.30448643816635
99795.447321856452618
99796.436333366174949
99797.6010935332597
99797.838249592794455
99795.938523406031891
99790.938161348283757
99782.487635160650825
99771.00573496776633
99757.604602228384465
99743.794575997759239
99731.052225323379389
99720.387327669857768
99712.09649443696253
99705.904966302288813
99701.214417412367766
99697.40214586451475
99694.07541618286632
99691.209250007043011
99689.076188805993297
99688.063328480697237
99688.53103981280583
99690.41617745826079
99693.29965146255563
99696.454708257413586
99698.899956324341474
99699.827750389755238
99698.618777478608536
99695.042227739002556
99689.311958168516867
99682.103218900185311
99674.159672044726904
99666.15449283029011
99658.840692676531035
99652.900883866328513
99649.024598712116131
99647.728272050793748
99649.354437750633224
99654.116197953277151
99662.112854069637251
99673.351557815840351
99687.55470420284837
99704.054020513343858
99721.832056348503102
99739.600604159117211
99756.064180205605226
99476.181823972583516
99551.337783267546911
99345.986348170044948
99218.400629569325247
99258.614839460118674
99320.919573885083082
99338.029708563481108
99362.125880152976606
99417.176337647484615
99500.697043795269565
99567.410801801132038
99633.149277607604745
99715.636608115339186
99741.908178999088705
99674.677133632067125
99541.456702419978683
99422.635643737143255
99381.528197936844663
99408.240593527967576
99465.458779529828462
99520.192433100863127
99543.29477269500785
99519.046135033422615
99482.349095289959223
99475.350063496967778
99503.244497090025106
99530.321847552215331
99520.450254368319293
99472.870753873270587
99419.060688410056173
99392.284439009134076
99402.644081571808783
99428.187457151158014
99439.256084114982514
99429.074799852605793
99412.043000549281714
99398.218647672722
99377.02527625048242
99365.981829265409033
99399.596751755147125
99462.8678627446061
99491.699791417107917
99466.611971131991595
99437.09370775896241
99436.712215304753045
99438.658883876836626
99421.174970302468864
99405.879684783329139
99411.61006195358641
99421.486865777202183
99419.829360006231582
99426.779000542170252
99467.30511723413656
99529.25759588307119
99571.255966318421997
99576.416890409993357
99559.47853882900381
99536.52790387031564
99521.519703332858626
99528.104827777817263
99555.034167263322161
99584.407441576302517
99596.598187729716301
99585.859113916521892
99554.333124566473998
99508.058413146922248
99462.663361804457963
99441.190165212785359
99454.771580377098871
99481.803177494221018
99486.585941104654921
99461.386448185745394
99431.144054281001445
99423.558303592290031
99441.37940034098574
99462.907526649723877
99473.727724476018921
99471.543224528199062
99458.419145825420856
99437.056352509796852
99416.675321049056947
99412.28123780452006
99429.14488879388955
99459.222295294806827
99484.207491591922008
99489.297518675506581
99473.576708753258572
99445.722234704953735
99419.204546808134182
99403.432525581985828
99394.98433097769157
99385.246777629261487
99370.599058621839504
99351.734234631992877
99329.102242359818774
99300.153840144281276
99264.177584870849387
99232.142964242899325
99219.99927412692341
99236.488550123380264
99272.379841030968237
99308.844838477409212
99333.44000453161425
99344.986816280739731
99348.625807471558801
99345.460610353213269
99330.897667551034829
99304.091324971843278
99276.454407628669287
99266.389101923981798
99280.69968860737572
99305.619385590252932
99315.913550259021576
99301.900196607559337
99273.726456816613791
99251.737553786588251
99249.15667179315642
99262.399832703827997
99276.143472139709047
99278.655410472478252
99270.017534062455525
99259.725523055967642
99257.28198139872984
99267.590291441083536
99289.559308266820153
99318.757884732593084
99347.619059348086012
99368.236927817313699
99376.254671190588851
99374.790729614498559
99371.733696882089134
99374.255032482906245
99385.419322907880996
99405.593822349794209
99432.873919079327607
99464.043675982378772
99495.509833323332714
99523.623202396353008
99544.869865087443031
99554.730138269864256
99550.793984921416268
99534.076685640218784
99510.218776681271265
99488.534479529931559
99477.867500868000207
99483.461408394316095
99503.38837636601238
99530.599708622641629
99556.239090542861959
99576.986236704629846
99595.05004473340523
99615.6132125233853
99640.360467153863283
99667.241261698698509
99689.403664020064753
99698.273878272404545
99690.253452931821812
99668.680056620505638
99643.210849250783212
99624.18022388596728
99617.731750334278331
99621.318467754506855
99626.308136186373304
99623.80808600562159
99612.074052847499843
99598.322712939057965
99593.462118207666208
99603.872701577158296
99628.25044209852058
99656.936725582490908
99678.80620970785094
99687.661900040475302
99684.387678892861004
99676.122551475898945
99670.992484653557767
99671.519326097812154
99673.451053924960434
99668.809781660515
99652.972598854277749
99628.303335600474384
99604.83519369676651
99593.249441854917677
99598.546910907141864
99617.439282247927622
99641.08523486147169
99660.620983721106313
99671.836859315735637
99677.354130670777522
99681.562786519440124
99617.912673640996218
99623.839730486040935
99630.550446133784135
99636.769577838829719
99639.629809717982425
99635.866207284765551
99623.496583311716677
99602.663300822518067
99575.793323059231625
99546.601930436532712
99518.163783018448157
99492.542285815128707
99471.068383319681743
99454.610254719707882
99445.473036410054192
99446.128793599724304
99458.048144150539883
99480.002294069694472
99508.013482287235092
99537.148813401348889
99563.174744646792533
99583.670973425731063
99597.660560205215006
99604.645797601828235
99604.131425016123103
99595.977330755777075
99581.453376909921644
99563.883809580918751
99547.728106314767501
99536.725986855555675
99532.46564551065967
99534.165969488123665
99539.843041463725967
99547.971344185512862
99558.315802976794657
99571.321954178769374
99586.676479881207342
99602.319362654699944
99614.83071806463704
99621.204077910690103
99620.870446475455537
99616.531282324795029
99613.131909254938364
99615.495591535422136
99625.898501448114985
99642.72102197278582
99661.180552389327204
99675.937315448216395
99683.905024842606508
99685.631377409139532
99684.618243511737091
99685.165022237270023
99690.128014732603333
99699.829027810192201
99712.437395877510426
99725.125700535645592
99735.250886596099008
99741.233917946199654
99742.814246171386912
99740.829139568057144
99736.780424947311985
99732.189104179735295
99727.971736840947415
99724.273071641713614
99720.92011029960122
99718.313175673305523
99718.036198540605255
99722.606004599729204
99734.358740448020399
99754.103757657416281
99780.183229745758581
99808.504544690877083
99833.662454202625668
99850.732516350602964
99856.824260303401388
99851.671923758651246
99837.115320716853603
99816.012261495925486
99791.259592335336492
99765.38935988151934
99740.677017647351022
99719.409268650531885
99703.904874835556257
99696.173511156724999
99697.291662343151984
99706.874400640401291
99722.871940546712722
99741.871023273168248
99759.852539754559984
99773.278076364193112
99780.082282221599598
99780.12647589117114
99775.073461321444483
99767.726904138879036
99761.121552996279206
99757.549626445354079
99757.939224141518935
99761.817667012976017
99767.724814836750738
99773.964868150753318
99779.214331000854145
99782.776709652564023
99784.595767629885813
99784.93569001457945
99783.955224839242874
99781.507695288441028
99777.292424219107488
99771.167127610751777
99763.422778498454136
99754.834776847477769
99746.566851857554866
99740.013469190540491
99736.514726961628185
99736.953556355176261
99741.412567061153823
99749.104973950627027
99758.61142164314515
99768.416047019258258
99777.465996023194748
99785.494820471634739
99792.978358952997951
99800.706910691558733
99809.139332415390527
99817.921827876169118
99825.810854855924845
99831.087555748803425
99832.172285900131101
99828.163454543493572
99819.20742528255505
99806.546095789613901
99792.231167653982993
99778.461834150744835
99766.931435433580191
99758.413516303320648
99752.739219799797866
99749.066683251425275
99746.282325640073395
99743.461325365278753
99740.238572658985504
99737.001328115540673
99734.699113025533734
99734.397639026297838
99736.741568307072157
99741.703724415259785
99748.538260352055659
99756.007234777498525
99762.588906619101181
99766.739146069085109
99767.145007641694974
99763.030887709261151
99754.547454904357437
99742.827707894786727
99729.82916779248626
99717.880704785944545
99709.106687400097144
99704.854780795576517
99705.394389365814277
99709.913794950989541
99716.795927452680189
99724.258733045106055
99730.967283261779812
99736.54819141603366
99741.624391808232758
99747.701735289607313
99756.277273564148345
99768.265737258523586
99783.638881623250199
99801.344314327914617
99819.645707191157271
99836.711188443179708
99851.061771326698363
99862.027027252363041
99869.750417170129367
99874.879293251753552
99878.001839364529587
99879.418821842322359
99879.122456744502415
99876.897759068277082
99872.696032219871995
99867.019406643943512
99861.032528722964344
99856.416755241283681
99854.911561319109751
99857.601115878860583
99864.352234493053402
99873.754479250084842
99883.463966267037904
99890.712548580879229
99893.081027474079747
99889.166470143783954
99878.873652372378274
99863.393218868004624
99845.011599902863964
99826.550560721123475
99810.676065428822767
99799.349874715742772
99793.642298457256402
99793.633947412599809
99798.549113909277366
99806.961115416765097
99817.031818149145693
99826.77788052224787
99834.468523421703139
99838.968991017434746
99839.915433956877678
99837.700571072811726
99833.344309310996323
99828.235070466820616
99823.857026989368023
99821.456079940850032
99821.669611418823479
99824.239299313048832
99827.98803371147369
99831.118212691231747
99831.714631225680932
99828.332491329405457
99820.409864865287091
99808.444680749351392
99793.812411241786322
99778.368604763032636
99763.946875258639921
99751.909208824348752
99742.792949249487719
99736.325108204240678
99731.73772572253074
99728.234240849371417
99725.30212543408561
99722.77511084251455
99720.781858736387221
99719.732043467607582
99720.102133392603719
99722.04291506804293
99725.16282037064957
99728.666607181265135
99731.479432510517654
99732.580736719217384
99731.321286820078967
99727.527531096886378
99721.664591521563125
99714.536619164253352
99707.025083992804866
99700.035966381794424
99694.185060994219384
99689.871430511659128
99687.381613306468353
99686.874980390857672
99688.393298037059139
99692.07322819471301
99698.028109812177718
99706.410924367315602
99717.290582066751085
99730.370426879875595
99744.988614749148837
99760.085840554194874
99774.358391390065663
99118.492775571867242
99218.079816982237389
99414.470196244714316
99494.804153383869561
99288.197970513836481
99072.673132141368114
99059.365990689664613
99173.339268205745611
99347.405296549099148
99516.74611888268555
99608.552289533545263
99630.479547254581121
99649.693192947219359
99679.491340577966184
99655.16999328910606
99542.894166477926774
99426.019070376554737
99392.412693524500355
99419.817323648778256
99440.691360385884764
99455.826815947264549
99477.585242951565306
99479.379819776702789
99449.128958601751947
99434.15282060719619
99460.931441654509399
99493.343874932921608
99478.812100104114506
99419.728234674883424
99365.471262312901672
99352.192441210441757
99376.027753066300647
99403.043497332502739
99407.152373790144338
99402.419920659041964
99406.967731359371101
99414.921521103591658
99398.428931394009851
99375.803379597084131
99397.178680899509345
99458.540464187099133
99493.936034533355269
99471.024507702022674
99430.104807688039728
99416.143617455018102
99424.071404357804568
99429.83778891248221
99433.075413367492729
99440.559636234116624
99442.107765120570548
99435.508133853858453
99447.994950456384686
99499.311731318608508
99562.224147916858783
99591.287276255388861
99588.426234528116765
99580.243032261831104
99575.696591618572711
99568.555671683803666
99564.588903967291117
99575.9552401969122
99599.168743893314968
99610.290568585973233
99590.550471746901167
99545.465687812335091
99497.146891745389439
99466.261720687849447
99461.525080272709602
99475.900155689654639
99488.349675545934588
99479.019178965128958
99450.157070690620458
99425.85864640683576
99426.108209582831478
99447.123908273642883
99464.565477197000291
99462.509903112309985
99446.119513390571228
99427.071494870440802
99410.957199984128238
99406.057220828733989
99418.005989567594952
99448.717074834625237
99482.666776080586715
99498.033607673351071
99481.22486321174074
99437.574013708683196
99387.049718131675036
99352.791752085235203
99344.259351801461889
99352.072707478568191
99360.079087055841228
99360.764460631806287
99353.311502859796747
99335.861670984886587
99303.272949956415687
99259.207788096784498
99221.180838209227659
99210.158787704247516
99231.867408069112571
99273.192332405553316
99310.872383203866775
99329.657760765840067
99330.340538078351528
99322.99829284477164
99315.238082539101015
99305.220650144197862
99289.655050741581363
99275.636004769607098
99272.451172489978489
99283.733758234928246
99300.217373316103476
99308.703952476687846
99305.296680475206813
99294.869697518224712
99286.26365930022439
99283.39927186841669
99283.536751353996806
99282.001127879790147
99277.022852767884615
99269.882372736159596
99263.009955985835404
99259.022216205761652
99262.524875747549231
99276.935249165529967
99301.465623017502367
99330.847160322096897
99357.244201726498432
99376.17683072417276
99388.320327309920685
99396.756133220900665
99404.669257540619583
99412.970406779975747
99423.911641212311224
99440.032157088295207
99462.546793507528491
99488.89034628830268
99513.008762217214098
99528.24943191978673
99530.474387923663016
99520.653960605195607
99504.835828280454734
99489.400624274785514
99479.87204073749308
99479.437922658835305
99489.231327492219862
99507.272279871816863
99529.252882692730054
99548.730708759860136
99563.427656457934063
99575.187356782145798
99588.740359038187307
99605.926526265713619
99625.564484534188523
99643.389596369088395
99654.567434250609949
99656.61173469077039
99652.154175624862546
99645.687254425720312
99642.216444326288183
99643.371607336652232
99645.588693674202659
99642.758843522271491
99632.148237329587573
99616.517492248764029
99604.2452757225401
99603.584511697656126
99616.940193013477256
99640.821612610918237
99667.685161562636495
99690.471419597728527
99705.396662264989573
99711.78985995495168
99712.655723335046787
99711.547537399063003
99709.099242745709489
99703.012306040356634
99689.049989143561106
99665.925823088487959
99637.470526574295945
99612.977159613976255
99601.665253614351968
99607.58153171329468
99626.876342988834949
99651.219365878263488
99672.797332521600765
99688.319885288714431
99699.35600848577451
99708.25599395763129
99643.25528215074155
99652.880831126589328
99660.243603823735612
99664.178345275024185
99663.024205085966969
99655.20647435967112
99640.507736879037111
99620.153073706140276
99596.30313016945729
99570.943799200598733
99545.551019180609728
99520.892130798689323
99497.661644219275331
99477.753927326150006
99464.307738673174754
99460.920256081226398
99470.227948652027408
99491.868452221693587
99522.018519711884437
99554.608346576918848
99583.530599506819271
99604.698769413880655
99616.643089522331138
99619.66370957143954
99614.899118509740219
99604.112788758633542
99589.904353348567383
99575.584067090894678
99564.300979393141461
99557.852698984075687
99556.078484541576472
99557.25532319395279
99559.42871109159023
99561.894759677408729
99565.64671409521543
99572.431564823826193
99583.075560514509561
99596.24290132803435
99608.628012492932612
99616.690614672988886
99618.774499556617229
99616.401798958177096
99613.804797383229015
99615.843436164563172
99625.444440915700397
99642.144154368870659
99662.449580817934475
99681.643256770432345
99696.052672711462947
99704.4233693563001
99707.784712644468527
99708.337720718423952
99708.3888489514502
99709.604288493384956
99712.688910100841895
99717.554180841878406
99723.730296875641216
99730.601253948887461
99737.446056787972338
99743.501099992194213
99748.123387183746672
99750.908850885636639
99751.681066928402288
99750.496043091188767
99747.867571866940125
99745.070494573985343
99744.229101202407037
99747.83141517076001
99757.657050910158432
99773.714112278641551
99793.808861442870693
99814.058330004816526
99830.228294007029035
99839.101782389683649
99839.288774609143729
99831.254219119378831
99816.759687958285213
99798.07550851686392
99777.308734470061609
99756.103449900590931
99735.893200963473646
99718.248302684631199
99704.911913030140568
99697.457333821541397
99696.841033431905089
99702.943570765273762
99714.295341047851252
99728.181246264546644
99741.226572300729458
99750.415339465049328
99754.083594034978887
99752.446243325277464
99747.417929868170177
99741.837149874991155
99738.493779678858118
99739.202094645515899
99744.298800343633047
99752.704691519553307
99762.51729771916871
99771.802094879400101
99779.192439721446135
99784.085511451557977
99786.540340522362385
99786.914680478730588
99785.500666543390253
99782.306639794784132
99777.141947877971688
99770.055209004756762
99761.66756354374229
99753.155591514107073
99745.979252093209652
99741.538642741812509
99740.826859223961947
99744.202497453385149
99751.283051983831683
99761.024611616099719
99772.069597090157913
99783.163108827196993
99793.511898895623744
99802.958565994907985
99811.906622239766875
99820.93267714776448
99830.2136685855221
99839.086386775714345
99846.063812962020165
99849.276495244223042
99847.214215543295722
99839.372605977958301
99826.568371583882254
99810.758359306477359
99794.51071247785876
99780.315293974883389
99769.820823452770128
99763.410696726365131
99760.240564445848577
99758.742714377687662
99757.264949603748391
99754.651349741805461
99750.582742608676199
99745.628008042200236
99740.927124702138826
99737.743111704519833
99736.960354357099277
99738.838637168897549
99742.974412531330017
99748.545425180403981
99754.529027793905698
99759.881493263324955
99763.524112319239066
99764.542201486925478
99762.510696402197937
99757.740191655349918
99751.375636074473732
99745.054593871725956
99740.416065892117331
99738.494618669632473
99739.288817362874397
99741.917178791103652
99745.029145305612474
99747.345094947202597
99748.517619622143684
99749.319510231405729
99751.538540676119737
99757.215842570498353
99767.990109471371397
99784.259377171300002
99804.852724244192359
99827.333220656379126
99848.791671105180285
99866.841580566440825
99880.195314546072041
99888.807258403088781
99893.810610368673224
99896.685097822803073
99898.537555507951765
99899.722353964811191
99899.820970045970171
99898.119143807256478
99894.209600293906988
99888.499878356204135
99882.370154617616208
99877.920161061789258
99877.365179170257761
99882.1096654242574
99892.203306721843546
99906.137240690310136
99921.087864536253619
99933.649009722328628
99940.739595270977588
99940.357080856032553
99931.884930652668118
99916.322341278370004
99895.919334867256111
99873.766400358639657
99853.265033349060104
99837.485009142648778
99828.511937173083425
99827.109245638464927
99832.698892395361327
99843.56652976393525
99857.115644882112974
99870.34832103921508
99880.51317786987056
99885.750462193391286
99885.507478254512534
99880.542806254175957
99872.640917228083708
99864.164384030460496
99857.434407922395621
99854.120280515169725
99854.76922288131027
99858.697962214486324
99864.148601100983797
99868.755974583502393
99870.165815357744577
99866.742177308333339
99858.047062448618817
99844.893007753547863
99829.074421854995308
99812.846770495700184
99798.207746043422958
99786.584516205475666
99778.532625526640913
99773.604675358903478
99770.676217878804891
99768.443065698258579
99765.991890745717683
99763.164209381560795
99760.435412486127461
99758.539292265530094
99758.021607514063362
99759.115342452889308
99761.545853482632083
99764.541242764142225
99767.137423014384694
99768.328089559523505
99767.388983381795697
99764.282418079674244
99759.404556685563875
99753.553840901789954
99747.665971175156301
99742.650227590827853
99738.991464439197443
99736.788350779766915
99735.719828292960301
99735.449790671889787
99735.823988116419059
99736.947015119614662
99739.238162812544033
99743.312482679597451
99749.663980645011179
99758.38144977306365
99769.082178680342622
99780.934439536868013
99792.66076257538225
99802.986156018087058
99369.825775045814225
99333.905741762762773
99325.623840389758698
99293.79982336302055
99344.461434830242069
99370.63320800033398
99247.149259366342449
99134.319424241301022
99206.528774328864529