/*--------------------------------*- C++ -*----------------------------------*\
  =========                 |
  \\      /  F ield         | OpenFOAM: The Open Source CFD Toolbox
   \\    /   O peration     | Website:  https://openfoam.org
    \\  /    A nd           | Version:  12
     \\/     M anipulation  |
\*---------------------------------------------------------------------------*/
FoamFile
{
    format      ascii;
    class       volScalarField;
    location    "0.0071";
    object      pMean;
}
// * * * * * * * * * * * * * * * * * * * * * * * * * * * * * * * * * * * * * //

dimensions      [1 -1 -2 0 0 0 0];

internalField   nonuniform List<scalar> 
75962
(
98849.125176318513695
98849.540959189456771
98849.254773720444064
98849.096957466550521
98849.067796616916894
98849.006789551436668
98848.850022254206124
98848.615779881045455
98848.352637672491255
98848.056187832480646
98847.698829736851621
98847.275838682369795
98846.793076966772787
98846.273174899964943
98845.761735106949345
98845.282533086006879
98844.827286908330279
98844.379504130411078
98843.924068208027165
98843.437674485103344
98842.902443822225905
98842.335098355804803
98841.778256265431992
98841.247834894515108
98840.723125406948384
98840.18877194194647
98839.648508711747127
98839.111215564436861
98838.582004289273755
98838.065539365416043
98837.565040954636061
98837.078775606903946
98836.601404399960302
98836.125075680596638
98835.646202192307101
98835.170538026039139
98834.7050409152871
98834.257084844168276
98833.829588954351493
98833.408074379593018
98832.967956401291303
98832.505377558540204
98832.043423699316918
98831.597320770044462
98831.157525785703911
98830.718486226134701
98830.293598172196653
98829.892238655200345
98829.506988197055762
98829.127223863804829
98828.754347698064521
98828.39017144976242
98828.025736286595929
98827.649769832118182
98827.260113211188582
98826.868179498109384
98826.487693157032481
98826.129527826051344
98825.795994676474947
98825.47853046063392
98825.160062575159827
98824.831350431486499
98824.497327865727129
98824.167833238927415
98823.848649221516098
98823.543945391531452
98823.260191102148383
98822.998368275497342
98822.748586075991625
98822.495723301370163
98822.234457416678197
98821.973910789805814
98821.724322281806963
98821.483429490210256
98821.242094054992776
98820.995373209036188
98820.745454781266744
98820.496028647088679
98820.248642402235419
98820.005406662283349
98819.768616213434143
98819.538462581622298
98819.312268011795823
98819.086314929329092
98818.857696900478913
98818.626058569192537
98818.392465725395596
98818.158931073485292
98817.927942644470022
98817.701409088782384
98817.479259259620449
98817.260829182923771
98817.046439198296866
98816.837536896317033
98816.635066873626783
98816.440416725614341
98816.254550081037451
98816.077243647203431
98815.903605655927095
98815.725589684399893
98815.53631792771921
98815.33386705275916
98815.120739268095349
98814.899839880439686
98814.672350683220429
98814.438617561856518
98814.202660979441134
98813.972700520549552
98813.75599597490509
98813.55251406658499
98813.353694927340257
98813.149571603396907
98812.93814708442369
98812.728378954634536
98812.531988765738788
98812.353427198118879
98812.185803652901086
98812.016563144090469
98811.838315642438829
98811.654338894688408
98811.474002262460999
98811.3034662661521
98811.141885636607185
98810.983200808725087
98810.820467861442012
98810.650618127547204
98810.474569418322062
98810.296047024792642
98810.120193258757354
98809.95196626005054
98809.793225843342952
98809.641773075985839
98809.49308136345644
98809.342456896105432
98809.186194253634312
98809.022596060938668
98808.852035663891002
98808.676069099761662
98808.496651181805646
98808.315424435320892
98808.134643903758842
98807.958690363841015
98807.793198841434787
98807.641431046940852
98807.502753669308731
98807.373071666370379
98807.246367051397101
98807.118238372015185
98806.987252325634472
98806.854143067102996
98806.719127572243451
98806.581709940597648
98806.440395616737078
98806.293527619433007
98806.14185678854119
98805.989535966407857
98805.843295352184214
98805.710477224376518
98805.596174701742711
98805.500600365543505
98805.41892890316376
98805.343970747911953
98805.270518257268122
98805.198254373768577
98805.130843627412105
98805.071972285382799
98805.021645058368449
98804.975171632642741
98804.925931124569615
98804.869583775493084
98804.806815347954398
98804.742893203409039
98804.684545460928348
98804.63548446277855
98804.594649495862541
98804.557649185197079
98804.519793549363385
98804.47989371069707
98804.440654964259011
98804.406365994072985
98804.379548975324724
98804.359221752165467
98804.341598636761773
98804.322052017683745
98804.298124047432793
98804.270625161690987
98804.242380498762941
98804.215904610930011
98804.05563673976576
98804.037700450004195
98804.014948604803067
98803.987345159301185
98803.956223092332948
98803.924042412356357
98803.893646734184586
98803.867640646727523
98803.847866945769056
98803.835092238339712
98803.829193367433618
98803.829573600829463
98803.834932361321989
98803.843493744483567
98803.852587776695145
98803.859122444264358
98803.860409449029248
98803.854694122434012
98803.841515389925917
98803.821556956580025
98803.796011473110411
98803.765885800603428
98803.732209163354128
98803.696637371962424
98803.661782286086236
98803.630992358521326
98803.607475346259889
98803.593162085395306
98803.58803745698242
98803.590385441741091
98803.597720090983785
98803.607638069443055
98803.618181522950181
98803.627936526710982
98803.636008155706804
98803.642037605386577
98803.646431845729239
98803.650601993474993
98803.656859736423939
98803.667811007413547
98803.685389521211619
98803.709937298190198
98803.740097983245505
98803.773391000271658
98803.80730988481082
98803.840569248321117
98803.873794640865526
98803.909177661524154
98803.949131452696747
98803.994856034099939
98804.045655772570171
98804.0992053301743
98804.152636357481242
98804.203791589432512
98804.25189032551134
98804.297602342805476
98804.342701795336325
98804.389397792052478
98804.439625894941855
98804.494473373735673
98804.553906952773104
98804.617005039413925
98804.682470144092804
98804.749235264855088
98804.81655896929442
98804.883746978346608
98804.949692332796985
98805.012589324018336
98805.069965691713151
98805.11923951980134
98805.158552469772985
98805.18754832643026
98805.207695151111693
98805.221974927640986
98805.234148604067741
98805.247805857405183
98805.265675617280067
98805.289405378731317
98805.319645120762289
98805.356196255641407
98805.398197985108709
98805.444185198226478
98805.491993815245223
98805.538880962732947
98805.581887941458263
98805.618392981676152
98805.64671671843098
98805.666472957018414
98805.67859788518399
98805.685108211240731
98805.688558472014847
98805.691427873549401
98805.695497552325833
98805.701563342605368
98805.709476648873533
98805.718343107131659
98805.726984774388256
98805.73435938093462
98805.739859572990099
98805.743379776147776
98805.745215160000953
98805.7458844481298
98805.745979469094891
98805.74613834930642
98805.747034127241932
98805.749421400920255
98805.754177900511422
98805.762291923281737
98805.77472722636594
98805.792188455656287
98805.814977972710039
98805.842909650673391
98805.875289099436486
98805.911057925550267
98805.949149544700049
98805.988841013328056
98806.02985854446888
98806.072306008441956
98806.116492198285414
98806.162681821675505
98806.210825817674049
98806.260490373286302
98806.311019371234579
98806.36172524272115
98806.412166003428865
98806.462364349747077
98806.51287244145351
98806.564639285235899
98806.618770829314599
98806.676211068144767
98806.737430532608414
98806.802278539718827
98806.869963398901746
98806.939264079119312
98807.008830011778628
98807.077502193060354
98807.144473231586744
98807.209281346644275
98807.271709537279094
98807.331656078618835
98807.389038916589925
98807.44365537998965
98807.495220615513972
98807.543451006597024
98807.588205009975354
98807.629616773425369
98807.668161165842321
98807.70464372166316
98807.740094779786887
98807.775569111632649
98807.811937819758896
98807.84970208039158
98807.888932443587692
98807.92927458678605
98807.97005263408937
98808.010428485373268
98808.04958188450837
98808.086828912928468
98808.121711127343588
98808.154034243998467
98808.18385975426645
98808.21141516782518
98808.236916313602705
98808.260483426915016
98808.28205324857845
98808.301372744725086
98808.318131398074911
98808.332182264377479
98808.343636834208155
98808.352902412676485
98808.360652021787246
98808.367733980267076
98808.37504073184391
98808.383405253553065
98808.393548592852312
98808.406071356177563
98808.421473424998112
98808.440172754359082
98808.462457256609923
98808.488433513586642
98808.517910847614985
98808.550381446213578
98808.585113029083004
98808.621252026743605
98808.658021657072823
98808.694968345967936
98808.732120153697906
98808.770030944011523
98808.809629503826727
98808.851931424724171
98808.89771937119076
98808.94734841574973
98809.000645847307169
98809.05696139925567
98809.115270651454921
98809.174436261993833
98809.233415239927126
98809.291390924307052
98809.347776583250379
98809.402219348528888
98809.454572924645618
98809.504891163072898
98809.553390164728626
98809.600407273770543
98809.646301622036844
98809.691427793892217
98809.736079497772153
98809.780433306499617
98809.824531594262226
98809.868296623288188
98809.911599572005798
98809.954412331571802
98809.996957521274453
98810.039793404241209
98810.083766274401569
98810.129883488305495
98810.179122897272464
98810.232250591245247
98810.289668914832873
98810.351395582358236
98810.417144404622377
98810.486529637433705
98810.559299915781594
98810.635463850412634
98810.715289188970928
98810.799285914588836
98810.888079092022963
98810.982262342411559
98811.082294433930656
98811.188497025315883
98811.301044466672465
98811.420120047434466
98811.546067178060184
98811.679386655479902
98811.820768809848232
98811.971060594121809
98812.1312484551745
98812.302343359653605
98812.485296635786653
98812.680925923894392
98812.889905511721736
98813.112804788164794
98813.350065120277577
98813.602015195341664
98813.868900325483992
98814.150907957533491
98814.448142853332683
98814.760631203535013
98815.088369210337987
98815.431329103957978
98815.789524015970528
98816.163116634386824
98816.552537879048032
98816.958641914839973
98850.068385993450647
98850.182671834234498
98849.102710041450337
98849.105613207240822
98849.193538944018655
98849.060793350712629
98848.831971720574074
98848.601567066914868
98848.353354144564946
98848.039980285888305
98847.657329671084881
98847.228055674553616
98846.751883404504042
98846.237444322978263
98845.717645284355967
98845.229516648483695
98844.782203170645516
98844.353775453389972
98843.909961791840033
98843.430355104443152
98842.915507678408176
98842.376743424669257
98841.835988515158533
98841.30920187337324
98840.792242375537171
98840.26847240999632
98839.730828573228791
98839.189016745585832
98838.660053664949373
98838.15364942800079
98837.665702813726966
98837.185964491276536
98836.70404434412194
98836.22062772733625
98835.743344250295195
98835.275650842275354
98834.816400512267137
98834.367787405688432
98833.936224066623254
98833.511751720230677
98833.070221414702246
98832.607469254391617
98832.146839417982846
98831.703708668093896
98831.271877274732105
98830.843573957914487
98830.426857733051293
98830.027876963853487
98829.640189809681033
98829.256698526383843
98828.880416253174189
98828.515000232495368
98828.149260421370855
98827.768484488682589
98827.372623220493551
98826.976760934456252
98826.595174356320058
98826.234178292434081
98825.894504515788867
98825.569864529519691
98825.248026549539645
98824.920034421782475
98824.586962395071168
98824.257239806553116
98823.940210939777899
98823.643506196254748
98823.370866558951093
98823.116539389826357
98822.866098350190441
98822.607890071129077
98822.34333213508944
98822.085417973357835
98821.844045752950478
98821.613880299002631
98821.382020145247225
98821.14146526044351
98820.894248183394666
98820.646300891894498
98820.402266377495835
98820.166242455743486
98819.93890329010901
98819.717034711924498
98819.493159241173998
98819.260488756786799
98819.017882604544866
98818.77075870972476
98818.527291894788505
98818.293320606928319
98818.069608730525943
98817.852271889147232
98817.637055361788953
98817.421303514027386
98817.206361764416215
98816.995337147658574
98816.790079407932353
98816.592870752938325
98816.406554636065266
98816.231893207354005
98816.063496339324047
98815.890511770136072
98815.702600564880413
98815.496622977792867
98815.276657070222427
98815.049452272534836
98814.819972909332137
98814.589763873300399
98814.36120013690379
98814.139827297112788
98813.930058285637642
98813.729898142453749
98813.530841535204672
98813.32540109421825
98813.113953192223562
98812.905349471970112
98812.708122848780476
98812.524166767063434
98812.34802664219751
98812.17173313938838
98811.991751722845947
98811.810766909300582
98811.634667925929534
98811.467230461596046
98811.307690420944709
98811.152263140320429
98810.996146812467487
98810.83512267957849
98810.667302416288294
98810.494061158547993
98810.319801824749447
98810.149645700294059
98809.986050588137005
98809.82824285942479
98809.67397743408219
98809.520231933754985
98809.364172513043741
98809.203637576880283
98809.037319704963011
98808.865281968202908
98808.688558807465597
98808.509397761925356
98808.332014898769557
98808.161234101615264
98808.000996482849587
98807.852474105529836
98807.713895113774925
98807.581235517660389
98807.44977328692039
98807.316055502989911
98807.179657827422488
98807.042082465210115
98806.904980669496581
98806.767896327015478
98806.628658597139292
98806.485494140186347
98806.33840196057281
98806.190595761639997
98806.047942735778634
98805.916615228779847
98805.800559122217237
98805.699489581704256
98805.609396973159164
98805.525348881274113
98805.444639418463339
98805.36828491918277
98805.299908934117411
98805.241858630892239
98805.192387431874522
98805.145983487193007
98805.096295243944041
98805.039092489241739
98804.974592409358593
98804.906983822598704
98804.841632708921679
98804.781906712349155
98804.727826356436708
98804.677084528811974
98804.627367078297539
98804.579090916537098
98804.535288648912683
98804.499744802640635
98804.474114706186811
98804.456420143149444
98804.441593245719559
98804.424196797102923
98804.401053947221953
98804.372505799590726
98804.341224090690957
98804.309873818492633
98804.279359879263211
98804.101728839974385
98804.083038888944429
98804.059757379480288
98804.03146928208298
98803.998677227587905
98803.962964358273894
98803.926799652996124
98803.893123345376807
98803.864540336129721
98803.842734042395023
98803.82821931457147
98803.820778576526209
98803.819692592529464
98803.823975857158075
98803.8320280728949
98803.841167311678873
98803.847903734145802
98803.848686939789332
98803.840908303929609
98803.82347025013587
98803.796925066606491
98803.763096771304845
98803.724418089361279
98803.683346385194454
98803.642335389391519
98803.604012713680277
98803.571009443316143
98803.545303228849662
98803.527579000190599
98803.517137314978754
98803.512460739919334
98803.511813444711152
98803.513813581841532
98803.517651322646998
98803.522826938933576
98803.528752639045706
98803.534700989024714
98803.540221672054031
98803.545752470192383
98803.552902293478837
98803.564013689639978
98803.581175309969694
98803.60529153769312
98803.635569448044407
98803.669806238365709
98803.705341089415015
98803.740393920772476
98803.774887247505831
98803.810223329506698
98803.848334515889292
98803.89057334496465
98803.937053344561718
98803.98678848563577
98804.038229115947615
98804.089936198317446
98804.141105609218357
98804.191785686693038
98804.242708757112268
98804.294904707188834
98804.349241538235219
98804.406166994114756
98804.465573919631424
98804.526939207440591
98804.589651055430295
98804.653193742444273
98804.717164637695532
98804.781003697076812
98804.843629328999668
98804.903183915797854
98804.957269071033807
98805.003622500182246
98805.040895733749494
98805.069184391846647
98805.090125961985905
98805.106529766635504
98805.121645744395209
98805.138470901059918
98805.159332631272264
98805.185701798080117
98805.218210288701812
98805.256751413500751
98805.30055324654677
98805.348178692744114
98805.397472113036201
98805.445763817202533
98805.490284752027947
98805.528639616124565
98805.559296628212905
98805.582004739218974
98805.597854533596546
98805.608977037030854
98805.617926767765312
98805.626946224801941
98805.637484927574405
98805.649968037541839
98805.663888932176633
98805.678171592473518
98805.69156817025214
98805.703076748206513
98805.712207230128115
98805.719009504959104
98805.723950052808505
98805.72771450750588
98805.731080870638834
98805.73480867127364
98805.73962459123868
98805.746280561579624
98805.755620787735097
98805.768533366936026
98805.785803667589789
98805.8079102980264
98805.834953086450696
98805.866628883217345
98805.902218379676924
98805.940766133295256
98805.981309197930386
98806.023132580143283
98806.06593283895927
98806.109766436129576
98806.154868860961869
98806.201402223246987
98806.249294025328709
98806.298219096104731
98806.347728309658123
98806.397538537392393
98806.447714634050499
98806.498732410429511
98806.551451782099321
98806.6069324380951
98806.666159013620927
98806.729695303176413
98806.797540397543344
98806.869041313999332
98806.943077285992331
98807.018334306834731
98807.093579513661098
98807.167898224259261
98807.240804663073504
98807.312121568480507
98807.381847609052784
98807.449970908972318
98807.516340097630746
98807.580688272151747
98807.642642152641201
98807.701837664615596
98807.758017292420845
98807.811072257405613
98807.861173538374715
98807.90880713511433
98807.954734147555428
98807.999862909709918
98808.045056858099997
98808.09088558908843
98808.137505576320109
98808.184690765541745
98808.231880342442309
98808.2783470400027
98808.323420761531452
98808.366681775980396
98808.408031760103768
98808.447663287181058
98808.485905256922706
98808.522972931736149
98808.558831547401496
98808.593069153968827
98808.624993875724613
98808.65385893061466
98808.679130966294906
98808.70068863441702
98808.718981152997003
98808.734937193992664
98808.749781745049404
98808.764734697848326
98808.780796301623923
98808.798677999599022
98808.818854526602081
98808.84168222353037
98808.867508006471326
98808.896711495908676
98808.929684650007403
98808.966696042596595
98809.007670776045416
98809.052039949048776
98809.098779457941419
98809.146653124742443
98809.194575524117681
98809.241922622459242
98809.288718404292013
98809.335715032546432
98809.384208587536705
98809.435696698681568
98809.491554170133895
98809.552764213716728
98809.619682172909961
98809.691942983292392
98809.768562118086265
98809.848113014508272
98809.928995550959371
98810.009677105364972
98810.088928385448526
98810.165958221827168
98810.240466415853007
98810.312641363489092
98810.383062760884059
98810.452540404730826
98810.521987116459059
98810.592198168713367
98810.663648972229566
98810.736390423902776
98810.810101519076852
98810.884235285280738
98810.958215959384688
98811.031676695041824
98811.104656925963354
98811.177723583110492
98811.251967667252757
98811.328818481750204
98811.409732965345029
98811.495807665487519
98811.587576125268242
98811.685068297781982
98811.78791954931512
98811.895587356033502
98812.007574632312753
98812.123637904340285
98812.243906838513794
98812.368842105177464
98812.499128169729374
98812.635436852986459
98812.778281459482969
98812.92797063087346
98813.08465697261272
98813.248456291490584
98813.419628383766394
98813.598670123436023
98813.786315863748314
98813.983486835393705
98814.191228913434315
98814.4105979474989
98814.642563784203958
98814.887931750447024
98815.147303872116026
98815.421103401880828
98815.709599921407062
98816.013042440827121
98816.331676305213477
98816.665759789568256
98817.015525972834439
98817.381141565740108
98817.762701424609986
98818.160238677577581
98818.573823340630042
98819.003646680706879
98819.450125654475414
98819.913993898226181
98846.795877317883424
98848.297235702455509
98848.291370583727257
98848.281039960245835
98848.353139438084327
98848.365309910121141
98848.336203035854851
98848.267359633711749
98848.123208585690008
98847.871166822282248
98847.512718971891445
98847.092862026882358
98846.633978322774055
98846.141376770785428
98845.633701052734978
98845.147730431432137
98844.707483629477792
98844.28588318832044
98843.84022013793583
98843.364018714157282
98842.867581281650928
98842.353585136123002
98841.828342645472731
98841.307383044040762
98840.798465499246959
98840.284959400145453
98839.755452197598061
98839.222451904541231
98838.711085866263602
98838.231474238462397
98837.768426947921398
98837.301314328055014
98836.823891881431337
98836.344742856235825
98835.875417956573074
98835.413029891366023
98834.950561386387562
98834.494955886650132
98834.059732655878179
98833.634232112803147
98833.192475557414582
98832.728389005962526
98832.267521281959489
98831.832410817820346
98831.41829691149178
98831.009615663555451
98830.601782829966396
98830.198496848694049
98829.801356151656364
98829.413153707893798
98829.03996916662436
98828.679821480182
98828.315296834742185
98827.930952801965759
98827.532808566276799
98827.137746036110912
98826.755990588426357
98826.389611858990975
98826.039776689707651
98825.705617342246114
98825.380514259071788
98825.05369648092892
98824.723329798376653
98824.39824931063049
98824.091709193322458
98823.810009269029251
98823.549364316480933
98823.298355281920522
98823.044681664614473
98822.783764776686439
98822.521238700835966
98822.26789407923934
98822.029677853148314
98821.800232034220244
98821.567809724394465
98821.327052757085767
98821.081988353093038
98820.839379532801104
98820.60395050146326
98820.376731558455504
98820.15505938854767
98819.933226626075339
98819.703974092961289
98819.461345781048294
98819.207824479890405
98818.953091934352415
98818.709688488888787
98818.485171005770098
98818.276990196332918
98818.075073625557707
98817.869691128275008
98817.657381025652285
98817.440507625200553
98817.223064141755458
98817.008252381172497
98816.801025946668233
98816.60697452261229
98816.427620987189584
98816.255897479728446
98816.079189400828909
98815.886703493015375
98815.676181786606321
98815.453371940428042
98815.22635675764468
98815.000246963565587
98814.776183401772869
98814.554768309171777
98814.339149921419448
98814.132170386816142
98813.931985868126503
98813.732650492878747
98813.529229777414002
98813.321933850907953
98813.115315777758951
98812.914487953719799
98812.721413415260031
98812.534268967880053
98812.350788569077849
98812.170408305391902
98811.99425495925243
98811.823956617823569
98811.660411845165072
98811.503303445846541
98811.351106584799709
98811.20081141749688
98811.047853598036454
98810.889144360029604
98810.724562030532979
98810.556292389228474
98810.387514713118435
98810.220258983288659
98810.055131046363385
98809.892114250396844
98809.730999100604095
98809.570765965545434
98809.409106790990336
98809.243487386906054
98809.073157044855179
98808.899141274450812
98808.724748777472996
98808.554614546927041
98808.391858460090589
98808.237003504531458
98808.089193280044128
98807.946361819675076
98807.80573367269244
98807.665176331065595
98807.523676656783209
98807.381716085103108
98807.241161193480366
98807.103427302732598
98806.967823552899063
98806.832328704127576
98806.69559795409441
98806.557479154434986
98806.419728270513588
98806.285484845138853
98806.158092043726356
98806.039976214044145
98805.931370253310888
98805.830595951265423
98805.735904214670882
98805.647394939383958
98805.566803185050958
98805.496757668981445
98805.437578556506196
98805.386079756077379
98805.336732249576016
98805.283913218518137
98805.224384446395561
98805.158097361199907
98805.087487717421027
98805.015975620204699
98804.946198285673745
98804.879294417856727
98804.815235396337812
98804.754116519572563
98804.697602107102284
98804.648821813389077
98804.61059822383686
98804.583516082362621
98804.564692365762312
98804.548748984263511
98804.5302115437662
98804.506199526425917
98804.476718914418598
98804.443829156763968
98804.409448462218279
98804.374278310337104
98804.120125865054433
98804.097781085787574
98804.070035464857938
98804.037527078005951
98804.00138686299033
98803.963493092596764
98803.926178430425352
98803.89174270357762
98803.861887064529583
98803.837558218176127
98803.819229281449225
98803.807082666826318
98803.801105096630636
98803.800952934921952
98803.805382051010383
98803.811904399975901
98803.816833380667958
98803.815932857643929
98803.80568276764825
98803.78445016250771
98803.752973281298182
98803.713829256143072
98803.670298437296879
98803.62550989400188
98803.582159828176373
98803.542467694816878
98803.508146478125127
98803.480132267359295
98803.458375336893369
98803.442026812321274
98803.42984677424829
98803.420872275630245
98803.414801632083254
98803.411848506439128
98803.412264388185577
98803.415755585447187
98803.421254117973149
98803.427498013377772
98803.433994655089919
98803.441646481107455
98803.452492992786574
98803.468764026954887
98803.491797697744914
98803.521312469951226
98803.555462824486312
98803.591680420111516
98803.627809318189975
98803.662906999394181
98803.697419320378685
98803.73265335711767
98803.770139229905908
98803.81113842195191
98803.856275947066024
98803.90545093214314
98803.958009263922577
98804.01306909233972
98804.069780168036232
98804.127444351732265
98804.185512329466292
98804.243649220836232
98804.301730011997279
98804.359851161570987
98804.418246468543657
98804.477147066194448
98804.536682616584585
98804.596774269361049
98804.656872399515123
98804.715755842538783
98804.771487470003194
98804.821885701298015
98804.865211975440616
98804.90079931798391
98804.929323665593984
98804.952626047394006
98804.9731765636825
98804.993540078954538
98805.015924399718642
98805.041831664173515
98805.072058147619828
98805.106833297933917
98805.145987610405427
98805.18895525521657
98805.234710151824402
98805.281736955075758
98805.328082914566039
98805.371640156241483
98805.410509933964931
98805.443436560031842
98805.470166915562004
98805.49158796928532
98805.509537613848806
98805.526181265799096
98805.543336230344721
98805.561997561584576
98805.582214717680472
98805.603264761259197
98805.623970285407268
98805.643097730207955
98805.659742421004921
98805.673535357607761
98805.684674593911041
98805.693788501535892
98805.701709025132004
98805.709280455033877
98805.717341948839021
98805.72673015233886
98805.738289529806934
98805.752858520456357
98805.77121768060897
98805.793948563325102
98805.82131302804919
98805.853128567425301
98805.888843681867002
98805.927680216627778
98805.968748178420356
98806.011236677586567
98806.054606778576272
98806.098665387165966
98806.143499900223105
98806.189320076155127
98806.23631245062279
98806.28445010141877
98806.333508250056184
98806.383238658425398
98806.433585256294464
98806.484876532282215
98806.537917633700999
98806.593885118491016
98806.653992034087423
98806.719076472407323
98806.78935612719215
98806.864316165097989
98806.942866792640416
98807.023568937031087
98807.104934457049239
98807.185824631815194
98807.265647287887987
98807.34429726000235
98807.421963725224487
98807.498895138574881
98807.575219192163786
98807.650860881549306
98807.725578523284639
98807.799030374648282
98807.870832079890533
98807.940590303536737
98808.007942189477035
98808.07263019111997
98808.134594031245797
98808.193982228680397
98808.251242595404619
98808.306916656234534
98808.361579755015555
98808.41560395572742
98808.469051152307657
98808.521725770173362
98808.573333397245733
98808.623671276887762
98808.672836575176916
98808.721187062998069
98808.769199659785954
98808.817282805583091
98808.865434362072847
98808.913029696705053
98808.958948709041579
98809.001870085150586
98809.04064493883925
98809.074627764843171
98809.103941675639362
98809.129496538997046
98809.152784399251686
98809.175506917919847
98809.199200863367878
98809.224938000086695
98809.253295011250884
98809.28450798598351
98809.318738373272936
98809.356244100286858
98809.397415522980737
98809.442700315383263
98809.492352240704349
98809.546202712255763
98809.603517658324563
98809.663098990073195
98809.723551292583579
98809.783595085231354
98809.842448293944472
98809.900083375803661
98809.957310197118204
98810.015663257436245
98810.077065392848453
98810.143436391983414
98810.216269187279977
98810.29635387766757
98810.383620903332485
98810.477173682113062
98810.575452176432009
98810.676519158048905
98810.778374494300806
98810.879268820674042
98810.977983699689503
98811.074044491237146
98811.167774590678164
98811.260165965650231
98811.352583420579322
98811.446348769633914
98811.542429445835296
98811.641300266404869
98811.742869026493281
98811.846475951388129
98811.951120520505356
98812.055847449359135
98812.1601125033485
98812.264005240882398
98812.368303228882723
98812.47436494732392
98812.58387590815255
98812.698495984746842
98812.819490233974648
98812.947455885689124
98813.08228607440833
98813.223411756887799
98813.370049527627998
98813.521502921925276
98813.677408102856134
98813.837857520833495
98814.003359582391568
98814.174700130854035
98814.352732039187686
98814.538147512066644
98814.731368286345969
98814.932530266523827
98815.141628240118735
98815.358715031907195
98815.584070116296061
98815.818370066408534
98816.062605151775642
98816.317856271096389
98816.585148560654488
98816.865338942574454
98817.15907055005664
98817.46684007528529
98817.789050339662936
98818.126059117799741
98818.478211760229897
98818.8458858160011
98819.229468684803578
98819.629331377858762
98820.045756387131405
98820.478885827367776
98820.928727551581687
98821.395248852568329
98821.878535930663929
98822.378920758943423
98822.897088313780841
98823.434133377566468
98848.409680030119489
98849.325425893606734
98849.041441717708949
98848.858896766469115
98848.812217160724686
98848.710959290314349
98848.531414471683092
98848.367622389501776
98848.200515851276577