/*--------------------------------*- C++ -*----------------------------------*\
  =========                 |
  \\      /  F ield         | OpenFOAM: The Open Source CFD Toolbox
   \\    /   O peration     | Website:  https://openfoam.org
    \\  /    A nd           | Version:  12
     \\/     M anipulation  |
\*---------------------------------------------------------------------------*/
FoamFile
{
    format      ascii;
    class       volScalarField;
    location    "0.0071";
    object      rho;
}
// * * * * * * * * * * * * * * * * * * * * * * * * * * * * * * * * * * * * * //

dimensions      [1 -3 0 0 0 0 0];

internalField   nonuniform List<scalar> 
75962
(
1.1514731332317544865
1.1515624850120946832
1.1509944568008567689
1.1513539971649513483
1.1511268196559576449
1.1515954277009412543
1.1526405055839981095
1.152781904083750808
1.1522761039417319662
1.1519687797512663252
1.1521000240647620849
1.1528058337334172734
1.153953439314968854
1.1545532308412915778
1.1540908933682689774
1.1530033518312272633
1.1517831807925946741
1.1508794688790673355
1.1507945214641175369
1.151686899836318112
1.1528873762544173953
1.1534215861279752957
1.1530894040985115723
1.1525831906337007382
1.1522927100282547297
1.1520775054687817374
1.1518562882951319803
1.15172931297698522
1.1517184382167267032
1.1517724493427841104
1.1518584264431286357
1.1519577020095306263
1.1520826998267539309
1.1521448295442344723
1.1519889925656601193
1.151598101042922595
1.1511038844547800686
1.1506224462986478496
1.1503733660412165385
1.1505864051542149529
1.1510619426243207108
1.1512254707310796142
1.1508872650966521789
1.1505321502269543199
1.1504789328617726074
1.1505428393171583945
1.1505478423105588437
1.1506341182649815202
1.1508904467108445058
1.1510728123328857198
1.1509558308438827545
1.1506789070539977793
1.1505383122128651774
1.1505982221278878708
1.1507263491328356686
1.1507946794468446594
1.1507383738571581588
1.1505451048051074103
1.1503086314824289005
1.150166346024426689
1.1501343619749924141
1.1500536199100128698
1.1498617010258822546
1.149703422244481299
1.1496845101891750573
1.1497096371236252832
1.1496576122822355082
1.1495765949600900147
1.1495677068812997224
1.1495766456887535067
1.1494269924582034559
1.1490673203377514966
1.1487034938826350405
1.1485856197287576119
1.1487129290311375307
1.1488780825657509688
1.1488995400024899496
1.1487110318704412126
1.1483349927265822377
1.1477865438209773341
1.1472300947143665439
1.1468279765410716031
1.1467376515743954446
1.1469719060297773883
1.147407078880965603
1.147867299737693747
1.1481670247627657755
1.1481884660938688203
1.1479552542739150933
1.1476019182153383014
1.1472969412795497313
1.1471538706679533792
1.1471564258882500642
1.147198823780561705
1.1471240487316349821
1.1468129061294354276
1.1462709232027834538
1.1456416618242339922
1.1451690442935182901
1.1450528854963837322
1.1453092059070022479
1.1457813429533159066
1.1462710980763426427
1.1466356321514077354
1.1468064638295187851
1.1467654954899013653
1.1465408854361711644
1.1462395625262995491
1.1460435996952276216
1.1461153238526204934
1.1464586581836246904
1.1468487242764942025
1.1469768274421279219
1.1466624368178786053
1.1460301697666752663
1.1454094048104315196
1.1450896757040154306
1.1451299096515328291
1.1453534387019868035
1.1455264693638078644
1.1455619128500844628
1.1455389410024905406
1.1455894647910933593
1.1457805728045313831
1.1460891841513927147
1.1464423137098305183
1.1467570528147235098
1.1469600768779149025
1.1470076265179141028
1.1469228343604871423
1.146787896908075588
1.1466879128010454281
1.1466866713416528079
1.1467954829506086245
1.146988392761647102
1.1472137222041334237
1.147423808848850646
1.1475940042549499509
1.1477195804524153999
1.1477920974801920639
1.1477936631434757508
1.147720569481906816
1.1476174596671739891
1.1475710338815026113
1.1476746347963984185
1.1479627963306184846
1.1483751377865625276
1.1487818637068003547
1.1490559794076828926
1.149131507629573612
1.1490243198867033936
1.1488038478377231577
1.1485607391113969999
1.1483563538449876873
1.1482084620204919823
1.1481022588011917662
1.1480236904015348465
1.1479983205303678773
1.148081604995753624
1.1483268893481255457
1.1487344675059565358
1.1492230614203979844
1.1496361761729796402
1.1498159412952668745
1.1496932435804583239
1.149331434860822565
1.1488844550406567269
1.1485180949105711079
1.1483192158707040686
1.1482833028240977402
1.1483419924725641881
1.1484341304244720661
1.1485459333508987179
1.1487073751129934784
1.1489429773455142048
1.1492185458806980503
1.1494415948644081116
1.1494995601292676835
1.1493172043056254505
1.1489208546943312506
1.1484160405861474352
1.1479389393667949193
1.1475896573100767828
1.1474040846289808027
1.1473612175011649317
1.1474192698146914449
1.1475639583882342176
1.1478194573166604631
1.1558816280942494359
1.1559161599442051571
1.1559728821701109602
1.1560213776964258781
1.1560267872765173092
1.155963571899166098
1.1558267279944240968
1.1556308528761014554
1.1554025858159107099
1.1551717078644574421
1.1549563264907429794
1.1547759843458962337
1.1546401381897730687
1.1545612631792343539
1.1545574770475073301
1.1546316359283952391
1.154771275916191442
1.1549496469188693659
1.1551345334063845005
1.1553044237303842223
1.155454698264451352
1.1555863089895039852
1.1556894507647603731
1.155741623559833009
1.1557204782028565049
1.1556199978772616621
1.1554600203377658474
1.1552814521129703973
1.1551302112881303152
1.1550388245143445864
1.1550166765304237249
1.155054813841274175
1.1551371374367853662
1.1552496944762127296
1.1553811001721878693
1.1555156530188717134
1.1556300392357716778
1.1556988518567741231
1.1557067357136607821
1.1556600984748013339
1.1555898510337512253
1.1555405425076876735
1.1555497149315296923
1.1556283739011172784
1.1557533411118299238
1.155877593738786846
1.1559550601317378771
1.1559652387376455618
1.1559241727276130529
1.1558758362795695795
1.1558684526393083747
1.155930610943647352
1.1560593498140543378
1.1562241212744437391
1.1563823097257905914
1.1564960075808070616
1.1565437822877131513
1.1565249265118433541
1.1564561226727156917
1.1563639062518327183
1.1562740569317864203
1.1562028471315930478
1.1561537552434650866
1.1561220519977277732
1.156104786995379996
1.1561094463756707018
1.1561547235552733781
1.1562625314784285013
1.1564451608991634934
1.156693761518984509
1.1569746574109744941
1.1572372283613108213
1.1574311776905261695
1.1575235156892775823
1.1575073735630565519
1.1573990891255472313
1.1572273865134050652
1.1570215449594904999
1.1568054479772762466
1.1565980269003155456
1.1564166830218383097
1.1562796913272677113
1.1562048624384073658
1.1562044970450917614
1.1562791915599732739
1.1564142969022426222
1.1565819167400417378
1.1567475097297412745
1.1568792285103404183
1.1569557299530803807
1.1569708469740507262
1.1569341157629005057
1.1568667771130685118
1.1567937658179163751
1.1567356666539736487
1.1567035122430386895
1.1566980842608525215
1.1567126894382406821
1.1567373201493125201
1.1567632859023353475
1.1567857923277204968
1.1568036210537453456
1.1568167483831079956
1.1568235883935691355
1.1568200849757357407
1.1568014436229170361
1.1567643203145041575
1.1567087374565396818
1.1566394482612030181
1.1565657486471667692
1.1565001102885272832
1.156455379911790704
1.1564411200525768209
1.1564602271267208078
1.1565074434783382262
1.1565708215565089212
1.1566362476278286842
1.156693178093960217
1.1567386179672949353
1.1567769267138197087
1.1568162830133064123
1.1568640568797656787
1.1569228484592872785
1.1569879426061429051
1.157047921481792141
1.1570881832389376953
1.1570959236863338493
1.1570644909370344511
1.1569959975511918682
1.1569004560156390671
1.1567925110021279878
1.1566872838202344465
1.1565965172357026702
1.1565264311195511127
1.1564769510693222454
1.1564432951630827517
1.1564190362175825744
1.1564003871064545415
1.1563882802646578973
1.1563879420194960179
1.156405122031916477
1.1564425029256244493
1.1564972629184664399
1.1565611009663880893
1.1566215956494747541
1.156664837565079651
1.1566782775191248867
1.1566535353214200121
1.1565883413371333965
1.1564877738180994182
1.1563637737861982568
1.1562331575311057819
1.15611438090394536
1.1560238610349604649
1.1559731064325475813
1.1559665268954453232
1.1560009568947664516
1.1560666553643952348
1.1561504664398554176
1.1562385218366888484
1.156320579512644553
1.1563929861363264617
1.1564585578904402752
1.1565245363671401435
1.156599552057156588
1.1566901449237660948
1.1567987409993094605
1.15692157045245958
1.1570494222148348662
1.1571712779566445395
1.1572772589584028324
1.1573607580793310312
1.1574187373607423002
1.1574513158018930881
1.1574607915195189722
1.1574501597475184145
1.1574225869318106596
1.1573818570527893979
1.1573335534268487379
1.157285933488710894
1.157248816035070238
1.1572310881479668243
1.1572373006786620397
1.1572652584926006458
1.1573054285508586059
1.1573430901420911354
1.1573620618697746387
1.1573489660670386314
1.157297512371163517
1.1572110443408452074
1.1571015239708548616
1.1569857836307047005
1.1568811599463326711
1.1568011988915791743
1.156752618212498751
1.1567348880821728407
1.1567428056176023432
1.1567691846582370818
1.1568066551409152964
1.1568482762035814382
1.1568884151471259258
1.1569229788430375194
1.1569493089543345654
1.1569654413551733185
1.1569705463113237887
1.1569658092576970976
1.1569548657002615144
1.1569429116092810883
1.156935385260448923
1.1569355374892493771
1.1569427288864442271
1.1569518262001270426
1.1569539885328588014
1.1569392602063808262
1.1568994702430410726
1.1568313326894226201
1.156737861614067775
1.1566279028967252351
1.1565138579688882814
1.1564080775514065103
1.1563192140357152482
1.1562500747757753494
1.1561986623668838448
1.1561601376766630356
1.1561292598381496255
1.1561025334800696385
1.1560794606078221847
1.1560620908590917288
1.1560535543123224844
1.1560569453308926491
1.1560718928992204102
1.1560952084848314936
1.1561210741655372214
1.1561415299595325656
1.1561499101964374248
1.1561410193614700681
1.1561127932226624715
1.1560668490750021231
1.1560085782749984773
1.1559439118438656902
1.1558783038225990403
1.1558178943683075079
1.1557683129247506848
1.1557352758983472363
1.1557231051153487034
1.1557347124577630471
1.1557720366937001
1.155836116820287085
1.155927214771611089
1.1560432392675972224
1.1561788110173560895
1.156325616933046474
1.1564731148390363646
1.1566105495088483401
1.1520728927402099639
1.15267487482844877
1.1511441425131985206
1.1502153239828052378
1.1506967084203747476
1.1514018677717017258
1.1516591506870652584
1.151810572979280245
1.1520322790804518043
1.1523742986712139924
1.152655451756313898
1.1532342993593995839
1.154338755646164616
1.1551184464405463981
1.1548238937245980384
1.1534253819174400402
1.1517507423305355374
1.1507736793089322624
1.1507810924975669931
1.1515038720459398469
1.1524323593686209843
1.1530224838397218345
1.1529476985323678928
1.1524654863600130028
1.1520314960750848154
1.1518607192255381211
1.1518115553462566769
1.1516602013563750351
1.1513832684548743757
1.1511658724779116891
1.1511995124481835262
1.1515054352158147211
1.1518553117307333
1.1519535489007164397
1.1517084908544170663
1.1512706944153372479
1.1508317574002886463
1.1504287467748701701
1.1502595297221389625
1.150562083118448653
1.1511041555250658419
1.1512533789379280069
1.1508251614611597624
1.1503211552723537903
1.1501738465901165664
1.1502636968836079667
1.1503896645762934359
1.1506147878444494825
1.1509537567438776762
1.1511525310251176091
1.1510265004735398264
1.150770420070217126
1.1506976641457122845
1.1508472693078992677
1.1509828857877768549
1.1509931793832208768
1.150946533641671321
1.1508643828266540421
1.1507358596379804183
1.150594932674108728
1.1504485554435839312
1.1502566768907325212
1.1500074020858046531
1.1497780581686110057
1.1496279911072515567
1.1495440991582324131
1.1495139750633038833
1.1495730601730058673
1.14971548476138552
1.1497593656248732419
1.1494900742676594785
1.1489635335885146628
1.1484941542504365497
1.1483649819139452042
1.1485739287655678531
1.148846099401007681
1.1489403522707963834
1.1487476340177551482
1.1482725037977228322
1.1476084887310318283
1.1469610423991920545
1.1465922477328946982
1.1466410698985012306
1.1470544478754975959
1.1476036940721210389
1.1480229780010628993
1.148151707048294945
1.1479671159711226647
1.1475898295216730993
1.1472055795805033984
1.1469387142929834411
1.146834740192736124
1.1468798155130008887
1.1469847085375199924
1.1469928301370628798
1.1467410340759010001
1.1461787272824908168
1.1454805426435186178
1.1449575988950684291
1.1448633656518210078
1.1452113522885096764
1.1457957973239718541
1.1463553400034534047
1.1467007579013788199
1.1467701830377772243
1.1465935126326700644
1.1462579984929679444
1.1459089871369692037
1.1457363574502616999
1.1458852442141493899
1.1463138548037856701
1.1467710345532755589
1.1469379002849384719
1.1466970784724843657
1.1461828967067011487
1.1456706802133471701
1.1453818001050704023
1.1453559241732640395
1.145470410652804194
1.1455793717446216551
1.1456173494008379254
1.1456149474314452075
1.145639535629252137
1.1457506899935547828
1.1459690859317592793
1.1462766961645745045
1.1466061607638355913
1.1468664068539591305
1.1469878841498062361
1.1469719335057344534
1.1468804799297149799
1.1467911024179948676
1.1467590119075115052
1.1468154262916157027
1.1469617172212782652
1.1471732236121858772
1.147409322354429495
1.1476236542349382841
1.1477746706545239874
1.1478242371364040242
1.1477651686916305884
1.1476279420692490074
1.147482854608877556
1.1474231827613390333
1.1475214281007648509
1.1477979631858219456
1.1481920896307413749
1.1485877019794632492
1.1488555517168190789
1.1489341592029129746
1.1488429465845593214
1.1486627575788841416
1.1484692864003720469
1.1483129757777446045
1.148196881766198274
1.1480949204750718895
1.1480061773700582783
1.1479709325528770769
1.1480598904458427789
1.1483226055255342235
1.1487457490866046506
1.1492243493297962242
1.1496013659590778033
1.1497375345255389512
1.1495907897867789771
1.149240052325245065
1.1488361822456298889
1.148518208910116245
1.1483655078514587444
1.1483715095366702208
1.1484852353043262241
1.1486573729768796426
1.148861015736837965
1.1490949170901927356
1.1493553621601964032
1.1495969988124319361
1.1497349337685001114
1.1496760385983078034
1.1493796921059891147
1.1488849326071357559
1.1483122857916197024
1.1477999673664194269
1.1474449018657666421
1.1472736805910184188
1.1472589104032955287
1.1473598595379017606
1.1475584766655348989
1.1478778164767038383
1.1483425629709349547
1.156135940267762896
1.1561700288331187014
1.1562085641004313796
1.1562445839474677634
1.156256961373914427
1.156219592981521993
1.1561153029335642373
1.1559432429819629373
1.1557211214712845848
1.1554777427259377287
1.1552375549445044189
1.1550170539624944333
1.154827423983021184
1.1546761393313871302
1.1545830107922760988
1.1545701353374535625
1.1546519194471431824
1.1548206182567781752
1.1550447784475639246
1.1552836865839974934
1.1555012026300162109
1.1556755756674257363
1.1557970689167744727
1.1558601689777674437
1.1558595609988340236
1.1557927482520176099
1.1556686152790336397
1.1555132105252186037
1.155362798492557852
1.1552487268987889912
1.1551853160546361465
1.1551675032340034122
1.1551800040751114551
1.1552109814746585048
1.1552592907713450376
1.1553298161811094147
1.1554215831767393752
1.1555191579379069378
1.1555951864115006078
1.1556246429530905306
1.155601712036431028
1.1555473491193732904
1.1555015638759276175
1.1555042640387345187
1.1555751034040511183
1.1557018200341837577
1.1558455105582743361
1.1559616917758823718
1.1560237021740156216
1.1560347492322917695
1.156022929268771593
1.1560237090142368999
1.1560611926328090426
1.1561385994952986245
1.1562410630130302014
1.1563451616487387952
1.1564288065518577575
1.1564786419031232167
1.1564922726067297098
1.1564764188386342791
1.1564433163714438191
1.1564054527883815826
1.1563704413452398079
1.156339558404999579
1.1563113493815138089
1.1562889153786939378
1.1562850503618291587
1.1563204267096516276
1.1564145660910247759
1.15657474944128702
1.1567880899377673831
1.1570214965424858722
1.1572306328702024469
1.1573746052834510412
1.1574289155947714569
1.1573906325360752145
1.1572743445303281806
1.1571032827160399048
1.1569011677651581671
1.1566887697659449241
1.1564847472331609701
1.1563079236362672209
1.1561775574580586134
1.1561106043655726694
1.1561165303454274955
1.1561928166880246494
1.1563231380365035506
1.1564797020521144777
1.1566293814431658493
1.1567426234725746159
1.1568017263437484488
1.1568047767104072676
1.1567648416536515654
1.1567046909361300422
1.1566493817898311214
1.1566182154429327511
1.1566194298304168786
1.1566497027850859425
1.1566973700897793531
1.1567485369912837712
1.156792178067057586
1.1568223400522079647
1.156838371574984814
1.1568423919727430782
1.1568357519163325886
1.1568172644471241828
1.1567843806680326857
1.1567357521324919123
1.1566735449624145904
1.1566039296027519345
1.1565363146947191808
1.1564820845877581412
1.1564523234080767988
1.156454541365115718
1.1564898072369500515
1.1565520590822357949
1.1566298892156707812
1.1567108459791752839
1.1567860721419640502
1.1568530755759918183
1.1569155182869890197
1.1569798046889518961
1.1570498033349940759
1.1571227954527927295
1.1571886920703360335
1.1572333425019669662
1.1572435764811019876
1.1572116819785447372
1.1571385091772026232
1.1570339624438881199
1.1569147921142735047
1.1567992302472109856
1.1567016118846595862
1.1566288313666779342
1.1565800095041613993
1.156548555783724952
1.1565253983929755233
1.1565027565185403979
1.1564772841562374062
1.1564517746828630873
1.1564337465143201822
1.1564318434409515124
1.1564514161482590815
1.1564924007561803165
1.1565488693895424888
1.1566108022330410243
1.1566657890027045585
1.1567011083332678911
1.156705802074508016
1.1566731629231969958
1.1566040459996307366
1.1565074140301587757
1.1563992603093256051
1.1562989463871400364
1.156224365957475797
1.1561871408357684565
1.1561899547121963217
1.1562264279781118148
1.1562832682878827484
1.1563455810756355646
1.1564019581521942648
1.1564488265541104095
1.1564910565912056573
1.1565409645286941487
1.1566110626608492318
1.1567092587055303188
1.1568357301300500328
1.156982130929338437
1.157134275838987536
1.1572769619050771173
1.1573976921689257402
1.1574905364488845549
1.1575563499590284522
1.1576003261519713927
1.1576273680757553919
1.1576401099879942702
1.1576386272997734039
1.1576211464347989644
1.1575871004000128917
1.1575403517430515876
1.1574902553129289284
1.157450600580407496
1.1574359378956593503
1.1574556958734447676
1.1575094105675327594
1.1575859959607437411
1.1576664487627741362
1.1577279406490077474
1.1577501261602640703
1.1577208065482991195
1.157638537132940515
1.1575125431716120072
1.1573612935945047919
1.1572079967658550625
1.1570748522041505169
1.1569783882156106092
1.1569278674704770449
1.1569244393027873219
1.1569621499919002794
1.1570295349796753115
1.1571115951669739275
1.1571920198576297611
1.1572564238111482382
1.1572951753639624251
1.1573048664263170249
1.1572882787624265699
1.1572533939197735542
1.1572113812765840724
1.1571744403757371344
1.1571530767760238589
1.1571529715312003361
1.1571725172819899985
1.1572024606521689183
1.1572282748492552784
1.1572341677783486436
1.1572079498872900327
1.1571444981338459002
1.1570473977549897704
1.1569276040244924619
1.1568003035719907068
1.1566807705772590431
1.1565805889807654339
1.1565045651068084354
1.1564507145410956035
1.1564128370122090939
1.1563843280075365438
1.1563607541220932706
1.1563404286200331672
1.1563242031241314223
1.156315426944739766
1.1563181153909229959
1.1563336846580503092
1.1563591119432150567
1.1563880343945500684
1.1564116919323499388
1.1564216053231972658
1.1564122904104274792
1.1563821144405539432
1.1563347353106121496
1.1562766623541769206
1.1562150892575095984
1.1561574642035732374
1.1561088217133002054
1.1560725592914360416
1.156051088306639274
1.1560458565240194773
1.1560572260458570337
1.1560863578600304447
1.1561343031045163698
1.1562024265734636153
1.1562914509052308887
1.1563990925262621623
1.1565199445054390459
1.1566453410557218096
1.1567644765790574546
1.1488375191474713422
1.150047857720859712
1.1516644125771751117
1.1524632376804944123
1.1510345143540823276
1.149489944236300687
1.1494746758549267973
1.1503327846904998211
1.1514917817610998974
1.1524906172328193144
1.1529390291294876469
1.1531500024060346021
1.1537462482337705882
1.154572868527631524
1.1546403779125973266
1.1533954761586533433
1.1516994114687666428
1.1507660721719237262
1.1508136286509702551
1.1513071478988519125
1.1519695977671178255
1.1525760712140993292
1.1527115692026124183
1.1522519053424220559
1.1517094161940313324
1.1514956042204134157
1.1514802242547927946
1.1512987499366531541
1.1509398790641705013
1.1507294084883017415
1.150878445286557028
1.1512823225135508931
1.1516016177882599791
1.1515792816278460631
1.1513294015605191056
1.1510705957750746453
1.1508741160257200953
1.1506062079528749376
1.1504248579647320394
1.1506656604360263607
1.1511834022714693138
1.1513509826287720017
1.1509018719328554248
1.1502738728241443944
1.1499935816424078361
1.1501215165800544593
1.1504406290770041732
1.1508239435622202862
1.1511699752912847305
1.1512699109830011324
1.151057191808038116
1.1508041987859951583
1.1508025325580053533
1.1509773821393403104
1.151048747257271021
1.1510416050604610483
1.151107516182729551
1.1511991262218288501
1.1511373304915295535
1.1508942228092760018
1.1505958107972364957
1.150337803497070599
1.1500862268252547427
1.1498108577499306371
1.1495839763653525889
1.149503918070006625
1.1495841128225765537
1.149738224699966338
1.1498205561073224779
1.1496761181817283237
1.1492480724925910884
1.1486936793325503992
1.1483183966985259783
1.1483188989123551682
1.1486106647452531959
1.1488746381974783706
1.1488509538073521377
1.1485052954041510276
1.1479455710536878854
1.1473133090210465568
1.1468169729629071885
1.1466357518550887029
1.1468633264245180481
1.1473626741527254147
1.1478518660859873268
1.1480607686552302127
1.1478843113119836516
1.1474148003430197917
1.146887194239541552
1.1465206651479895594
1.1464038703760950355
1.1465065513369303574
1.1467526026950918272
1.1470075770017722494
1.1470766182200176075
1.1467764702918650244
1.14611203286525698
1.1453407542638984751
1.1448325189041954619
1.1448155378302466989
1.1452539180797760565
1.1458844569107453637
1.1464059274745526107
1.146640514012283063
1.1465742573388555403
1.146307443012696492
1.1459671879758657198
1.1456885237996268234
1.1456250750547112283
1.1458393852686592496
1.146253792553499018
1.1466475221904786075
1.1467999319949477854
1.1466497806092454947
1.1462970702342563101
1.1459279578238679154
1.1456840153670748705
1.1455988964462298085
1.1456235676158992298
1.145685949363270062
1.1457299257553830163
1.1457333356320755779
1.1457142982035648515
1.1457376597453365896
1.1458662413518203582
1.1461134918154161078
1.1464285586572973141
1.1467172908431819689
1.1469081288851132872
1.1469857293140022225
1.1469783939232238712
1.1469362053785689959
1.1468984620968172283
1.1469096854437497157
1.1470018146134344228
1.1471797313324907375
1.1474059808069199118
1.1476118212443395805
1.1477301958224923606
1.1477264948281666879
1.1476202212888140242
1.147480725585126704
1.1473819551109640802
1.1473835580486930752
1.1475124664062392732
1.1477625353852047851
1.1480862384089729478
1.1484061953433550851
1.1486262382549097261
1.1486962727981817611
1.1486237637813052626
1.1484679917579574404
1.1482867113512349455
1.1481230228339980304
1.1479944482779158577
1.1479059044790453914
1.1478691794603177456
1.1479249934311985815
1.148109435831191405
1.1484376536487452825
1.1488688010144443297
1.14929649319009064
1.1495870434773185487
1.149652188628529581
1.1494865232685067546
1.1491783616276403102
1.148854771336301539
1.1486161161047740986
1.1485144034087189091
1.1485497610585659878
1.1486967681422597387
1.1489237718662808074
1.1491938101301484298
1.1494770175498592035
1.1497367186973137532
1.1499147789635155714
1.1499447378908307371
1.1497688307783835437
1.1493805097265787918
1.148838787077396395
1.1482633375201491965
1.1477807240725597104
1.147474009220329938
1.1473549052810239068
1.1473880469324839737
1.1475318427965559565
1.1477720145029999266
1.1481265199101382546
1.1486124224936593574
1.1563084280765485445
1.1563753961810776527
1.1564261737264152075
1.1564526991903023578
1.1564416377375970058
1.1563789326687567982
1.1562607511193636611
1.1560949446812374131
1.1558975798609925079
1.1556840148577682825
1.1554661473249188131
1.1552505827262449234
1.1550435373940473038
1.1548613201345745427
1.154731123476372856
1.1546843938237443261
1.1547451290878258945
1.1549125690878285777
1.1551564951099670964
1.1554267171151042515
1.1556712748882662645
1.1558539783544790058
1.1559601921479640829
1.1559903772540949252
1.1559523552646182587
1.1558593539277428608
1.1557317710565138125
1.1555964106133311819
1.1554795896474456818
1.1553972662589766518
1.155349664015447253
1.1553240477166419886
1.1553053359136005174
1.1552883809144285365
1.1552820765179219187
1.1553019360578642427
1.1553562733753703906
1.1554355446220356818
1.1555132948857247399
1.1555600603253706193
1.1555609446797492357
1.1555268919901431346
1.1554916196696896069
1.1554949903455351556
1.1555618529803231009
1.1556894572860108017
1.1558497498884299226
1.1560038113997375131
1.1561206104212966572
1.1561887627040718929
1.1562159090280408336
1.1562196971605029905
1.1562189186106424099
1.1562272900508396845
1.1562507259667036408
1.1562886574680599772
1.1563374430549648864
1.1563923400996916069
1.1564477237358945505
1.1564974364681308572
1.1565360428325652808
1.1565598824205458595
1.1565671294782382539
1.1565579236631302606
1.1565362491278849966
1.1565124434568088141
1.1565039581182099404
1.1565314526199388379
1.1566100189814259025
1.1567403269985461201
1.1569048666767003386
1.1570719136230864788
1.1572064691360461897
1.1572816815030648741
1.157285715664956971
1.1572221055688560742
1.1571051648094863307
1.156953450604592204
1.1567841894346446718
1.1566107356762238556
1.1564446501568150794
1.156298678605882202
1.1561872101178951588
1.1561234804573383705
1.1561158052592468426
1.1561637228121601773
1.156255626356766042
1.1563695092641503859
1.1564776718167277814
1.1565550279517320398
1.1565873351371855904
1.1565757076329561404
1.1565353709199166499
1.1564894323720757985
1.1564609310721905011
1.1564651586314642628
1.156505379714404258
1.1565731567730250795
1.1566530839269761888
1.1567292827380994957
1.1567904301034266368
1.1568314604845497673
1.1568527958556298341
1.1568573881772836742
1.1568476659446800259
1.1568236666755553621
1.1567836379727005625
1.1567276444150826897
1.1566604463639851286
1.1565914875079694735
1.1565326972399780914
1.1564956615826704756
1.1564887337215563612
1.1565151270998783595
1.1565720082216581766
1.1566510934303377844
1.1567414250106380358
1.1568327347457498799
1.1569184082673049652
1.1569969728537929932
1.1570715679641510043
1.1571468450409430062
1.1572242858917931585
1.1572985191584250764
1.1573573399900913827
1.1573852512236160184
1.1573695593322379516
1.157305750813320433
1.1572002320259184849
1.1570689520378940607
1.1569331167188574572
1.156813546235628376
1.1567243475512307693
1.1566692803976217352
1.156641850419018569
1.1566293174263804211
1.1566179189903538216
1.1565977281810715382
1.1565656065477973868
1.1565258132819180581
1.1564875025810747999
1.1564610764345695237
1.1564539935106949997
1.156468662291495475
1.1565020192667223586
1.1565474778241191522
1.1565966962105551641
1.1566410928689649928
1.1566717043755070371
1.1566808888303001801
1.1566648351070494272
1.1566258812950809265
1.1565732656703551218
1.1565205077849252113
1.156481375551079438
1.1564648052730825967
1.1564710816412770988
1.156493082818539575
1.15651956073853035
1.1565396403406837944
1.1565500130058512518
1.1565565991949788849
1.1565739204929683659
1.1566189824090624683
1.1567057640409930119
1.156838196165286714
1.1570072132461177716
1.1571930906059504363
1.1573718233914711551
1.1575234091698436423
1.1576366797241330886
1.1577106747820755661
1.1577543365136333531
1.1577798094723543709
1.1577963735168468329
1.1578072212906731497
1.1578091003000829939
1.1577961052464398328
1.1577646331984838834
1.1577176763137151383
1.1576662904106442831
1.1576277015318940933
1.1576204405327650271
1.1576566771639962283
1.1577375219970307274
1.1578512097895330424
1.1579748385632142593
1.158080315565378271
1.1581418119696471614
1.1581422361678175292
1.158075667554038235
1.1579496773430228984
1.1577823798450364023
1.157599093168014015
1.1574279675111687204
1.1572946570842503888
1.1572168776277542701
1.157201512607878513
1.1572443834252164052
1.1573318409669062223
1.1574427796831727733
1.1575525183654298278
1.1576381221126530452
1.1576837879543930843
1.1576843541293502238
1.1576454692245297107
1.1575813582099727661
1.1575112180821829355
1.1574542263688114563
1.1574245316486144741
1.1574272878543705456
1.1574575312992494425
1.15750127604948716
1.1575392526768712997
1.157551968197019443
1.157525564207552371
1.15745589853181996
1.1573491340684320949
1.1572196682470179407
1.1570859702933073976
1.1569645763939679917
1.1568677184287572413
1.1568003761182263922
1.156759150423230853
1.1567349222633502848
1.1567168841143409264
1.1566973039777417309
1.1566746230922846372
1.1566524979752625946
1.1566368801864599369
1.1566322993754440951
1.1566409037306268903
1.1566606963255141594
1.1566854410057461067
1.1567072479214248748
1.1567177415469995783
1.1567107670699225963
1.156685821928191249
1.1566459894441711853
1.1565977898153674275
1.1565490469745951518
1.1565073327663661917
1.1564767347990763113
1.1564581684256503014
1.1564490730880687686
1.1564466551849961196
1.1564495800564495998
1.1564585912555005454
1.1564770582659433806
1.1565100916892652183
1.1565619275660976584
1.1566335276809525112
1.156721884958554547
1.1568202410741577069
1.1569180781119796642
1.1570046514685921046
1.1508897131879631814
1.1509795800878275251
1.1510955557957760487
1.1508926512099655337
1.1514479548610221382
1.1519415771538472626
1.1511227276743145609
1.1500938405782838991