/*--------------------------------*- C++ -*----------------------------------*\
  =========                 |
  \\      /  F ield         | OpenFOAM: The Open Source CFD Toolbox
   \\    /   O peration     | Website:  https://openfoam.org
    \\  /    A nd           | Version:  12
     \\/     M anipulation  |
\*---------------------------------------------------------------------------*/
FoamFile
{
    format      ascii;
    class       volScalarField;
    location    "0.0071";
    object      rho_0;
}
// * * * * * * * * * * * * * * * * * * * * * * * * * * * * * * * * * * * * * //

dimensions      [1 -3 0 0 0 0 0];

internalField   nonuniform List<scalar> 
75962
(
1.1514362994769846704
1.1515542553955642191
1.1510060643517161516
1.1513657525791021197
1.1511324297403802142
1.1516317797826125524
1.1526669368768014401
1.1527791872810029261
1.1522690191337769949
1.1519759547236654296
1.1521223350623781556
1.1528396545594579159
1.1539802012403972409
1.1545506701881080858
1.1540712350230200034
1.1529845336828872249
1.1517708484413824443
1.1508780242482878897
1.1508108079282550751
1.1517171241453432184
1.1529102956915229239
1.1534225343810218245
1.153080830586553418
1.1525827793749361394
1.1522994817255935995
1.1520823322768785069
1.1518562901187081593
1.1517253500199773342
1.1517109776958764922
1.1517631464777777772
1.151849901896693007
1.1519525547120741393
1.1520808594397784486
1.1521421461721883528
1.1519817857002554451
1.151587152855905849
1.1510912978358005532
1.1506107835102676873
1.1503701799416796714
1.1505950378738984963
1.1510714395212104932
1.1512227944922841516
1.1508770147794864513
1.150525925922168069
1.1504748047001709388
1.1505323086917758069
1.1505334385988801316
1.1506251523659067892
1.1508877341253644921
1.1510687133670234328
1.1509489396202481348
1.1506756941334852495
1.1505418466794412602
1.1506048659208458762
1.1507285828253317472
1.1507889478914394843
1.1507252157508167656
1.150529300321505799
1.1502979162273436753
1.150165226456019818
1.1501385257750289526
1.1500546579708994521
1.1498571631763936374
1.1496958640288956754
1.1496742640366852672
1.1496949094569812733
1.1496411720550530067
1.149565540273672859
1.1495658009765958862
1.1495780321422508496
1.1494232377054245386
1.1490581675559483621
1.1486954534210149781
1.1485829119406993915
1.1487141175802657589
1.1488788177884632358
1.1488986993003287296
1.1487089472679778979
1.1483304323920462409
1.147779664982960135
1.1472221894580314494
1.1468220784359175468
1.1467363757910562505
1.14697510805838232
1.1474130026475211075
1.1478732311595163385
1.1481702558152981908
1.1481874474336215552
1.1479504284941284276
1.1475954513874484508
1.1472903750986132021
1.1471475603612435457
1.1471499319352902457
1.147192146671236479
1.1471169840726838096
1.146805383832498082
1.1462637007478306828
1.1456372718461820259
1.145170274270986166
1.1450601993849505167
1.1453200555904694546
1.145792361227849554
1.146280866934329179
1.1466439661566414365
1.1468124345698975652
1.1467668880447208224
1.1465359993524275595
1.1462304446990874141
1.1460360830014795219
1.1461146754494204725
1.1464646791129875503
1.1468550761291445017
1.1469756441629770372
1.1466521416951711565
1.1460169455921660475
1.1454016449833774871
1.1450914512226695319
1.1451376403413944249
1.1453597574240748092
1.145526792032071528
1.1455576084663179337
1.1455347569249185735
1.1455890741232466201
1.1457844712791220854
1.1460950072159847846
1.1464474708015810478
1.1467593832034328472
1.1469582551831551953
1.1470019230034462776
1.146915511914251562
1.1467820724704835822
1.146685822057311066
1.1466889401941968707
1.1468012903242781331
1.1469959972458376729
1.1472213463011891044
1.1474303558045821916
1.1475990847611650114
1.1477230282548547269
1.1477929108268074554
1.1477904469057025327
1.1477128764080055667
1.1476074494069936627
1.1475622549744131096
1.1476701339849531003
1.1479638148072954795
1.1483802611634299495
1.1487882479996132101
1.1490615526031540128
1.1491358458194449454
1.1490281574989271718
1.148807925508744443
1.1485651135997465566
1.1483593007855152912
1.1482073705443049949
1.1480951618563208783
1.1480106698791188169
1.1479817308600610559
1.1480654578063631543
1.1483147969979237146
1.1487279632589975087
1.1492204930455061085
1.1496335395952153036
1.1498101562375051543
1.1496842424866917654
1.149322086063469639
1.1488785882891896506
1.1485175219707568495
1.1483226129398222959
1.1482870646390419545
1.148342570545958008
1.14843031659504069
1.1485396192081853695
1.1487020705652601915
1.1489409254198938992
1.1492195473877997447
1.1494429808557351524
1.1494983031199565993
1.1493120148432802718
1.1489133364414418903
1.1484094951173664523
1.147935983093148371
1.1475911376664325037
1.1474084364306793571
1.1473658746902410943
1.1474224040055200913
1.1475655867473752991
1.1478211550713248723
1.1558878521540236761
1.1559232368502463384
1.1559798539438792542
1.1560268324861588951
1.1560294500122867412
1.1559628793429232996
1.1558230122371020432
1.1556251475197389933
1.1553962522178522487
1.1551658969438334257
1.1549517788583603117
1.1547733809071381028
1.1546397842270990086
1.1545637897830802743
1.1545632035215152023
1.1546401891948647744
1.1547816761733527002
1.1549604915293865126
1.1551445926424175337
1.1553131680062451725
1.1554621477781177319
1.1555923475305394099
1.1556934019875026998
1.1557425375109426913
1.1557177970587793059
1.1556141177818022303
1.1554523487123911085
1.1552739348276597209
1.1551245489044537074
1.1550358526974708884
1.1550163146038907591
1.1550564630954986978
1.1551401478414569102
1.1552535927314995234
1.1553854038299662399
1.1555195856960145395
1.1556325515577896557
1.1556990165511746849
1.1557042935743380152
1.1556557927974224764
1.1555852893593521191
1.1555375200438193772
1.1555493541595076579
1.1556305398445338994
1.1557566627097033418
1.1558801903669366773
1.1559555983978668792
1.1559636860056572427
1.1559218490405711588
1.1558747068278976133
1.1558701050053685755
1.1559354966006876175
1.1560666277652431599
1.1562321016611978308
1.156389179398168654
1.1565004618663616842
1.1565454094435949628
1.1565242080276949554
1.1564541581791389913
1.1563619819554380452
1.1562731797915648535
1.1562034530432925283
1.1561557325081071035
1.1561250851071491752
1.156108826324929284
1.1561149512572037601
1.1561625169294371673
1.1562733281381876171
1.1564590260835105884
1.1567097574196634202
1.1569909303793295408
1.1572515576182396124
1.1574417324548038621
1.1575294030292988534
1.1575087685379294999
1.1573969503237835355
1.1572229892331689083
1.1570161094461159923
1.1568000373449198737
1.1565936212027092544
1.1564142695283967655
1.1562802289236415731
1.1562090870489936112
1.1562126452127532428
1.1562907966795263892
1.1564281781369667446
1.1565964122666791969
1.1567608730433636133
1.1568900549272096434
1.1569632690168745182
1.1569751469438851466
1.1569359344020146985
1.1568672850860788337
1.1567941415897047275
1.1567367734952573866
1.1567057257000934456
1.1567013075204866102
1.1567164934011200383
1.1567411585174167676
1.1567667113648283372
1.1567885465479148532
1.1568056040290508601
1.1568179195393735181
1.1568238717006513738
1.1568193629846050818
1.1567995977375324923
1.156761280206882736
1.1567045665192592363
1.1566344115545874605
1.1565603323940181202
1.1564949633515868577
1.1564511570496258663
1.1564382787343507886
1.1564588521767606988
1.1565072051685070242
1.1565711248419927593
1.156636512719081411
1.156693092637417708
1.156738222122730253
1.1567765097003677166
1.1568161942919610308
1.1568645213590067478
1.1569238273808364337
1.1569890866281216102
1.1570486636054653218
1.1570879215521332473
1.1570942154622076981
1.1570612161210889202
1.1569914275167989537
1.1568951949574630689
1.156787332959699155
1.1566829283709707532
1.1565934936544675082
1.156524915087838945
1.1564767861408380423
1.1564441101981968174
1.1564204274548859352
1.1564020719511565183
1.156390178728729845
1.156390134413962878
1.1564077309308837815
1.156445548969671
1.1565005677856636801
1.1565642721416040661
1.1566240868286834509
1.1566660525881720112
1.1566777035271016416
1.1566508723227852951
1.1565836136653129262
1.1564813696772557883
1.1563563867837989285
1.1562256512577782086
1.1561075893727672526
1.1560184360166034789
1.155969398450325647
1.1559645469538433193
1.1560004068446574355
1.1560670319871930722
1.1561511609790966482
1.1562389777745445407
1.1563204756198592893
1.156392293369984392
1.1564574767885174023
1.1565234099530197209
1.1565987293812178827
1.1566898394252052018
1.1567989035745283033
1.1569218454274059482
1.157049347665884742
1.1571704027979570206
1.1572752534661376878
1.1573574791428784536
1.1574142180039319605
1.1574456902184988571
1.1574542054402825464
1.1574427149207739962
1.1574143660567479674
1.1573730108502779945
1.1573243544621636403
1.1572767871694307207
1.1572401761530877184
1.157223316257601331
1.157230534515383269
1.1572592923853817215
1.157299729801461341
1.1573369589419721937
1.1573548320355195873
1.1573402150181133496
1.1572872369267457326
1.157199682983911071
1.1570898244681744327
1.1569746137312975076
1.1568713143974027613
1.1567932392724453727
1.1567467520077141518
1.1567309975543118572
1.1567405638266565759
1.156768201780072669
1.1568065600088024425
1.1568487644811502602
1.1568892059691464613
1.1569238070535030616
1.156949941528565784
1.1569657147047165413
1.156970423035547979
1.1569653884872959093
1.1569543489619291687
1.1569425453777388846
1.1569353869613656638
1.1569360085902757884
1.1569435514227957018
1.1569526192066463821
1.1569541973957992997
1.156938334598609508
1.1568970453366260731
1.1568273709748861933
1.1567326821237045031
1.156622092433031046
1.1565080469942543573
1.1564027691356064675
1.1563146640073627136
1.1562462553808505739
1.1561953256271535473
1.1561569394515511799
1.1561259116717330642
1.1560989161437518202
1.1560756461953378693
1.1560582641540542159
1.1560499123665846088
1.1560535625746972688
1.1560687387220531797
1.156092060076039818
1.1561176218567554841
1.1561374131921775543
1.1561448472920419217
1.1561348634142347702
1.1561055758366824975
1.1560587253983627409
1.1559998271262399427
1.155934937279465613
1.1558695081636107815
1.1558096528639036915
1.1557609208537977796
1.1557289679031701457
1.1557180821268122628
1.1557311693067708891
1.155770097577708988
1.155835814865619593
1.1559284832072114213
1.1560458662773445138
1.1561824673565919142
1.1563298122866672024
1.1564771860018967509
1.1566137605434778646
1.1520652138753908478
1.1526610921413713573
1.1510830610246585159
1.150196911574332681
1.1507097622862612063
1.1514140204333964679
1.1516690340901507561
1.1518257788846786305
1.1520549148282726026
1.1523966743929048295
1.1526724585112719801
1.1532564896568950896
1.1543568953166676305
1.1551142004755969861
1.1547941122397880065
1.1533851226282607616
1.1517225438250220382
1.1507674619054364396
1.1507902853208578087
1.1515187419174917061
1.1524433793357395928
1.1530222948366237734
1.1529375425813490619
1.1524558706077439041
1.1520306797289592282
1.1518652350218525626
1.1518106603979132441
1.151648110805098435
1.1513645933220413298
1.1511501006487339094
1.1511934195095583355
1.151508109208295938
1.1518580733490719759
1.1519492208587740478
1.1516992514494528432
1.1512612438510960722
1.1508230147557840795
1.1504209869769730368
1.1502595102591595122
1.1505731251877571175
1.1511138833185923236
1.1512484842537047403
1.1508114154148663122
1.1503128051040885094
1.1501717194515659326
1.1502589504535125631
1.1503821949807930825
1.1506111378193619732
1.1509537269648584257
1.1511499427420301966
1.1510213884038749121
1.1507703813626255496
1.1507058874395861281
1.150856208715429041
1.1509838038142721217
1.1509854810477020415
1.1509348716174381266
1.1508526985018348032
1.1507274247586374294
1.150592049957535945
1.1504484876773530821
1.1502549932098564689
1.1500016397418850733
1.1497677437251554444
1.149613678138768913
1.1495280979285318335
1.1495014478043601436
1.1495686744314232985
1.1497175061363900106
1.149759441082338407
1.1494815558034179315
1.1489496240896710511
1.1484842958452230466
1.1483640776758308188
1.1485787925225594552
1.1488508793416187803
1.1489413212793522234
1.1487445171544972133
1.1482654719962288592
1.1475999454677243694
1.1469555050085913361
1.1465938365078227612
1.1466496788993441047
1.1470659772421518685
1.1476123456168787484
1.1480249323575226761
1.1481472433612154305
1.1479595899235333079
1.1475825605638021454
1.1472002910243832563
1.1469347840648487225
1.1468305286886173455
1.1468752013257079714
1.146979936866479477
1.1469871914629872212
1.1467333170929945307
1.146169739093531037
1.1454750972370419948
1.1449600362439760204
1.1448746734314327878
1.1452270593317790404
1.1458105128818900642
1.146365830065450897
1.1467068491798295682
1.1467726061764349499
1.1465922512110475751
1.1462527460021034731
1.1459020697785899934
1.1457327412909481534
1.1458887641986517103
1.1463225627327822131
1.1467785544612008053
1.1469380761820051617
1.1466905410235368468
1.1461747627115792536
1.1456666042845484732
1.1453835707474111505
1.1453603700125865039
1.1454730663124972345
1.1455783107218320271
1.1456138377470812539
1.1456118715992573698
1.1456389211206154943
1.1457534246913143594
1.1459746446193455061
1.146283230460904301
1.1466112991103845076
1.1468680864208971037
1.1469857245116579225
1.1469677634173855996
1.1468769279030348596
1.1467898974065391382
1.1467606786280548636
1.1468198689582522753
1.1469682510509084938
1.1471808071473090784
1.147416850168905933
1.1476298868252414742
1.147778372384089085
1.1478241577197072498
1.1477607470216950603
1.1476202352750664026
1.1474745333655149704
1.1474170977280424566
1.1475197536444206037
1.1478012232448273622
1.1481987772291732952
1.1485947735176731399
1.148860940758737792
1.1489374852674176797
1.1488456173408070349
1.1486659980959574856
1.148473186151099501
1.148316307602189168
1.1481970713117555238
1.1480898992031112194
1.1479961645114724611
1.1479580749673883311
1.1480477166664295741
1.1483139401908117883
1.1487411552996134034
1.1492218397016691345
1.1495976670924263896
1.1497306398993660803
1.1495817012434084159
1.1492318286338956135
1.1488320655419430594
1.1485194652947412486
1.1483707560054237096
1.1483775597734338092
1.1484890452535390093
1.148657802895679092
1.148858976183339653
1.1490925349350520346
1.149354158174847429
1.1495966188357964466
1.1497332948806597841
1.1496712506662967179
1.1493713707602388752
1.1488752811586455671
1.1483047871654235017
1.1477973555214247003
1.1474475712539347061
1.1472798280433507134
1.1472656893991850513
1.1473651415336074688
1.1475620740725203106
1.1478809802346228164
1.1483463896413874661
1.1561429892373029649
1.156177084191703619
1.1562155722400553337
1.1562508043717436568
1.1562612613703926456
1.1562209944353007973
1.1561134160428634399
1.1559385237025323612
1.1557146899831731712
1.1554709435398846651
1.1552313565063379031
1.155012212768512736
1.1548243272062388431
1.1546753330394008419
1.1545853153870950791
1.1545761612183278455
1.1546616280123973564
1.1548329150479306193
1.1550579441609969411
1.1552959904647635003
1.1555114121789356041
1.1556830883044222347
1.1558016428814956722
1.1558616908257033362
1.1558579717217258853
1.1557882541141781818
1.1556620462410103212
1.1555059874347424209
1.1553563974286003013
1.1552440770999365949
1.1551825068249255146
1.1551659816864450203
1.1551791333873691059
1.1552105374044387975
1.1552594974488987756
1.1553309229256387702
1.155423348138560069
1.1555206674939308975
1.1555952273969702926
1.1556224270334196635
1.1555974695462616353
1.1555423584275490434
1.1554975851736737358
1.1555027047959467446
1.1555763265803000728
1.1557049294639709647
1.1558488638946808891
1.1559638407854653241
1.1560241514377409544
1.15603410807437057
1.1560224579791482657
1.1560245615719497714
1.1560638410240775542
1.1561427266126871327
1.1562458448541721445
1.15634965837588366
1.1564323095366124683
1.1564808894862534938
1.156493435625274957
1.1564769716430840507
1.1564438419676166259
1.1564064037382628669
1.1563719897293547323
1.1563416466948228667
1.1563139428055881908
1.1562922852835484377
1.1562898634166545175
1.156327495602486044
1.1564244089166997309
1.1565871693086802185
1.1568020130786595967
1.1570351886928096352
1.1572422278376059968
1.1573826941178015915
1.1574329181487914564
1.1573907972216250784
1.1572714818035885198
1.15709842320573153
1.156895351455879295
1.1566830024877692296
1.1564800542197286592
1.1563053488552863524
1.156178051501626225
1.1561147949147432268
1.1561244929018046346
1.1562039666376864311
1.1563362741665614841
1.1564932269833487766
1.1566416632390195129
1.1567524124120769358
1.1568084629915016404
1.1568086785161182384
1.1567667567519868133
1.1567057950618870876
1.1566508107630628643
1.1566207296301327379
1.1566232558232210081
1.1566545506044381142
1.1567026266813253965
1.1567535442115919331
1.1567964258484446649
1.1568255680896735171
1.1568405547213722606
1.1568436068719321064
1.1568360443800087545
1.156816614941764465
1.1567827452995973481
1.1567331398554696609
1.1566700806464809137
1.1565998794603697952
1.1565320967213033043
1.1564782354823164301
1.156449376929978401
1.1564528522607273597
1.1564894132645788805
1.1565526585684782201
1.1566309784222883472
1.1567119592324159871
1.156786967061434801
1.1568537909744278647
1.1569162780930193346
1.1569808277066144786
1.1570510913015181753
1.1571240368967172785
1.157189341647044456
1.1572328124796293913
1.1572414364767082962
1.1572078049314526993
1.1571331529423736217
1.1570277547511407246
1.1569085830942624771
1.1567938592192399394
1.1566976631363832251
1.1566265120658989485
1.1565791503844344845
1.156548738705343693
1.1565261291727451098
1.1565036494486014007
1.1564781683986145033
1.1564527164882238974
1.1564349562701636831
1.1564335420521427711
1.156453710706078164
1.1564952185456598421
1.1565519403464734616
1.1566137134316034629
1.1566680194163005968
1.1567021191554902604
1.1567051390144449385
1.156670623307090251
1.1565997833863981281
1.1565020017574949573
1.1563935355166172769
1.1562937638133321538
1.1562203920740201646
1.1561846723861457509
1.1561888774125068657
1.1562262644517298238
1.1562833774413985299
1.1563453755900090503
1.1564011316640507854
1.1564475107872980164
1.1564896548454286496
1.1565400481545724531
1.1566111112251094006
1.1567104360358553272
1.1568378017037894701
1.1569845019017688248
1.1571361721325537086
1.1572776659884382866
1.1573967520676171628
1.1574878925186087297
1.1575522690017208127
1.1575952145516770209
1.157621554135621178
1.1576337168432593305
1.1576315688777880641
1.1576132689259175379
1.1575783697242196801
1.1575310076024090122
1.1574808315450160201
1.1574418030377553457
1.1574284013773181723
1.1574497159425478632
1.1575047799172699658
1.1575820419302524922
1.1576621797636339473
1.1577222997590275178
1.157742332705754329
1.1577105664008571217
1.1576260883244982036
1.1574986352593494843
1.1573470358141906278
1.157194584382220448
1.1570633208881726528
1.1569694808303734312
1.1569219360249562989
1.1569213901487300777
1.1569614905408043271
1.1570305294037315225
1.1571134128580122802
1.1571938401083448067
1.1572575645150375845
1.157295202752340213
1.1573036693843192779
1.1572860697098836802
1.157250662923628326
1.1572087692449817276
1.1571725601109812409
1.1571523210522471903
1.1571533926671031534
1.1571737700712967367
1.1572038748908184402
1.1572289825582982026
1.1572333539172239281
1.157205077961317885
1.1571394960045977562
1.1570406781294546583
1.1569199367106952625
1.1567925563411689538
1.1566736622331268425
1.1565745098865098939
1.1564995537805047299
1.1564465417023734872
1.15640910931744334
1.1563806371536571316
1.1563568415357510233
1.1563362997831674317
1.1563200302703149358
1.1563113988699587065
1.1563143528394397297
1.1563301723253687214
1.1563556700640811314
1.1563843279551664356
1.1564073133342476218
1.1564162363387606725
1.1564057617363290298
1.1563744793486310236
1.156326232419986999
1.1562676468092301096
1.1562059628760503749
1.1561486018668327702
1.1561005895657352482
1.1560651589407224815
1.1560446490713669476
1.1560403912594681142
1.1560528007260661987
1.1560830901427545658
1.1561322841763845837
1.1562017151749366395
1.1562919757729492876
1.1564006028618230015
1.156522040104275284
1.1566474434104641045
1.1567659154002651878
1.1487502387206316445
1.1500365522304838439
1.1516787529373200272
1.1524196452082844377
1.1509458175908657829
1.149434965180019308
1.1494716833172546888
1.1503612600683514877
1.1515336597070200408
1.1525228224713288672
1.1529475280269978477
1.153146285289867512
1.1537440860101071394
1.1545655177430631522
1.1546110839703880302
1.1533497475570690938
1.1516639607530827494
1.1507544205274493621
1.1508111368441422684
1.1513036054307415057
1.1519681916671937749
1.1525737670868869689
1.152700783074821711
1.1522378863448330399
1.1517041224596114013
1.1514990920883672043
1.1514784723431241709
1.1512835576918065694
1.1509194195293943608
1.1507166523310627948
1.150878263199609286
1.1512885693968133438
1.1516049582946938923
1.1515759737737598645
1.1513254272955919522
1.1510696636450865604
1.1508713995333481606
1.1505993576086606112
1.1504233308205065178
1.1506758136861972019
1.1511949882462817474
1.1513491958176458319
1.1508889677966380738
1.1502635083098193824
1.1499915759834904438
1.1501228922361956819
1.1504411705038648517
1.1508248312550084513
1.1511702299705435237
1.1512665525069711858
1.151052925947131822
1.1508071374800454834
1.1508132053006792095
1.15098460401990077
1.1510463833049473514
1.1510344145174364883
1.1511003867263445155
1.1511921827745801306
1.1511289721091786387
1.150886855218727689
1.1505921669553809128
1.1503350219545795952
1.1500790503604101378
1.1497972554216682184
1.1495673270923405518
1.1494901786461062532
1.1495773522011381029
1.1497377073716135154
1.1498211227376711197
1.1496717137060346037
1.1492370319445814886
1.1486808901516560866
1.1483114186215466201
1.1483207471008352041
1.1486162367083958546
1.1488775557846548914
1.1488490269476701044
1.1485001803688867916
1.1479401840092486875
1.147310482345645033
1.1468191878888478463
1.1466448357201826092
1.1468771297561788369
1.1473743273025123202
1.1478554353284571299
1.1480545809001552193
1.147871491471125216
1.1474023040527991935
1.1468805532221668653
1.1465203486130250976
1.1464062321827916957
1.1465086109209190468
1.1467533674885668216
1.1470065609507926752
1.1470720281726316525
1.1467673311350643495
1.1461018602188137727
1.1453357572369093909
1.1448375316941707958
1.1448298482481047422
1.1452715931917156755
1.145898647710472229
1.1464135984128758228
1.1466427028759793583
1.1465740020507850794
1.1463062653093423204
1.1459650519426820559
1.1456863817568403441
1.1456256900826937706
1.1458445221891013777
1.1462615547731795917
1.1466539616335054141
1.1468025287045640059
1.146648738573913473
1.1462949660529808682
1.1459270537579573368
1.1456842480505879944
1.1455991592166792081
1.1456228069684002424
1.1456840349232291221
1.1457274274855606677
1.1457310586533604457
1.1457131930155290966
1.1457389211705442111
1.145870776185168749
1.1461204351323248662
1.1464358023027092504
1.1467227665300143702
1.146911143636828001
1.1469870250230698172
1.1469791081174349756
1.1469369771117323697
1.1468998779536059285
1.1469124486610597913
1.1470066822061004697
1.1471865989862239932
1.1474134556479806957
1.1476178278612660932
1.1477328263610155901
1.1477250729645578353
1.1476157685230823358
1.1474755260870748153
1.1473779206562113586
1.1473819822578479322
1.1475140570096458159
1.14776702553087806
1.1480923542448635555
1.148411973410289777
1.1486301009411605811
1.1486980730388562932
1.148624708465257438
1.1484693132702801233
1.1482886230889266521
1.1481248681190290295
1.1479948216167430441
1.1479035671880180036
1.1478645962835773986
1.1479191921969487122
1.1481041570524115336
1.1484340484176744912
1.1488664628402998069
1.1492936300661393823
1.1495819828027891152
1.1496445582598431301
1.1494784163329343496
1.1491725893672080083
1.1488533123481980969
1.1486192927407494757
1.148520622717445594
1.1485567697491756434
1.1487027215700380545
1.1489276188690058511
1.1491955948746919169
1.1494774129416172048
1.1497361496847937623
1.149912892970139433
1.1499405187182063504
1.1497614986334208087
1.1493706623068147277
1.1488286637891305109
1.1482561416594425641
1.1477786333907118443
1.1474771734529085609
1.1473613111953229193
1.1473951513790854317
1.147537835274405893
1.1477768098140070929
1.1481308726098369277
1.148616799693550794
1.1563172700055119879
1.1563833881476970333
1.1564330482481077755
1.1564579670337415962
1.1564446737103777352
1.1563793708634695356
1.1562587257232894711
1.1560910516588049912
1.1558925819860867978
1.1556786147660274011
1.1554608607920033858
1.1552457646817029246
1.1550396867032868276
1.1548593574954504337
1.154732143433565561
1.1546893897042924682
1.1547543892113556474
1.1549252125859470475
1.1551706294610739612
1.1554400526494330581
1.1556819201212518156
1.1558609587816104369
1.1559633879068014206
1.1559901378897556867
1.1559492631948586894
1.1558542216505298672
1.1557256686684325153
1.1555904975855626482
1.1554747135506573397
1.1553936379053308947
1.1553468425385071683
1.1553212910056962492
1.1553021667272149742
1.1552849819701853651
1.1552791760630400919
1.1553002674963084306
1.1553559661698649119
1.1554358569279461477
1.1555129386241547174
1.155557932288596934
1.1555568298945952943
1.1555217105035509029
1.1554870305580215994
1.1554925612629798337
1.1555622896394708299
1.1556923259290932116
1.1558537762022380591
1.1560075627677026677
1.1561231357587780089
1.1561898436506101717
1.1562158816688550278
1.1562191490578055397
1.1562184525519194622
1.1562273539640872677
1.1562515499098879879
1.1562903065915244305
1.1563398861273472829
1.1563954391119144471
1.1564512331465646167
1.1565010524731318409
1.1565394916177889062
1.1565629719720398327
1.1565697689804259607
1.1565601782605390291
1.156538429901852183
1.1565151564605387069
1.156508022686089987
1.156537610652098591
1.1566185348865023474
1.1567507160274939082
1.1569159220439433344
1.1570820902985812229
1.1572144119862097789
1.1572865987477047867
1.1572874786332607577
1.1572211233346541004
1.1571021604579874165
1.1569492418571905024
1.156779531190757826
1.1566063137450544041
1.1564411685492044235
1.156296894408524123
1.1561878199877111406
1.1561269449202484783
1.1561222012521783498
1.1561726342666729384
1.1562661399565365983
1.156380352353936658
1.1564875050325680306
1.1565628307189748103
1.1565927153223762858
1.1565789940329167518
1.1565374423859366981
1.1564913878094669197
1.1564637262654882122
1.1564693211804644157
1.1565108977577331917
1.1565795581026498962
1.1566596686101233704
1.156735383546528162
1.1567955825786284674
1.1568354582522035745
1.1568556377218115472
1.1568591521572779701
1.1568484051164764637
1.1568233631986717391
1.1567822755267789248
1.1567253334989191504
1.1566574716173467774
1.1565882655963795056
1.1565297019861111583
1.1564933337618734654
1.1564873929384733575
1.1565148975994266056
1.1565727748232197403
1.156652530639661558
1.1567431180450662431
1.1568343434833261441
1.1569197799739816546
1.1569981620766884856
1.1570727505454632134
1.157148144112475574
1.157225593407246178
1.1572994232202025167
1.1573572198544541667
1.1573835000888705871
1.1573658264973067933
1.1573001238552171888
1.1571932547596968099
1.1570615091727567414
1.1569262246847931142
1.1568080816027914715
1.1567207969393604738
1.156667613346976653
1.1566415963930480881
1.1566297863831715986
1.1566184657958469284
1.1565979556276266838
1.1565654499408781763
1.1565254764014025746
1.156487320692546561
1.1564613586528873501
1.1564549247204956028
1.1564702592321058905
1.1565041515790028814
1.1565499151765346042
1.1565991531275829907
1.156643225890451987
1.1566731574994493226
1.1566813051865849626
1.1566641236516352897
1.1566241810040180926
1.1565710249209413263
1.1565183030166656941
1.156479665201809226
1.1564637181458710113
1.1564704405299452983
1.1564924644418641542
1.1565185172661243129
1.1565379103305353237
1.1565476985235578766
1.1565542566736943808
1.1565723937591214643
1.1566190383282013432
1.1567078030067616812
1.1568420301826882746
1.1570120732215196657
1.157197814796413704
1.1573752386782512058
1.1575246476613785251
1.1576354301195812546
1.1577072143634627999
1.1577493339153572816
1.1577739495838761385
1.1577901190722050817
1.1578006653811019344
1.1578020278343825744
1.157788223182724785
1.157755838527565917
1.1577082354460876967
1.1576568620323077763
1.1576191617879669771
1.1576135732482115692
1.1576518507881881082
1.1577345369682714438
1.1578492483721332107
1.1579726779325816288
1.1580766346733029071
1.1581355621897091446
1.1581327887202963467
1.1580631111222099427
1.1579347260456687163
1.1577662194614000146
1.1575831615322524915
1.1574137043179626438
1.1572832486551700715
1.1572090418474823004
1.1571973865032472162
1.157243497658342557
1.1573332238722808807
1.157445154653472752
1.1575545816750101302
1.1576388295693227359
1.1576825550673190968
1.1576811542426723722
1.157640792868265267
1.1575760694363195213
1.157506351114091725
1.1574506994697482121
1.1574228597648088535
1.1574273875418787938
1.1574587493002137517
1.1575025783503156696
1.1575394974827488692
1.1575501998936690295
1.1575212694799135171
1.1574491273303442185
1.1573404725249389902
1.1572100786043844067
1.1570765081476763747
1.1569561816422728739
1.156860805471055853
1.1567949067235736571
1.1567547481803643894
1.1567310137334207987
1.1567129189327547412
1.1566929210564738106
1.1566697279158562051
1.1566472962174243477
1.1566317106096459799
1.1566274973475334509
1.1566365789664996289
1.1566566708207399738
1.156681377810253375
1.1567027161706751048
1.1567123714958271741
1.1567043810274713067
1.1566784673991479249
1.1566379523609131574
1.1565894723407326161
1.1565407783360406313
1.1564993895097830379
1.1564692960143363454
1.1564512847184653666
1.1564426715396407541
1.1564406566743943294
1.1564439726531543506
1.156453522258513722
1.1564728154660368631
1.1565069641223129082
1.156560037225025761
1.1566327430752358918
1.1567218471671134594
1.1568203807361729929
1.1569177075606646987
1.1570031907713902442
1.1508221593202172528
1.1509482795950214395
1.1510592662832590527
1.1508690271384309778
1.1514422797204904025
1.151911182663003741
1.1510678876754552036
1.1500663831551560801