/*--------------------------------*- C++ -*----------------------------------*\
  =========                 |
  \\      /  F ield         | OpenFOAM: The Open Source CFD Toolbox
   \\    /   O peration     | Website:  https://openfoam.org
    \\  /    A nd           | Version:  12
     \\/     M anipulation  |
\*---------------------------------------------------------------------------*/
FoamFile
{
    format      ascii;
    class       volScalarField;
    location    "0.0071";
    object      T;
}
// * * * * * * * * * * * * * * * * * * * * * * * * * * * * * * * * * * * * * //

dimensions      [0 0 0 1 0 0 0];

internalField   nonuniform List<scalar> 
75962
(
300.0312956283023027
300.10063660642833838
299.98959327735974512
299.97097833118556309
299.87466831886831642
299.85502797027811539
299.93325690446931731
299.95924652390243637
299.96351052476052246
300.03328980731885167
300.1440771176578437
300.22147964530785202
300.21248837848327184
300.09369620299372627
299.96412534921495308
299.96072363617287238
300.07523855289491621
300.19486906627588496
300.24599170730994047
300.23799645203160935
300.19134137954404196
300.1127670695138363
300.04603773198090266
300.06884394617082989
300.18285092587007057
300.31401032210118274
300.39839985660444199
300.41430258253171814
300.36442459129420968
300.27085975840253695
300.16697277703002555
300.08150653555924237
300.03779554468826518
300.04309119797602534
300.0874629409746035
300.15397959318681842
300.21865100017402028
300.25204953871525504
300.25993998148658193
300.28637832820606945
300.35110374493592644
300.4226260495776728
300.47511782702298433
300.52171339286752527
300.55006377985432664
300.51507857067662144
300.40853449451446977
300.28637132654540665
300.20956215875821727
300.1921989500908694
300.22436292914477463
300.30594744615132186
300.43217376244109573
300.56663078057869143
300.66160601820763532
300.69200358747349355
300.66654614170994364
300.62036799269992571
300.60477260766162999
300.66039486278930326
300.78459816039259067
300.92479735202596203
301.02270990183308186
301.05061199953013329
301.00580983658835521
300.90030261377160059
300.7700027044807598
300.67419392361398423
300.65953265006356787
300.7231829989424341
300.81731651733230137
300.89152623787725815
300.92923192625727324
300.94196609649134189
300.94262850122225927
300.94250853189316786
300.96045079467063488
301.01537424587013447
301.11086567998063401
301.22242734181634205
301.32284667071206741
301.38307464926270995
301.39040217747299266
301.34626369707950744
301.26857476177025319
301.18953127778092949
301.13956340809261292
301.13361741499886648
301.16591120315399621
301.21073786863729538
301.23511005352088432
301.21654485207244534
301.15451300920068434
301.07552843349350269
301.01843545176501493
301.01429681123505588
301.07044824874719779
301.16526798915157315
301.26148881708013505
301.32258875409058874
301.32678383199606742
301.27870690889523075
301.210676786597503
301.16461624195216018
301.16488298850748606
301.20075580500355272
301.23326865538865604
301.22413139966278095
301.16425259744841014
301.07895663733557967
301.0073133845950224
300.97335862103807358
300.97806228242336601
301.00761699154566031
301.05245064158907553
301.10915463238762868
301.17217232951981032
301.22744019673280036
301.25628462556068143
301.24918400877083968
301.2166362717898096
301.1810520299077325
301.15998365247168067
301.15573995087947878
301.15908976114684492
301.15982428526228887
301.15363986393447249
301.14204931022322853
301.12973782709775605
301.124278726371017
301.13358036563181486
301.16090780747134659
301.20499414376138247
301.25967642803635727
301.31757639119200576
301.37204859499456688
301.41970079714633357
301.46063640979082265
301.49573882737456643
301.52219970924568315
301.53215139469750738
301.51632196424463928
301.47072210510907553
301.40009177501519844
301.31770363526595702
301.2401129442609431
301.18208099581067927
301.15485830351735785
301.16710515210985477
301.22406691045557636
301.32517846376771331
301.46071392762991081
301.612356194597794
301.75479624141667045
301.86152498409370537
301.91116013185984457
301.89286773261005692
301.81018153474474275
301.67952291796541431
301.52649912067420246
301.37886348983892049
301.25957951485258945
301.18157580659072892
301.14912544533206074
301.1622618148931565
301.21922535234006091
301.31377960543971994
301.43202184659645582
301.54997008699945127
301.63964707560802481
301.6777371523844522
301.65598869807223537
301.58487191210815581
301.48955797497967524
301.39913625406012443
301.33511800781809598
301.30689274955034307
301.3130571066708967
301.3468045163378406
301.40350857394065542
301.48021484233623823
301.57295383971592173
301.67236365510763108
301.76341938472603488
301.82844723274087073
301.85248354457081632
301.82900040740776149
301.76072285315427735
299.49170360493786802
299.4991112740727317
299.50652632970735567
299.51084632616129966
299.50899893543731878
299.49923342209967814
299.48206170408496973
299.45991851206031242
299.436197640034095
299.41425182793562954
299.39586527587891851
299.38269536521875125
299.37518621313557787
299.37398215358950893
299.38032725402149481
299.39392686187466097
299.41304367255742136
299.43469146801652414
299.45558037540291707
299.4737713041708389
299.4892257502037296
299.50250491025303745
299.51298478641541578
299.51864840673431445
299.51746775202730078
299.50912406468677318
299.49598738029101241
299.48256501928051421
299.47376902991379666
299.47295802438605961
299.48092063516367034
299.49640965532279324
299.51735065337385322
299.54184481035247245
299.56824733699903618
299.5944879936370171
299.61777854211317162
299.63523394688553481
299.64515806977772172
299.64824966793025851
299.64783975899592861
299.64870247944139692
299.65486026677638165
299.66753366257182734
299.6843581215642871
299.70048795811254649
299.71119638294982224
299.71443417827219946
299.71195262691031758
299.70839141939603678
299.70881402041106867
299.71623598118952714
299.73039869353311815
299.74818221355917558
299.76520311246059691
299.77753746577161564
299.78293810880097681
299.7812982159948092
299.77433879873393607
299.7648491177926644
299.75557524326893599
299.74827336664947097
299.74333031645250003
299.74023131093150596
299.73862472462332107
299.73926504064843357
299.74411914132832635
299.75552365438903735
299.77480570051068298
299.80104080847831938
299.8306502792744368
299.85824360670278566
299.87846987221280415
299.88784022999607259
299.88566761961192242
299.87375071230377443
299.85520838015963818
299.83320039161412751
299.81027632378334147
299.78841546630400217
299.76939549215410352
299.75506742280776962
299.74723980573304516
299.74716594052330265
299.75489997389610153
299.76892107460577108
299.78633214237248694
299.80354283252597725
299.81724226668433175
299.82521806815270793
299.82684443213344139
299.82313021216407378
299.81629370666735213
299.8089217064798504
299.80313096149706098
299.80003528053987338
299.79968466132788762
299.80136406593874199
299.80402932837750996
299.80678425434552992
299.80913838040692099
299.81096492398319242
299.81225361378784555
299.81283009859066624
299.81226994319672485
299.81008683418804139
299.80595980102123121
299.79992457072626166
299.7925073975277428
299.78469936037345178
299.77781119389550213
299.77317859274143075
299.77177878008006928
299.77387987083488952
299.77889088793369865
299.78552436661175307
299.79228132495853743
299.79805975173735533
299.80257140346742517
299.80631439382801773
299.81019037250803194
299.8150040758017667
299.82103814331344438
299.82778820071604287
299.83403719500557827
299.8382396554850402
299.83905574701230989
299.83580970533012078
299.82875563415973375
299.81897189249843905
299.80800193385437069
299.79740717403211647
299.78836269741134402
299.78144246222439051
299.77655699533698908
299.77314087314641711
299.77049078998555842
299.76822100155817452
299.76647606815225799
299.76587431863327993
299.76709545787485922
299.77048767402322937
299.7758005401286141
299.78218426461393165
299.78833685827584077
299.79279108475708426
299.79422407407167839
299.79175801066696749
299.78516181689036557
299.77497189091775454
299.7624293099205488
299.74926346205023719
299.73735419395603685
299.72835577598334567
299.72341420871129003
299.72295350950116699
299.72663592235562646
299.73346567851240252
299.74210862524233789
299.75115820800078836
299.75957438900547913
299.76698728793036253
299.77368455792003488
299.78040547867203713
299.78803534149750476
299.79725041956743325
299.80831148015283816
299.82084464606714391
299.83391358260121251
299.84639112812538997
299.85726079055416449
299.86583702538143825
299.87179882286329757
299.87515269579034793
299.87613479054630261
299.87505624401717341
299.87224805898432578
299.86810710922071621
299.86321834869897884
299.8584432912444413
299.85480037715268509
299.85320117999771128
299.85409466590135708
299.85721988666210791
299.86154954542917039
299.86552297778791853
299.86744337668039861
299.86592400675181125
299.86033370993885683
299.85106079074273566
299.8393985836352158
299.82714348785299308
299.81613408296897205
299.80780162248396437
299.80285286039759285
299.80122374371831029
299.80234680090637767
299.80543138259980651
299.80965639992194838
299.81424288668478084
299.81855927694090269
299.82215607191443496
299.82476425844589585
299.82621828063230396
299.82649385428305777
299.82578430889697074
299.8245249534044774
299.82328455631096631
299.82262252781731604
299.82284100098036106
299.82382088969131928
299.82497393151840015
299.82533943002528076
299.82386249265402967
299.81969724776689645
299.81252523464576143
299.8026928423132631
299.79115087048609212
299.77920743125912395
299.7681454975587485
299.7588480879297208
299.75158319709737498
299.74612341496373347
299.74195979957181635
299.7385587397859581
299.7355840606583115
299.73302015499376694
299.7311141766905962
299.73021426016930491
299.7306463922342914
299.73235539081747447
299.7349778057754861
299.73786848967608876
299.74015916490367317
299.74112094028998854
299.7401898223772605
299.73714186351105582
299.73215537635377359
299.7258171632460062
299.71877966043149399
299.71165354160456218
299.70512097064198542
299.69980454970340134
299.69631811477961492
299.6951068891356158
299.69644844292321295
299.70050655095559478
299.70734304375099555
299.71694680592787563
299.72907677662271908
299.74315962620238452
299.7583491279305008
299.77356820764140366
299.78773759599408777
300.12744278841046253
300.2002403306545375
299.99685412783065885
299.83790054303125316
299.82241079165868314
299.82718721915330207
299.81255780768793784
299.84370620871413848
299.94919447427338355
300.11214144279006177
300.24231056633186654
300.28827204015112784
300.25112939867381101
300.13559676474125126
300.01859443199901989
299.98415636293560738
300.05712946541802921
300.17996374255130831
300.25360423141768251
300.23619986957896799
300.16088860556186546
300.08078778872368275
300.03044396605537258
300.04480333350824139
300.13335883796526105
300.2601311373228441
300.35683788303595065
300.37086303914469454
300.3020776755317911
300.19534058521543329
300.10217210672618648
300.05042739169812194
300.03619765145981546
300.0464181030108648
300.0811464367144481
300.14381144541880531
300.21631398415905778
300.25725351091506354
300.26538661093667315
300.28398107681300644
300.33401762566410298
300.38734077032415826
300.42648847345947161
300.46699576320042979
300.50224292442771912
300.48587675763218385
300.40133379330711705
300.29497115950516672
300.22235413223074829
300.20101277199108836
300.22953465757586855
300.3152924651570288
300.45362706043812295
300.60153134607867287
300.69609716228268326
300.71235867904704264
300.67494183038701294
300.62703729084836368
300.6138951360436522
300.66833122528470312
300.78675142746919846
300.92628625625184213
301.03005024799966804
301.05960563791177265
301.00534480813820437
300.88816883542199321
300.75747797112256876
300.67389807903845167
300.67507761497068941
300.74580406446278857
300.83378867717959793
300.89746939834873274
300.92759934253456322
300.93537856353526649
300.93254373336827712
300.92637742438097348
300.93564875242702783
300.98077984911549265
301.06682308050869779
301.17680308117201093
301.28404791173659305
301.36526347910506729
301.401290268293792
301.3830224715067061
301.31565837663549701
301.22343565399506815
301.14421287250348769
301.10914528308870786
301.12752367343239257
301.17983827632536986
301.22396614734498144
301.22211474173320767
301.16622856152855547
301.08159867287946554
301.01101535618590788
300.989814696325368
301.02855893946616561
301.11341922436037066
301.21131053981980585
301.28321036217118944
301.29932264253801577
301.25683453009520463
301.18590355920343882
301.13158154833979552
301.12545140018460188
301.16343141406673567
301.20891161381911161
301.22015031975467991
301.1807332381085871
301.10861613871128384
301.03751961435455087
300.99330870948278971
300.98315544984586722
301.00611132173634132
301.05615509437024002
301.12255657860526981
301.18864828936216327
301.23483929858144847
301.24725253808077241
301.22767043032649781
301.19237894126854371
301.1615778001028616
301.14675203431181671
301.14756738684553738
301.15579737494118717
301.16319803916269393
301.16468427346637782
301.16008165856266032
301.15383290398312965
301.15424076831084221
301.16868718862673404
301.19889405841774987
301.24010241665348531
301.28543840055192504
301.32895723585806991
301.3674953990196741
301.40084489013327129
301.4301784761890417
301.45578039357570788
301.47401118406077103
301.47922900697000159
301.46591485629119234
301.43207922326223525
301.38134435786372478
301.32168991338033948
301.26424947004989008
301.21985722338956748
301.198184935461029
301.20595923806320116
301.24865858291252607
301.32728124477307574
301.43644813522803361
301.56186125161593736
301.68455550457815662
301.78345375784300586
301.83923328099245964
301.840358730541368
301.7855945834807585
301.68505530238763868
301.55727111794396933
301.4252017927497036
301.30964740950179248
301.22613759746496953
301.18379376240903866
301.18727862402499795
301.23705965330009349
301.32661796003577592
301.43957391590487305
301.55209574260243244
301.63726035213397836
301.6746495489934432
301.65770781354353858
301.59539582052963169
301.50918664166391636
301.42486769634018628
301.36266296634391892
301.33261601817952169
301.33496326089499462
301.36586336061930069
301.42134402585435282
301.49973805778648739
301.59741016313512318
301.70489867295526665
301.80601634007729217
301.88150643143427487
301.91491908244137221
301.89751352368762127
301.8306405973680171
301.72120290294191136
299.49404263472797538
299.50302267664272904
299.51323053164321664
299.52288543704622725
299.52898201382663501
299.52840962917372281
299.51944168265958979
299.50241308070297919
299.47978555648944621
299.45518309396504719
299.43165548425281486
299.41121529888067698
299.39510705456598316
299.38395300986792336
299.37945931810992306
299.38341792261422825
299.39675602079569217
299.41816188322371772
299.44403776237624015
299.47009245437226355
299.49277470512873833
299.51021541305664186
299.52187278453658337
299.52763584784804607
299.52737479465878323
299.52121874941042279
299.51045541797651595
299.49811507209255979
299.48819279811425531
299.48401537400025063
299.48695777183576183
299.49621735756477392
299.50981739966914574
299.52608546313166471
299.54444672585913167
299.56496493938482217
299.58712750615262621
299.60898231826956817
299.62744362089813421
299.63980365902426684
299.64548911462475189
299.64681031150678336
299.64809226952343124
299.65362383743263308
299.6655350834582805
299.68258996746459388
299.70076106817691652
299.71545351863682072
299.72395495470016158
299.72668025687812587
299.72663776167024707
299.72759818768054174
299.73214859639949736
299.74070843625923999
299.75181131924796318
299.76307072041481661
299.77218422593699643
299.77770629011433812
299.77931813833646402
299.77768392602388303
299.77410588907963529
299.7699658205074229
299.7661473311521263
299.76283850775587325
299.75988833148107915
299.75758480221082891
299.75722859335536441
299.76097296617876964
299.77088579241649313
299.78776957053077012
299.81029649680004923
299.83498157381706051
299.85712353672704467
299.87236494241329865
299.87807592924593791
299.87391862172108858
299.86143221637820488
299.84309640843383704
299.82145891899403978
299.79875450199426723
299.77697758986147392
299.75811663324918754
299.74418662719540407
299.73695472138240348
299.73740659445235224
299.74527807233795329
299.75886120261390033
299.7752418038140263
299.7909385497558219
299.8028397658752624
299.80907824434331133
299.80945199731610273
299.80534131906142647
299.79914966283928379
299.79351641377036231
299.79046451195193868
299.79084274168940283
299.79427971505776895
299.79952791475278673
299.80510869352264081
299.80984862468574192
299.81310710902141636
299.81479862046785456
299.81513078910165859
299.81424181980253252
299.81202233573247895
299.80823812763230762
299.8027915360253246
299.7959528382108374
299.78840105181944864
299.78113946143031399
299.77536523914409372
299.7722346643309379
299.77252046255415507
299.77630936323441802
299.7829310014924431
299.79114933720057934
299.79962184756305987
299.80739890738874465
299.81422355654848388
299.82050924971889572
299.8269726369081809
299.83406875046858886
299.84155323881338973
299.84839017898372049
299.8530990883284062
299.8542911041855632
299.85114616648013453
299.84374274173143249
299.83310884388208706
299.82098519713827045
299.8092578891158837
299.7993933027586877
299.79206746564568675
299.78713874343958423
299.78387632261336648
299.78131258918034519
299.77864520094539103
299.77556570721264961
299.77242750943440797
299.77008322472124746
299.76949182615385325
299.77124566955058071
299.775345051873785
299.78115642645337857
299.78760809245164864
299.79338278286650166
299.79714411133505791
299.79775634404580842
299.79453561736090705
299.78758269766706235
299.77782558520897283
299.76690511538743067
299.75679590770829464
299.74931450770139918
299.74563508394817291
299.74602203481811102
299.7498209675278531
299.75567557414547082
299.7620699838581686
299.76784648733092808
299.77264972416338651
299.7769910695251383
299.78214269770705869
299.78939390464705639
299.79955811960201117
299.81264796258403749
299.8277938013069388
299.84351930156611843
299.85824046224513495
299.87065754334918211
299.88015227419975872
299.88681652485286122
299.89119886409423543
299.89382426794543335
299.89498829647465072
299.89472417387645464
299.89287043034875069
299.88938395679230098
299.884671946281685
299.87970092404714251
299.87588499660557773
299.87470445680582998
299.87709610238852065
299.88296283161980682
299.89110973853075848
299.89953710279684174
299.90587104736704305
299.90801873254929433
299.90475138180772774
299.8959628292101911
299.88265006068763796
299.86676104757191297
299.85072482534076244
299.83685562869220576
299.82687213738972787
299.82173375881029642
299.82154827464461277
299.82567326998497492
299.83288127775415433
299.84157073150021233
299.85000635982913764
299.85666655716141804
299.86054875281200793
299.86132614460831292
299.85933980770232665
299.85548375730161297
299.85097918422246721
299.84713341747237791
299.84504713825106137
299.84528710030883758
299.84763859909753592
299.85108169419362412
299.85405280313557341
299.85487191325597678
299.85225626752634298
299.8456758109463749
299.83551949875504761
299.82294909698413221
299.80956721782814611
299.79697905558782622
299.78639542661056794
299.77831464475281109
299.77252902842559479
299.76839779312359724
299.76524425180116395
299.76262252486770876
299.76037401657680448
299.75860422017439078
299.75767046595240117
299.75798897098360385
299.75969548930521569
299.76245649142225602
299.7655873687315875
299.76815454619696766
299.76925595262213164
299.7683075124261336
299.76512968857065289
299.76010441307806786
299.75391871819221024
299.74734032792662219
299.74117160085563683
299.73596218676198077
299.73209125636020644
299.72982173714979126
299.72930005649573104
299.73053869364900947
299.73362856770552298
299.73864733582530562
299.74571231768015878
299.75488982167320273
299.76594444923892979
299.77834178483038841
299.79120862095891198
299.80346108606067901
299.92096557259668543
299.87805866703763513
300.0402212736535148
300.09587407054777941
299.86112309189195457
299.59989460684994356
299.54437200423990362
299.65356345515675685
299.87227688815687543
300.12659226955884151
300.29556259438271582
300.31165405075125818
300.21411472576721735
300.09066662980234241
300.0073603595309919
299.99822647898014338
300.08333689048629367
300.21682086627600938
300.2844147906137664
300.2195508650611373
300.09186392735460913
299.99963946122898051
299.97249498888720609
300.00177310886482474
300.09455595100757819
300.22796466167949347
300.33195181640223836
300.34060482968317274
300.25794669720312413
300.1462381924831675
300.06263594319193544
300.02687174062805298
300.02612472202986282
300.04659525962051703
300.09752677652789998
300.17758123184808028
300.25359794970995608
300.27537984541766036
300.25254153232395993
300.24999461895879449
300.29956954473038877
300.36743984523258177
300.41943642202954834
300.45893676359514757
300.48712078278680337
300.4766881117548678
300.41126243248123728
300.32086592046692886
300.2532470001728484
300.23289912381352451
300.26851185925221444
300.36942869352668595
300.52201768649018732
300.66777166581016445
300.74064797502819602
300.73584899064553611
300.69397078271663304
300.65615714515803347
300.65103709222091766
300.70195137826493692
300.81275012217565745
300.95006579574874195
301.05133984203945374
301.06644881001722069
300.99095703793307166
300.86487197866279075
300.74785455262053802
300.69068335260220692
300.71191465007308352
300.78894781859946761
300.87515602686619332
300.93380018222313765
300.95667285742359809
300.95423969159327271
300.94009423776839185
300.92460998915794335
300.92616057816951525
300.96803613364767216
301.05701678084614059
301.17312581667579252
301.2869063742596154
301.36849431023279067
301.40035636878309333
301.37308059264285021
301.29424141341331733
301.19200644080223128
301.10830757197152252
301.07806015737054395
301.11041660789925345
301.17851552224544776
301.23212220413250861
301.22981620688130988
301.16793287161289072
301.07903995479102832
301.00912116452883538
300.99045458508157935
301.03140242400758098
301.11672750539798926
301.21341995823780735
301.28071195382665337
301.28991828815759391
301.23990026419681953
301.16217783432472288
301.10439937504429508
301.1001397591817863
301.14685302216940954
301.20627287459410582
301.23253433101677956
301.20594397790591756
301.13846933305620723
301.0628532429799975
301.00976106230660889
300.99662817691040573
301.0268107584395807
301.08808703692051267
301.1585556024904804
301.2137179407259282
301.2366859948388651
301.22605191283963677
301.19501915858370467
301.16197986594715985
301.14008864793879638
301.13251593846086962
301.13612705546375992
301.144877131450869
301.15346224123652519
301.15968740363791767
301.16449658534094169
301.17260387371567276
301.1895820278583642
301.21722584273334178
301.25224382942798229
301.28709890648087821
301.31686033135900971
301.34078539650784023
301.36156566423960612
301.38173019465125435
301.40124953898657623
301.41754087845595222
301.42673098677556709
301.42602777723050167
301.4150712136907373
301.39389537768022365
301.36377955799559913
301.32751044526207806
301.2904814686038435
301.25953219869961686
301.24216630967436004
301.24396490141157301
301.27066119251242071
301.32542185773456822
301.40705819555211065
301.50640273255464763
301.60889860931490603
301.69729595591752513
301.75557575322778803
301.77245066290521436
301.74494609643818421
301.67689788012444296
301.57969700220513687
301.46958876777478054
301.36422060497039865
301.28011463058214758
301.23164785876855376
301.22770712293078077
301.27029814723459822
301.35146203531837727
301.45279618868966054
301.55076341753044744
301.62267563503939982
301.65362853598469428
301.6401516852023974
301.58949997561933287
301.51836500502895433
301.44720510296770044
301.39346847533693108
301.36787992784621792
301.37271433770484919
301.4053466527841465
301.4613522626973463
301.53714890874033472
301.62781285372903994
301.72449922141709067
301.81321344949225249
301.8781623148847757
301.90631468774762425
301.89081690970772343
301.83140612711497397
301.73086426866740339
299.52489276363633053
299.53679011334861571
299.54617894664465894
299.55172511572703797
299.55193894844393299
299.54563242887019214
299.53295987951150892
299.5153985679414177
299.49521852150741097
299.47443292592868147
299.45446612306193401
299.43597450985924979
299.41938593106152666
299.40602208782007665
299.39822013001281675
299.3986947033265551
299.40941670480680159
299.42991304508694839
299.45687061787691619
299.48517293182982257
299.50976886005707911
299.52741746572746706
299.53718662513233539
299.53969301935092062
299.536250073414692
299.52864860265162861
299.51932546572032834
299.51125718057255654
299.50720988192074401
299.50868888044232108
299.51539156256876595
299.52554578941538921
299.53708450639231842
299.54898391861939899
299.56172731465198922
299.57654573151040722
299.59398778944665764
299.61282491430154096
299.63017050095697869
299.64294798356729643
299.64971569653641836
299.65180134010336133
299.65292320919922986
299.65739695071681581
299.66789620765337077
299.68415217894448688
299.70323631614610349
299.72110950443936872
299.73460056732682233
299.74262511080519289
299.74609691199572126
299.74696701676191424
299.74729234697053926
299.7485824729924957
299.75150257345012506
299.75599404264272607
299.76162359296063187
299.76780766186038818
299.77387610314315225
299.77915092149123666
299.78309749210535529
299.78542051888729247
299.78602642466717043
299.78499084814825437
299.78273584519598671
299.78030591143095762
299.77948429095550864
299.78242163078283511
299.79072751223435489
299.80452324734545755
299.82201496585560108
299.83987934172233736
299.85439780581549485
299.86266321834125392
299.8633283101889333
299.8566781933806169
299.84417854623291078
299.82780298539159958
299.80943792666806758
299.79058635745423089
299.77255333180238495
299.75673665381208366
299.74467028022667137
299.73774111057070968
299.73681025646459375
299.74181807180332271
299.75153527180060564
299.76363408517528342
299.77517471441467478
299.78347965618462467
299.78701224665002201
299.78586766840254541
299.78165308642621767
299.7768293958441177
299.77386199159627722
299.77439646397175466
299.77879503577105424
299.7861682337808702
299.79487383921434684
299.80320166895438661
299.80990622259844258
299.81439559544793383
299.81666351267239179
299.81699118229391843
299.81563599531688169
299.81263889855404159
299.80788034118245378
299.80144303899237457
299.79389583831436994
299.78627854553639054
299.77986613173248998
299.77587595817584543
299.77517228515381476
299.77807123830723413
299.78424444740971921
299.79277752969585435
299.80246260955505022
299.81216249387267681
299.82113967089168227
299.829227586940533
299.83678089637544417
299.84434564085262309
299.85215348585768425
299.85971487740187058
299.86580232849672711
299.86881215336296691
299.86740485529486477
299.8610751934994596
299.85044865060132224
299.83714442277357648
299.82333311168508772
299.81115082356552648
299.80203871969092688
299.79636411134731588
299.79343394843363058
299.79191920412046102
299.79040532904423344
299.78790105761680707
299.78413943006228237
299.77962826042914912
299.77537309842534796
299.77248352894974914
299.77172993826729908
299.77333023615693719
299.7769190670030639
299.78176844721087946
299.78698686071817292
299.79168285731316246
299.79494273012863914
299.79599897748022386
299.79446541517643254
299.79058556537250979
299.78529276967208261
299.77995746575123803
299.77597998163520288
299.77427361189546673
299.77487179108612736
299.77706059221338819
299.77970516722785987
299.7817107171022144
299.7827583565838836
299.78347078910871915
299.78535238882597014
299.79015765283639894
299.79932042915595503
299.81323018711981376
299.83092672054806371
299.85034070979321541
299.86895705051546202
299.88468104391336055
299.89633933190071957
299.90383196853537129
299.90810385777405145
299.9104464928018956
299.91186015245864382
299.91271628960799944
299.91271309309689741
299.9112641764872933
299.90801077551861908
299.9032666283030153
299.89816868183055476
299.89448003694667477
299.89408578047397214
299.89820159850211212
299.90689472523115455
299.91890587010880154
299.93183657329598191
299.94277440881552366
299.94906349921774336
299.9489687863131735
299.94191226105874648
299.92870232868665425
299.91122636533873447
299.89211000640932525
299.87427305719830883
299.86038189458980696
299.85228389509205726
299.85070224937783223
299.85520455631063896
299.86435979040510347
299.87594736628386727
299.88736777522768762
299.89620689368695139
299.90080843164719226
299.90064794231750511
299.89635153451513361
299.88945559200493562
299.88201864788351259
299.87608515666875064
299.87315002030334199
299.87373969574923649
299.87729557916566137
299.88230027763427188
299.88668253895275484
299.88835528415432918
299.88583538582912524
299.87867496247605459
299.86752070202589948
299.85389284943482835
299.83974539856609454
299.82683689055068044
299.81647748537693587
299.80921185166221221
299.80470077911013504
299.80200110774541145
299.79998667347490482
299.79784800657103006
299.79541568321445766
299.79306129856570351
299.79139908789971969
299.7908966228629879
299.79177945906025116
299.79384448140689301
299.79644616592764805
299.79876635577733168
299.79992971430129955
299.79928527825211404
299.79676784785834798
299.79268190558985907
299.78769438472983211
299.78261581626054522
299.77823539037933642
299.77498656798286447
299.7729755425122562
299.77194622882774411
299.77161476061036183
299.77183899992604665
299.77268263763875211
299.77448133167121114
299.77775836538688736
299.78296098881816079
299.79019849720748425
299.79918217172655659
299.8092401868482284
299.81930276692423831
299.82828462843127681
300.13691501820403573
299.99258130267185152
299.93886038876621569
299.8909937082282795
299.89282266318042502
299.85234460048678784
299.70155401604324652
299.61832962637078026
299.76547984651296019