# Forces                    
# CofR                      : (0.00000000000000000000e+00 0.00000000000000000000e+00 0.00000000000000000000e+00)
# Time                      forces(pressure viscous)	moments(pressure viscous)
0.0135                      	((2.00877885576844092845e-16 1.52330337662325546262e+04 -2.41330196103902821314e-14) (4.39256881237812424335e-01 -5.57262658896994032137e-03 -2.89042159630617306529e-06)) ((4.50991936364939505211e-02 6.37371984860719644170e-15 -2.46832502712982204685e+00) (-9.14822918895354260903e-06 -5.59958796315913973768e-05 -4.18841760726157141814e-02))
