/*--------------------------------*- C++ -*----------------------------------*\
  =========                 |
  \\      /  F ield         | OpenFOAM: The Open Source CFD Toolbox
   \\    /   O peration     | Website:  https://openfoam.org
    \\  /    A nd           | Version:  12
     \\/     M anipulation  |
\*---------------------------------------------------------------------------*/
FoamFile
{
    format      ascii;
    class       volScalarField;
    location    "0.00542";
    object      nut;
}
// * * * * * * * * * * * * * * * * * * * * * * * * * * * * * * * * * * * * * //

dimensions      [0 2 -1 0 0 0 0];

internalField   nonuniform List<scalar> 
75962
(
4.8181013238507409524e-07
5.9304490540819007458e-07
6.5643210822482952287e-07
7.377711803401085177e-07
8.5214852065234125505e-07
9.6233965565372969808e-07
1.0522625831502077142e-06
1.1413795817567021072e-06
1.2608573139636900531e-06
1.3970146337844056192e-06
1.4948786673383607422e-06
1.5356905863112807076e-06
1.5544475153425511202e-06
1.591103780763179492e-06
1.678040629839987501e-06
1.7683858285391664628e-06
1.8480960764850935372e-06
1.9247190298466283473e-06
2.0057702509639889278e-06
2.0932255513327879871e-06
2.1882968627267967525e-06
2.2969022024850438097e-06
2.4152321512922662066e-06
2.5272254537405965097e-06
2.6208372780341408084e-06
2.6940302060937136572e-06
2.748791728420032105e-06
2.7899432272745597608e-06
2.832641335397575571e-06
2.8947105836881595916e-06
2.9798930272780066483e-06
3.0749770430093923685e-06
3.1591686810797642107e-06
3.2171694023123464198e-06
3.2494961084097528673e-06
3.2762187747691853162e-06
3.3276610534996075495e-06
3.4495444152875253721e-06
3.6277004238252179958e-06
3.7947932612232699231e-06
3.9154173927493296156e-06
3.987412477333273988e-06
4.0325021329284265026e-06
4.0674746435329430124e-06
4.0935997131855961285e-06
4.108595439999859723e-06
4.1191497662918057958e-06
4.1386837632023260397e-06
4.1872255679021574349e-06
4.3167360643119597559e-06
4.466958149642330793e-06
4.5668288071299908032e-06
4.6121257056279485416e-06
4.6421910825205312272e-06
4.708248500881762405e-06
4.9179964379609400965e-06
5.2495358367284630167e-06
5.4613519751052081507e-06
5.5505901157710393627e-06
5.566901366011250389e-06
5.5605194790905135112e-06
5.5424703299718899719e-06
5.5277030193544846371e-06
5.5234740802047546811e-06
5.5251760313194890048e-06
5.5520389775483968626e-06
5.6684840386145884022e-06
5.8115087749128847068e-06
5.8762494874584322358e-06
5.8848781792241476989e-06
5.8741913195120051326e-06
5.8594700715433783433e-06
5.8598826179000474128e-06
5.8963663144336660266e-06
6.02302245310819639e-06
6.1695305370795203983e-06
6.2956915793429600136e-06
6.3951475262037899927e-06
6.457189108203691591e-06
6.4840650694163892397e-06
6.4981560352775572038e-06
6.528268800877159513e-06
6.6239754298728955513e-06
6.9184788437581066982e-06
7.2227894637730193244e-06
7.3827544263479216667e-06
7.4281276505698170721e-06
7.422898856329152545e-06
7.3944986171292314517e-06
7.3753384224708581695e-06
7.3814581000799078374e-06
7.4632409208601265552e-06
7.712456620806639677e-06
7.9044371960264290275e-06
7.9856427436460506391e-06
7.9986397939433056452e-06
7.9908174733098014206e-06
7.9850135980712238045e-06
7.9987259854637504246e-06
8.0431449717767341786e-06
8.0524528926680059566e-06
8.0382677960838006144e-06
7.9740215380512516384e-06
7.8965900132070555151e-06
7.8728330079233601625e-06
7.8745487274178396536e-06
7.9199382504472806411e-06
8.0138077419809550592e-06
8.0660851803209981427e-06
8.0861145504185079856e-06
8.0892932744888258382e-06
8.0854639009604072948e-06
8.0792739996336120946e-06
8.0711657512031166698e-06
8.0558790192581473114e-06
8.0292093486503541807e-06
8.0069252153189731644e-06
7.9925124631510981047e-06
7.9845275465206518115e-06
7.9798239815346089584e-06
7.9806616551025672364e-06
8.0015458736433996926e-06
8.03826646417901965e-06
8.0682385946981314618e-06
8.0990098360198650208e-06
8.136996127328084035e-06
8.1826815233349342111e-06
8.2304690720248196029e-06
8.2719845448336663492e-06
8.3011156609754470337e-06
8.3163806110065786729e-06
8.3211542640436918174e-06
8.3224651937560351289e-06
8.3276526045503862635e-06
8.3463765776985687062e-06
8.3992941711465285692e-06
8.4636803615737811522e-06
8.5214158869354010166e-06
8.5676296566016601412e-06
8.6026889479636063391e-06
8.63153972459696422e-06
8.6600663796090713323e-06
8.6928893425557898897e-06
8.7307199784627988469e-06
8.7706923935904577554e-06
8.8077214001365443456e-06
8.8370701430834448835e-06
8.8566017041436121896e-06
8.8677085372311652186e-06
8.8753423148730846502e-06
8.8857288582733152705e-06
8.9051218279402770471e-06
8.937260316912378581e-06
8.9816919714947872117e-06
9.0352417691518727074e-06
9.0920509754132812318e-06
9.145877956166432703e-06
9.1916590248798173905e-06
9.2263066456149395026e-06
9.2497227777419429131e-06
9.2644345677525323458e-06
9.2742614780647231637e-06
9.2836738575248140736e-06
9.2965908958501895922e-06
9.3153904223176085353e-06
9.3408849926728647475e-06
9.3722015495922024843e-06
9.407366054403101097e-06
9.443510607549388455e-06
9.4773532526474596271e-06
9.5069715988756070568e-06
9.5313278655247050226e-06
9.5501454593633535177e-06
9.5645315859902604833e-06
9.5764533416140308755e-06
9.5882650595811854619e-06
9.6020586304822717633e-06
9.6197070274283544744e-06
9.6421114594596057273e-06
9.6696295944445196291e-06
9.7015012173100986152e-06
9.7372008862710748535e-06
9.7744767337960995404e-06
9.8120690462804595854e-06
9.8473192709497496235e-06
9.8794334349915297402e-06
9.9066252550371813271e-06
9.9288382125476371215e-06
9.5822043368486321265e-06
9.57120652612620802e-06
9.5603725421260017696e-06
9.5496874107848659025e-06
9.539102743379181251e-06
9.5285174476431095438e-06
9.5177215008170200399e-06
9.5066001518234981152e-06
9.4951962854249455511e-06
9.483710436940844061e-06
9.4722131187326886499e-06
9.4607005782976610209e-06
9.4490655205991548447e-06
9.4373471833657234127e-06
9.4254801711022698815e-06
9.4134729034969959676e-06
9.4012297445393094652e-06
9.3889344515548808464e-06
9.3766704398802141573e-06
9.3646558612301890068e-06
9.3528024966545059588e-06
9.3412396971104479408e-06
9.3298436752201397874e-06
9.3187141819529102811e-06
9.3075746053688935812e-06
9.2964326895898211669e-06
9.2850562960133053124e-06
9.2736123577440839966e-06
9.2619817718771928813e-06
9.25040188267412158e-06
9.2387516640646637206e-06
9.2272568359450388495e-06
9.2156743632430366083e-06
9.2041523504759139874e-06
9.1924128419330615962e-06
9.1807886923965091483e-06
9.1691624747676298072e-06
9.1579226163082326463e-06
9.146764331406062224e-06
9.1358390954364505541e-06
9.1247295206822219365e-06
9.1136786387410152283e-06
9.1024230858840559868e-06
9.0913132452008028948e-06
9.0800676765609032639e-06
9.0689856083482137659e-06
9.0576964362678012179e-06
9.0464595546357170141e-06
9.0349557780678966694e-06
9.0235861408764762409e-06
9.0121306082450827778e-06
9.0009888774673284885e-06
8.9898096050391607673e-06
8.9789086987398194535e-06
8.967805458589817025e-06
8.9567557818835967683e-06
8.9452595623644945726e-06
8.9337337726023367926e-06
8.9218972031619097029e-06
8.9102825994894547417e-06
8.8985025374704181757e-06
8.8869547052545928129e-06
8.8751423886695964612e-06
8.8634956631759930867e-06
8.8515325646365425544e-06
8.8397651328682924025e-06
8.8278307695063127936e-06
8.8163571714754164612e-06
8.804976908341036708e-06
8.794145024975153521e-06
8.7832673805646906931e-06
8.772677493925737e-06
8.7618016515961585911e-06
8.7510755097317593294e-06
8.7400127992955091666e-06
8.729057190134498586e-06
8.7177821737983508029e-06
8.7066652315689822936e-06
8.6953632252575044831e-06
8.6843078695985944504e-06
8.6731274725235914475e-06
8.6621672825808227229e-06
8.6510688795435625734e-06
8.6401884955353275416e-06
8.629174060215818735e-06
8.6183580438860547921e-06
8.6073247006368908222e-06
8.5964353402379055662e-06
8.5853433206059853771e-06
8.5745223692397060474e-06
8.5636212175870444856e-06
8.5530593161515821769e-06
8.5423704355614186822e-06
8.5320092125296215045e-06
8.521502465523415971e-06
8.5113089426754551736e-06
8.5008389999154339355e-06
8.4904818086453810158e-06
8.479692616216432798e-06
8.4689945702649384947e-06
8.4580016677676434796e-06
8.4472863462554590146e-06
8.4364672495951843485e-06
8.4260396629287881128e-06
8.4155594704652727513e-06
8.4053947616282409223e-06
8.3950187666098279135e-06
8.3847511486227784249e-06
8.3741672243246430773e-06
8.3637142752820190612e-06
8.3531163539210568925e-06
8.3428178537526703513e-06
8.3324859848868352706e-06
8.3223676377510856679e-06
8.3120362786368848012e-06
8.3016781767073666325e-06
8.291020416998933328e-06
8.2804148700371435596e-06
8.2697306286639555943e-06
8.2592702197235079361e-06
8.2488801262385126508e-06
8.2387138669842307928e-06
8.2286217087470905261e-06
8.2186690177721894617e-06
8.2086596896345433595e-06
8.1986901781494052896e-06
8.1885666294273423194e-06
8.1785168154270598595e-06
8.1683102960186960024e-06
8.1582656077752186964e-06
8.1481038045301610977e-06
8.1381828996108252899e-06
8.1281388064968370218e-06
8.1182620291007969853e-06
8.1081488316304569215e-06
8.098155116781874144e-06
8.0879914019392375039e-06
8.0780312666546905185e-06
8.0679974905833055161e-06
8.0581118772302682066e-06
8.048163155707282405e-06
8.0382326120855144343e-06
8.0282380424130448104e-06
8.0181910582847192341e-06
8.0081057463951848299e-06
7.9981403727739992684e-06
7.9881955944040210845e-06
7.9785402842824422345e-06
7.9687678602326466308e-06
7.9592371729133748091e-06
7.9494697972540788585e-06
7.9398491953448834744e-06
7.9301145374318379402e-06
7.9204924529816103434e-06
7.9109811859570769069e-06
7.9015784321914671204e-06
7.8922871220664669878e-06
7.8830619152589769157e-06
7.8738120752816136508e-06
7.8646363149121022986e-06
7.8554259931266398446e-06
7.8462014886356811199e-06
7.8370250848737920221e-06
7.8277044663312063286e-06
7.8185290496401786112e-06
7.8091828024996687567e-06
7.7999557936825449832e-06
7.7905283621492204843e-06
7.7811887331281135544e-06
7.7715730684677294553e-06
7.7621509004501922563e-06
7.752388183947117199e-06
7.7429343682804705682e-06
7.7331990384749585112e-06
7.7236765456068247733e-06
7.7139298665676396381e-06
7.704409275122494686e-06
7.6946084453421826981e-06
7.6853518971135706335e-06
7.6757771741810217937e-06
7.6669034886667658838e-06
7.6576548294783050108e-06
7.6490221530798236966e-06
7.6398427380381257181e-06
7.6311407422996288704e-06
7.6217145105208487408e-06
7.6127354344393834926e-06
7.6030133546575100027e-06
7.5937704720969756059e-06
7.5838826769048350892e-06
7.5745747947433477663e-06
7.5647366656049213772e-06
7.5556149077386628078e-06
7.5460626177303353904e-06
7.5372755724149306661e-06
7.5279498781918930322e-06
7.5193119583864025793e-06
7.510042708392682367e-06
7.5014236364838951605e-06
7.4921662234293881098e-06
7.4837335134202942976e-06
7.4745709012782619507e-06
7.4663593892377724812e-06
7.4573725731311108427e-06
7.4493306134040465364e-06
7.4404662212446234627e-06
7.4326031039697550279e-06
7.4238446106895430627e-06
7.4160961555390845403e-06
7.4074334519941014931e-06
7.3996013133136616513e-06
7.3908031147933434459e-06
7.3826850617821557018e-06
7.3736053493213539627e-06
7.3653506790791714828e-06
7.356243370853403868e-06
7.3481053316041326605e-06
7.3390754277094312523e-06
7.3309552210937469296e-06
7.3218793111308133967e-06
7.3136993532586572266e-06
7.3046029900679951022e-06
7.296534850363724776e-06
7.2875071796186542266e-06
7.2796243628359416929e-06
7.2707577157058138616e-06
7.2630973641782887236e-06
7.254468025942061691e-06
7.2470282011080589004e-06
7.2385601911966189446e-06
7.2312803122216543988e-06
7.2229268189439390196e-06
7.2156940898324074991e-06
7.2073982272912728649e-06
7.200121943143356491e-06
7.1916835192792067698e-06
7.184293012205193347e-06
7.175777555173955979e-06
7.1682794456632415361e-06
7.1596902768720078382e-06
7.1520962981081868704e-06
7.1433808301184196512e-06
7.1356828388928421106e-06
7.1269653108009622556e-06
7.1193787330700841528e-06
7.1107852347962526588e-06
7.1032994713856563437e-06
7.0948993591454359155e-06
7.0875595202799878306e-06
7.0792799478793823264e-06
7.0721271673518739959e-06
7.0638950978962622237e-06
7.0567982990010518068e-06
7.0484202446176397942e-06
5.3010007425662659691e-07
6.7410145874002084552e-07
7.5369487153696151073e-07
8.215587490544807035e-07
9.1346180979975874079e-07
9.9954064482527814586e-07
1.0772624817698936562e-06
1.1633361745560767903e-06
1.2745234504850087113e-06
1.4068289307557803291e-06
1.5274642718397794623e-06
1.6166288789054318959e-06
1.6764424091798354169e-06
1.7164223051171924182e-06
1.7601784449804347565e-06
1.8375907240114023455e-06
1.9466142689406379321e-06
2.0484964324391765582e-06
2.1187798675815417642e-06
2.181099963790705826e-06
2.2790425498000092647e-06
2.425335250317342653e-06
2.5869345263276558998e-06
2.71982130070260024e-06
2.8104026613000627292e-06
2.8671724317226075081e-06
2.900320459815570958e-06
2.9220727402093401161e-06
2.9540253076069469761e-06
3.0186846478193462971e-06
3.1183254293031218443e-06
3.2316235561977440873e-06
3.3309881966380567026e-06
3.3985482365686354608e-06
3.433181696262125039e-06
3.451186547585594213e-06
3.4784403836859273577e-06
3.5451834884112825506e-06
3.7178258962516714102e-06
3.9268677376973975962e-06
4.0896237045250954158e-06
4.1897550383361491054e-06
4.2387833808731565364e-06
4.2580739171625330027e-06
4.2639948011053796333e-06
4.26931038900522305e-06
4.2829476807045555023e-06
4.3163042101339492573e-06
4.4066290339488802411e-06
4.5696236155766134998e-06
4.7228333158462076794e-06
4.8293708374074345647e-06
4.8797402222656232362e-06
4.9045178916584012571e-06
4.9514362975368930977e-06
5.0957246424183364459e-06
5.4131816148241178622e-06
5.6469568475299327702e-06
5.7587697554662191178e-06
5.7881633085390570673e-06
5.7859701346499517116e-06
5.7777246107783486183e-06
5.771781721101087057e-06
5.7699718513558549343e-06
5.7756180563154084747e-06
5.8063038735463741222e-06
5.918889828545150552e-06
6.05637577801114204e-06
6.1266480797299445642e-06
6.1414214093663834932e-06
6.1346892833769145042e-06
6.1209221842924069185e-06
6.1173450664639941306e-06
6.1370384137510007672e-06
6.2376714142593821057e-06
6.4338429710032867488e-06
6.6078000794624719869e-06
6.742788352518334341e-06
6.8263998362392929706e-06
6.8624374283974570477e-06
6.8780571770999331975e-06
6.9075065299991039551e-06
6.9979907543627612159e-06
7.2589977371105539203e-06
7.5176692941634348319e-06
7.6551814229049942921e-06
7.6922478247523817438e-06
7.6861501306332743718e-06
7.6626659591312166239e-06
7.6522706620153059618e-06
7.6733497511590198763e-06
7.8216614267498660383e-06
8.1419600726196055939e-06
8.3445103250643486452e-06
8.426760450253611661e-06
8.438379068780750344e-06
8.4308651112589364911e-06
8.428122134975704735e-06
8.4606105369738558426e-06
8.532747980567063613e-06
8.5510040833343328449e-06
8.5376839999984626296e-06
8.4701514104800757746e-06
8.3788024751371862145e-06
8.3490521090150696175e-06
8.3501646450150946338e-06
8.398790480121734876e-06
8.5012490478107729071e-06
8.5557352438734393413e-06
8.5739201190991198056e-06
8.5746939000310943023e-06
8.5691409531234038571e-06
8.5614116015706146921e-06
8.5462937053537821092e-06
8.5115983789791876659e-06
8.4773733379323737229e-06
8.4565252310657526195e-06
8.4463358976560575235e-06
8.4413285988082902429e-06
8.4436300573480407687e-06
8.4555481310943120146e-06
8.4620981705785503727e-06
8.4716005154797575406e-06
8.4940179978022692359e-06
8.5331172249043180989e-06
8.5843179944055517171e-06
8.6373210071820823852e-06
8.6813649198681917438e-06
8.7098162743144588423e-06
8.7228995913800465859e-06
8.7267503032991007426e-06
8.7304516484835791934e-06
8.7432803774908870081e-06
8.7760689857027232753e-06
8.8224787264083934777e-06
8.8749544078950157129e-06
8.9258955830554884131e-06
8.9703488446292718419e-06
9.0073443219493522829e-06
9.0395376292308152476e-06
9.0719276872243854597e-06
9.1084595867715037107e-06
9.1511776313932837568e-06
9.1982293467362594825e-06
9.2448776546601154697e-06
9.2854237189508003343e-06
9.3155003639522350174e-06
9.3334262195466816294e-06
9.3412398311970035473e-06
9.3442252288906804192e-06
9.3493314371361503883e-06
9.3633855956683237641e-06
9.3916982275841730379e-06
9.4358818322140502029e-06
9.4934611282930076007e-06
9.5584645289939695689e-06
9.6239707923922503954e-06
9.6818348762990018698e-06
9.7263543387478537721e-06
9.7544870096763593495e-06
9.7678126902132532216e-06
9.7705275505031749208e-06
9.7695893485470210025e-06
9.771836847480697678e-06
9.7846964707425978098e-06
9.8100013339871886914e-06
9.8433527131648431487e-06
9.8817454293404302933e-06
9.9215710627779153403e-06
9.9590659732386491946e-06
9.9922843555434319077e-06
1.0020026759868949046e-05
1.0041782633105872488e-05
1.0058853030924780862e-05
1.0073285154255617508e-05
1.0087692710268611956e-05
1.0104225460404306819e-05
1.0124851530451685797e-05
1.0150592039993414941e-05
1.0181482092004649043e-05
1.0217005592143117788e-05
1.0255820605019165198e-05
1.0296430259100065904e-05
1.0336201460487546268e-05
1.0374008562609384772e-05
1.0407520207651730886e-05
1.0436397396722669047e-05
1.0459713590403046601e-05
1.0477548214407793678e-05
1.0096716377278562712e-05
1.0085061770930571818e-05
1.0073622131788561752e-05
1.0062452531442451551e-05
1.0051516497716912854e-05
1.0040661435085656455e-05
1.0029721471097098289e-05
1.0018540692396091769e-05
1.0007055312460174336e-05
9.9952266780076055435e-06
9.9831743287597398773e-06
9.9709785873519831144e-06
9.9587778073104078384e-06
9.9465254791267891529e-06
9.9342665247899531117e-06
9.9218957722379664372e-06
9.9094493734464632307e-06
9.8968298060854509784e-06
9.8841576653315932956e-06
9.8714214950135734816e-06
9.8587733055549340531e-06
9.8461849271079949201e-06
9.83382561386201297e-06
9.8216516521970468386e-06
9.8097354539532839491e-06
9.797861908383274072e-06
9.7860452861115027192e-06
9.7741066262011002801e-06
9.7621179209546720806e-06
9.749922611563633927e-06
9.7376684098003970364e-06
9.7253448954556306628e-06
9.7131762797342891056e-06
9.7010434884717881924e-06
9.6890008127695310069e-06
9.6768314971795951784e-06
9.6647075117402574709e-06
9.6525451691116890944e-06
9.6405922699975001803e-06
9.6286818325991428062e-06
9.6169500479521863209e-06
9.6051671261012953255e-06
9.5934950351683423117e-06
9.5817624027502222534e-06
9.5701758086399814519e-06
9.5585432381191550696e-06
9.5470151301204979176e-06
9.5353073748349397124e-06
9.5235360385079148685e-06
9.5115269664545569462e-06
9.4995631476394589522e-06
9.4875913599641616261e-06
9.4758408897228786329e-06
9.4641084233150830262e-06
9.4525131642775833105e-06
9.4407914650958385506e-06
9.4290558984826511964e-06
9.4170966338061254657e-06
9.4051006406662148682e-06
9.3929606114667033506e-06
9.3808563295668875181e-06
9.3686395377094088623e-06
9.3564421071826078797e-06
9.3440938837208919267e-06
9.331693491736286938e-06
9.3190790918768060729e-06
9.3064589915642355013e-06
9.2938885431377492806e-06
9.2816820378530455699e-06
9.2698003540164281748e-06
9.258279713190738626e-06
9.2468853155101710388e-06
9.23557535570836751e-06
9.2241707272587617177e-06
9.2126947027572707023e-06
9.2010119164896088693e-06
9.1892408932516128763e-06
9.1773548849573300122e-06
9.1655450954593954737e-06
9.1537769209309710058e-06
9.1421286975798452093e-06
9.130499299154412596e-06
9.1189276907364090892e-06
9.1073589329027930566e-06
9.0958469652569061713e-06
9.0843448763030897183e-06
9.0728773230398156256e-06
9.0613466820496451314e-06
9.0497811822747705818e-06
9.0381419985875461053e-06
9.0265727299137619598e-06
9.0150801277837103528e-06
9.0037415125968165569e-06
8.9924768422585224411e-06
8.9813504307967963392e-06
8.9703133900004607679e-06
8.9594335783515260583e-06
8.9485316975772640256e-06
8.9375880590798969936e-06
8.9264251840344806732e-06
8.9151669124608528774e-06
8.9038194106182841711e-06
8.8925262580898424016e-06
8.8812853421464989787e-06
8.8701576237278718424e-06
8.8591349488235859654e-06
8.8482345391513777866e-06
8.837374878731815299e-06
8.8264602583506103842e-06
8.8154378022460088917e-06
8.8043294875277350407e-06
8.7932451674674486704e-06
8.7822645980653954732e-06
8.7714123669958538423e-06
8.760587723243688061e-06
8.749700520043244035e-06
8.7386114191774488384e-06
8.7273916882085649172e-06
8.7160909889367974701e-06
8.7049204934611543682e-06
8.6938695235531840666e-06
8.6830541100641700584e-06
8.6722945432624380885e-06
8.6617043744742075798e-06
8.6510824634756882772e-06
8.6405395054911700043e-06
8.6299158064900874469e-06
8.6193033191201241723e-06
8.6086205762958052266e-06
8.5979518246859283777e-06
8.5872841733197490156e-06
8.5766805880426174804e-06
8.5661520721953300639e-06
8.5556621456330845957e-06
8.5451449382801636623e-06
8.5345662931649368064e-06
8.5238907924860235721e-06
8.5132487485938102109e-06
8.5026067695871852749e-06
8.4921209945823911646e-06
8.4815989995622084854e-06
8.4712051297045100882e-06
8.4606154319221991896e-06
8.4500875625367776774e-06
8.4393421776974010101e-06
8.4287187579209649902e-06
8.4181014935009523744e-06
8.4077092964369510897e-06
8.3974657853270931446e-06
8.3873246073110382752e-06
8.3772575227396673894e-06
8.3671805968184816203e-06
8.3570562107077173825e-06
8.3469870288921440557e-06
8.3367865863025125223e-06
8.3268433819413155211e-06
8.3168135755831706923e-06
8.3071233192464095517e-06
8.2973194561235283324e-06
8.2876917953206581517e-06
8.27788954167818714e-06
8.2682059893384958672e-06
8.2582951836302663983e-06
8.2486086426806103555e-06
8.2385904055070779842e-06
8.2289081341535020295e-06
8.2188583816738916847e-06
8.209175427570006601e-06
8.1990836752094790353e-06
8.1893235215332315659e-06
8.1790909483783441576e-06
8.1692432047549470023e-06
8.1589012130316798676e-06
8.1490368113626495837e-06
8.1387375787803064919e-06
8.1288729652466113986e-06
8.1186271408355542291e-06
8.1088552076019899381e-06
8.0986116232088539469e-06
8.0890639296827450823e-06
8.0789299109709133479e-06
8.0696032460631504543e-06
8.0596658553224989125e-06
8.0504933926135347649e-06
8.0406060316152103015e-06
8.0314228477076878341e-06
8.0213432153394005191e-06
8.0119612557686089899e-06
8.0016790802213952539e-06
7.9920761865185034991e-06
7.9816429372950937403e-06
7.9719727345361291398e-06
7.9615917745141474642e-06
7.952119985943448621e-06
7.9420199960193628029e-06
7.9328501382010839976e-06
7.9229720191148166178e-06
7.9139359755109195817e-06
7.904118760042873977e-06
7.8951437693746484645e-06
7.8853329465691354076e-06
7.876504125211463816e-06
7.8667461673045293837e-06
7.8581144421245865489e-06
7.8485284330041009328e-06
7.8400736070491492855e-06
7.8306585056021108085e-06
7.8224008824323208283e-06
7.8130960208399688623e-06
7.804980190081268736e-06
7.7957565220680120975e-06
7.7875776911312361662e-06
7.7781935946375987278e-06
7.7696683094128350081e-06
7.7599249772501537048e-06
7.7511566375290742904e-06
7.7413084125505548155e-06
7.732596560476724223e-06
7.7228537084212095753e-06
7.7142469903120420351e-06
7.7045070867648641523e-06
7.6959351023589352321e-06
7.6862639994451792955e-06
7.6778282815047536972e-06
7.6682588870822244163e-06
7.6600346517615418583e-06
7.6506401672313075249e-06
7.6426415388215076201e-06
7.6334599873534927521e-06
7.6256752629167987573e-06
7.6166372976739563072e-06
7.6089265705057461541e-06
7.5999683587648723051e-06
7.5922716013778825014e-06
7.583321680297585298e-06
7.5755960675699322268e-06
7.566548896476057736e-06
7.5587521879305849559e-06
7.5496394650134441163e-06
7.5417480463186751266e-06
7.5325362856050725866e-06
7.5244778280197165501e-06
7.51507979997192154e-06
7.5069162926794028894e-06
7.4975060133359259644e-06
7.4894129957902805212e-06
7.4801452356417202561e-06
7.4721771175533633507e-06
7.4630943772934147501e-06
7.4552993826209506319e-06
7.446401628163093604e-06
7.4388377326525794976e-06
7.4300171415403877914e-06
7.4225336811871648192e-06
7.4135978120483500727e-06
5.1455799843376664461e-07
6.8251060640830234866e-07
7.6548912908500576274e-07
8.1473503948047409771e-07
8.8645686595803727149e-07
1.0402988569904084116e-06
1.2224117511762896829e-06
1.3405721562884269262e-06
1.4237316592366874624e-06
1.5177985703461315432e-06
1.6160888955743602593e-06
1.6956038543629075808e-06
1.7461232373057266004e-06
1.7775695032348684177e-06
1.8270718560964995231e-06
1.9259199517366646708e-06
2.0563529850327864641e-06
2.1686108736766474308e-06
2.2412366203265406161e-06
2.3019259152079796473e-06
2.3943715544792481097e-06
2.5306768186617370238e-06
2.6828345091417112531e-06
2.8162912459795926947e-06
2.9201332540473173069e-06
2.9971689155971208246e-06
3.0507589172847530196e-06
3.0856803197030621477e-06
3.1210836159749163178e-06
3.183889079193560586e-06
3.2801251195357097e-06
3.390604191421781164e-06
3.4867649001847454654e-06
3.547649111499899878e-06
3.5756434536920048351e-06
3.597405851204159724e-06
3.6425932874823305978e-06
3.7669135657805661274e-06
4.0434754431158506885e-06
4.2827093291064237082e-06
4.4238251135084813318e-06
4.4755699350416112045e-06
4.4796644077758133827e-06
4.4737246254487139129e-06
4.4691439873934897038e-06
4.4701550176385719749e-06
4.4884652537002797733e-06
4.5601351193050265089e-06
4.7129457652001497653e-06
4.8564459513172343033e-06
4.9663127417810157781e-06
5.0296117418029595065e-06
5.0551566566902859042e-06
5.0753631733053467638e-06
5.1245147540968799955e-06
5.2885025530108679666e-06
5.6008940893852264266e-06
5.8182412353226647261e-06
5.9223526724640144828e-06
5.9515945344508457612e-06
5.9521808903085286589e-06
5.9498106447699955639e-06
5.9520482148795155196e-06
5.971281833009662492e-06
6.0449094947745229636e-06
6.1776367817558729955e-06
6.2887449706866319055e-06
6.359294639196988493e-06
6.3845613365305163946e-06
6.3826847146648125789e-06
6.370897610839832186e-06
6.3622460321063949119e-06
6.3693512113589527643e-06
6.4372567910561454053e-06
6.6496437784566736037e-06
6.8694175689276840607e-06
7.0342964107642380549e-06
7.1438613650588838727e-06
7.2002200636227883264e-06
7.2198635527304787053e-06
7.233723889229549771e-06
7.2721704772488794213e-06
7.4144621370476965219e-06
7.7658357752563868226e-06
8.016699427300579361e-06
8.1136772254307668609e-06
8.1204555836943340114e-06
8.0947802557298730833e-06
8.0386729144195900583e-06
8.0226834754700869306e-06
8.0442908480560626185e-06
8.2061959367058918112e-06
8.565156965936513743e-06
8.79023588893992608e-06
8.8793789739141627625e-06
8.8911367268701585497e-06
8.8834234290351795136e-06
8.8832542428665510898e-06
8.9346581547680570929e-06
9.040421942509979116e-06
9.0712473043770687172e-06
9.0588340517988701761e-06
8.9863401390263044624e-06
8.8635071732525153498e-06
8.8122167424977759038e-06
8.8041661775710178825e-06
8.8180354665712921817e-06
8.8837266449973057477e-06
8.9461480801940236076e-06
8.988794013006409084e-06
9.0212402114187328396e-06
9.0440806796803151045e-06
9.0540147220199542811e-06
9.0522096961290547218e-06
9.0441579447186528907e-06
9.0229582791172511797e-06
8.9741591079446140887e-06
8.9374124654450869928e-06
8.9191659207383426551e-06
8.91159188689815302e-06
8.9096450790447334454e-06
8.9274366052348008948e-06
8.9622340236437812489e-06
8.9792105908624294879e-06
8.9842179576743179701e-06
8.9896227332776248553e-06
9.0081766054120206952e-06
9.0561594307462802919e-06
9.1124347739248719142e-06
9.1632198767643586058e-06
9.2048456419570110875e-06
9.2400748050302812503e-06
9.2744216718362502521e-06
9.3111704330670677497e-06
9.3513943012035118677e-06
9.3915398024444195099e-06
9.4283717763757915838e-06
9.4600789132788783105e-06
9.487670451745657804e-06
9.5148820303677202797e-06
9.5450738238939440776e-06
9.5805844223211007054e-06
9.6219251184579119402e-06
9.6680677724126475655e-06
9.7157853044965538557e-06
9.7611318330519571948e-06
9.8012744825661568716e-06
9.8349530598710259405e-06
9.863595586759310585e-06
9.8900739752363235803e-06
9.9176905165506686551e-06
9.9489666315004259315e-06
9.9850023817900303465e-06
1.0024927311453489591e-05
1.0066634667345237045e-05
1.0107970787950330786e-05
1.0145896063072075237e-05
1.0178082306160976059e-05
1.02035975351674136e-05
1.0223182316261637915e-05
1.0239222601673435533e-05
1.0256027286480497038e-05
1.0277489011624316978e-05
1.0306251135619115219e-05
1.0342668894323876725e-05
1.0384891189074921332e-05
1.0429535526559185067e-05
1.0473156351315254339e-05
1.0512630123421677617e-05
1.0545750482377841544e-05
1.0571791461337993665e-05
1.0591125793303007385e-05
1.0605635268995071622e-05
1.0616753611492758989e-05
1.0626581597009889199e-05
1.0637739345219314322e-05
1.0652360484029527654e-05
1.0671820435949504191e-05
1.0696452589653409539e-05
1.0726421970796446643e-05
1.0760792241595072488e-05
1.0797691351240621354e-05
1.0836144253250560619e-05
1.0873770395247367763e-05
1.0909650418143470706e-05
1.0941700240486449132e-05
1.0970305679729417953e-05
1.0994489638986089752e-05
1.1014323867825981653e-05
1.063041435910813646e-05
1.0618070245550521852e-05
1.0606030188298739626e-05
1.0594356844201083392e-05
1.0582864815827333383e-05
1.0571360102799146389e-05
1.0559624005692017684e-05
1.0547712909759606402e-05
1.0535524878970322832e-05
1.052309820477302253e-05
1.0510320141476595885e-05
1.0497438035541235924e-05
1.0484468450634191206e-05
1.0471606455821166309e-05
1.0458679032088585758e-05
1.0445812166743711325e-05
1.0432849767774614265e-05
1.0419952952525188999e-05
1.0406917961373657235e-05
1.0393851083019543834e-05
1.0380539701980266031e-05
1.0367251919272640854e-05
1.0353950247976121546e-05
1.0340989677625086918e-05
1.0328154503120702497e-05
1.0315618312225921798e-05
1.0303075701895520003e-05
1.0290715515219364651e-05
1.0278146515314583981e-05
1.0265482470540347254e-05
1.0252454247624299955e-05
1.0239493088812580185e-05
1.022648889103426236e-05
1.0213771482662510249e-05
1.0200962200171871804e-05
1.0188323155312748879e-05
1.0175495308211840982e-05
1.0162835887519070023e-05
1.0149957269240008603e-05
1.013726971678248243e-05
1.0124443114203034974e-05
1.0111973928564212241e-05
1.009947334028299783e-05
1.0087347681894388469e-05
1.0075094894189183758e-05
1.0063102997993141914e-05
1.0050848570499595471e-05
1.0038728124660641731e-05
1.0026229384448015741e-05
1.0013859223300780504e-05
1.0001219416557525745e-05
9.9888831933651234019e-06
9.9763763532556692525e-06
9.9641677681154940046e-06
9.9516943339700734083e-06
9.9394458790577906834e-06
9.9268886632471776016e-06