/*--------------------------------*- C++ -*----------------------------------*\
  =========                 |
  \\      /  F ield         | OpenFOAM: The Open Source CFD Toolbox
   \\    /   O peration     | Website:  https://openfoam.org
    \\  /    A nd           | Version:  12
     \\/     M anipulation  |
\*---------------------------------------------------------------------------*/
FoamFile
{
    format      ascii;
    class       volScalarField;
    location    "0.00542";
    object      rho;
}
// * * * * * * * * * * * * * * * * * * * * * * * * * * * * * * * * * * * * * //

dimensions      [1 -3 0 0 0 0 0];

internalField   nonuniform List<scalar> 
75962
(
1.1461319271836323264
1.1461295649667422314
1.145852755255502009
1.1452585175114817773
1.1474845498278392064
1.1486241019725391688
1.1477851120613002944
1.1473513550874192557
1.1470592777377905946
1.1467805885927544463
1.1465442130700085333
1.1459234386859002974
1.1449155800405130812
1.1443232256174280526
1.1443696990781220268
1.1447470340059742178
1.1449006230862583955
1.1445086759923663866
1.1441556855603165488
1.144320207227552233
1.1448074072734379936
1.1451838025128959764
1.1452715163398852205
1.1450066490904096117
1.1443736402922208839
1.1434841851896186959
1.1428216996221765012
1.1428666403607732338
1.1434649901156563878
1.1440650469172843895
1.144427941110237823
1.1445561759648239519
1.1443863614115203919
1.1439151031174303874
1.1433924508901782691
1.1430311835065281034
1.1429257191392518944
1.1430320227230650332
1.1431995810767139332
1.1432131231434885521
1.1430104488247052608
1.1427653036823415267
1.1425627685685866286
1.1422953197458443064
1.141922645991203078
1.1417387249773998104
1.1420489850397876896
1.1427626528683272333
1.1434116181348668029
1.1435668741726885411
1.1431820115195783227
1.1425917535008860426
1.1422153029272374969
1.1421700818719879855
1.1422576928418655129
1.1422945581714869512
1.1422728770280707877
1.1421099600591173573
1.1416504200169379502
1.1409610621172714406
1.1404826472364042456
1.1407466974903592849
1.1418472430042028165
1.1431841145883356869
1.1439168378560029549
1.1437336547872680725
1.1430788642648406217
1.1426547139354750193
1.1427762261706093661
1.1431999275471182997
1.1434479221327256138
1.1432918044182338591
1.142901062792768041
1.1426211029459403257
1.1425846444499678789
1.1425893418092318843
1.1423770454444119871
1.1419509041386366466
1.1415969038380311407
1.1415403878455645525
1.1417733441093926849
1.1420908512216116915
1.1422868150772724771
1.1423425324507583412
1.1423732850058403443
1.1424531162695106268
1.1425041183544539791
1.1423653889554925556
1.1419039552299736773
1.1411977309094654132
1.1404836056064282523
1.1399983962385691338
1.1398031805859041299
1.1397671647441163234
1.1397338669205263617
1.1397027759426612281
1.1398167260841418624
1.140219948498282454
1.1408972432494224325
1.1416374038612087105
1.1421338601043042882
1.1422020349543375861
1.1418698564668083861
1.141341179023095842
1.1408348779382262439
1.1404689063867168297
1.1402366114463857727
1.1401134212243984045
1.1400951785526569626
1.1401834462060258524
1.1403341804247866254
1.140460507956721381
1.1404951758108656801
1.1404140273896412605
1.1402276984098800305
1.1399599473518893245
1.1396424747254911836
1.1393340854298830145
1.139106530656947891
1.139009849529918128
1.1390532891110711766
1.1392298184439983988
1.1395586625963036731
1.1400691531079261143
1.1407463113876934457
1.1415198843744382984
1.1423222114986355535
1.1431315014347716019
1.1439654594798263076
1.1448417768309637754
1.1457386346975140246
1.1465855658383572457
1.1472865158446572398
1.1477649212998850548
1.1480079634925233201
1.1480677393700104982
1.148025365511903928
1.1479524923898256628
1.1478884283730783622
1.1478434223308948692
1.1478073379027140533
1.1477578680580948767
1.1476713487408380931
1.1475355476775024322
1.147362712053492162
1.1471920067024039547
1.1470717594022281638
1.1470371297441046554
1.1470906681208636879
1.1471959782926188787
1.1472935809717195177
1.1473391724033044081
1.1473350791121328385
1.1473318890144237336
1.1473899079492846376
1.1475363562253306782
1.1477449057052093728
1.1479566803971998912
1.1481221297288348726
1.1482254499513566692
1.1482869112082045859
1.1483368064026695521
1.1483906267670271895
1.1484471624141792123
1.1484911465917670981
1.1485051397696584008
1.1484742379621395436
1.1483938636291235458
1.148260390383528895
1.1480832762457862106
1.1478886428569738953
1.1477167877929375095
1.1476061734120341917
1.1475709015044173178
1.1475919542388366423
1.1476316691036068107
1.1476553169061773918
1.1476447192661689556
1.1476085014276689034
1.147575435820406442
1.1475807483592739278
1.1476363566041614117
1.1477133644560570946
1.147748775790329967
1.1476796559563577915
1.1474866844134365973
1.1472100402270288821
1.1469222535808616392
1.14841330599798086
1.1483489209251993568
1.148392824284241831
1.1485432711923071469
1.1487570672700060381
1.1489698848310743173
1.149125288510663756
1.1492001096034074603
1.149211775149746817
1.1492018161842803003
1.1492067903240514859
1.1492357993924124937
1.1492674443300963105
1.1492655453664928356
1.1492006020352423246
1.1490642787461555763
1.1488713819776241731
1.1486508433687938613
1.1484337119769916224
1.1482461429860861823
1.1481091391959390435
1.1480393433963533845
1.1480446654921028227
1.1481177278734062686
1.148232502244382891
1.1483502526241431418
1.1484345173846695065
1.1484663734821465297
1.1484505722382902793
1.1484081820943237151
1.1483588711463470489
1.1483061956173274964
1.1482377196401645225
1.1481393182686834287
1.1480110780219610067
1.1478731373037467378
1.1477574991947971927
1.1476907770937037068
1.1476797088322405749
1.1477106693838083906
1.1477621729940223894
1.147820093341453962
1.1478837533361836432
1.1479591429280437964
1.1480466439154155545
1.1481350445772979807
1.1482063690101838027
1.1482483915251935347
1.1482658787740520623
1.1482815452811265811
1.1483265528714712289
1.1484248520004269878
1.1485804447567844466
1.148772972016801841
1.1489639448022685997
1.1491111232149309185
1.1491832693915264851
1.149169780229733373
1.1490811096832542759
1.148940124531837359
1.1487691322104698344
1.1485812344278998332
1.1483785195928122302
1.14815781464346367
1.1479215386958738776
1.1476848448456538065
1.1474761444723875492
1.1473290906680448931
1.147268583723967561
1.1472975735584409751
1.1473930468768054336
1.147513751566441087
1.1476162426301370623
1.1476695778038206175
1.1476622184708298313
1.1476002060182037834
1.1474995609741469593
1.1473779687166971719
1.1472493694560694788
1.1471251296134432618
1.1470164839884038344
1.1469333179685770041
1.146880069159966764
1.1468516739169341001
1.1468322274854909626
1.1468001188405487767
1.1467377315055347076
1.1466401935721148853
1.1465193639155246697
1.1464019025193807888
1.1463206072653715495
1.1463025250962866064
1.1463591457079573832
1.1464804724257289248
1.1466371025739798828
1.1467897232724819645
1.1469018027922222025
1.1469499381538548199
1.1469301558861857426
1.1468566688424612909
1.1467548293705798201
1.1466515128885725883
1.1465677554795297155
1.1465150868429012654
1.1464943846381816517
1.1464980241954405571
1.1465137732823482697
1.1465294275261201928
1.1465365386634445155
1.1465323725862353044
1.1465186073007409551
1.1464982105369287968
1.1464718374339697426
1.1464360525624246456
1.1463852546570481028
1.1463149994952654964
1.1462265275286023236
1.1461278407829427195
1.1460317857625759164
1.1459525203192313381
1.1459008369011731698
1.1458805342711249065
1.1458890657190099471
1.1459182361248525517
1.145958254632478468
1.1460008033386124282
1.1460399801746901094
1.1460730192676085171
1.146099033120141053
1.1461176465005940006
1.146127861395553893
1.1461286790554685577
1.146118834148047716
1.1460980695000315688
1.1460685119590368064
1.1460332999705531432
1.1459955500434602094
1.1459567015351266317
1.1459160374716792496
1.1458725629143020619
1.1458287006598721902
1.1457892200273562811
1.1457605408755329179
1.1457480814583131945
1.145753774238345235
1.1457738587044523637
1.1458004528106737752
1.1458258361778796974
1.1458474206574920107
1.145868920161649207
1.1458991077755789068
1.1459471255084145991
1.1460177014468577728
1.146108117190532516
1.1462092548137783332
1.146309981990785376
1.1464011650221102023
1.1464806315651023816
1.1465544613897131754
1.1466342734393295544
1.146732253986472827
1.1468551417683856553
1.1470007182948935842
1.1471574554265635548
1.1473092079588744774
1.1474393987841144948
1.1475373290816823779
1.1476005221790162025
1.147632991015632431
1.1476418080202781535
1.1476333202697541758
1.1476122638134336196
1.1475810632531213695
1.1475409522320412226
1.1474956541695038315
1.1474534879808171439
1.1474274184628636686
1.1474323713627534449
1.1474796324908906886
1.1475711692302952294
1.1476976299049816976
1.147840738333057109
1.1479767951508339507
1.1480825735224364781
1.1481419193390678402
1.1481497057940419637
1.1481109169471237497
1.1480368135551077824
1.1479420050022268729
1.1478394481047011766
1.1477381208088122122
1.147642111032649348
1.1475524610122456171
1.1474698295191836372
1.1473972946038684118
1.1473400510773856809
1.1473050903383963384
1.1473006188900138902
1.1473294750105065276
1.1473913902760783934
1.1474826415772017008
1.1475977757983000238
1.1477305930493781894
1.1478769240255555228
1.1480367340238804008
1.14821266084311846
1.1484064483044502669
1.148615566762762441
1.1488312232390218703
1.1490384496672381154
1.1492191397749869086
1.1493563849251622333
1.1494382924706227911
1.1494608965640542575
1.1494290968443827694
1.1493548635357331289
1.1492537076528828166
1.1491406870793405837
1.1490278255766981363
1.1489237281376047939
1.1488337629893150549
1.1487609541223184895
1.1487070135431414197
1.1486732402384680629
1.1486612546737207108
1.1486729596228286709
1.1487104074621492522
1.1487748781725066749
1.1488649055652744302
1.1489755072117890933
1.1490989010486460931
1.1492256804445362128
1.1493467723386967538
1.1494553140976311312
1.1495470371318374792
1.1496188083150538084
1.1496673078838588467
1.1496891402302926721
1.1496808600837151726
1.1496397133148141823
1.1495656020532076802
1.1494627494688487435
1.1493393264153526356
1.1492061684998653437
1.1490754295651808281
1.1489579322810246076
1.1488609718011224547
1.1487874515135445552
1.1487354563280129938
1.1486990427792747038
1.1486706742500956135
1.1486437955839647884
1.1486152648488845429
1.1485860378113179614
1.1514315156906684834
1.1471209190633169239
1.1443070891139577316
1.1457683509143263834
1.1489086119915488116
1.1499401596331528808
1.149072858753557913
1.1480092335162701556
1.1472638031052819763
1.1468750234176399161
1.1468013695812533381
1.1464551254183241724
1.1460827633996581998
1.1458657732366246407
1.1455794612827370216
1.1451312685924639467
1.1445863480002489432
1.1439394645198919243
1.1434715552784240344
1.1434739341334732021
1.1440138868873812594
1.1448317323524739297
1.1453603148069440021
1.1451403281852552407
1.1443188380216275934
1.1433402579306239932
1.1426277923417931248
1.1424942695795625713
1.1429002973168673751
1.1435578744871097712
1.1442154608400012528
1.1445273886196716262
1.1442803631100992856
1.1437627876865279486
1.1434420852938371738
1.1433499155708968242
1.1432578926948662179
1.143222507049738601
1.1432529165493141576
1.1431650002653488407
1.1429156435010667803
1.1426612449127087068
1.1424944858472245723
1.1422125783271097621
1.1417761095394409754
1.1415570487904760366
1.1418545899333638616
1.1425022079500128935
1.1430239344813566404
1.1430320686801911378
1.1425060634562935746
1.1418082817986257016
1.1414131960622451167
1.141504080113195263
1.141804199142739451
1.1420340608383621195
1.1420618114018736833
1.1418536538518357926
1.1413882569142241863
1.1408264499269109571
1.1405090647443052454
1.1408239651482721122
1.1417923799743017188
1.142917980017089441
1.1435140079389769507
1.143333732770541733
1.1427433624095491016
1.1423323795605810904
1.1424067226729333058
1.1427839195505702374
1.1430480809692296074
1.1429575387793520225
1.1426337996719280188
1.142367056524261848
1.1422757643065886146
1.1422113720811333248
1.1420295913461326887
1.1417800009828058538
1.1416047692658493062
1.1415981386956097765
1.1417366626874068114
1.141903709952578172
1.1420013828170396675
1.1420424249906726555
1.1420961263487325876
1.1422034303000958566
1.1422909971975647725
1.1421786642072082607
1.1417609518274283165
1.1411224980725054312
1.1404837264909055694
1.1400476663280230127
1.1398690462920568756
1.1398345766816972979
1.1398086930934641092
1.1397719106006127809
1.1398291260331594454
1.1401322346765274673
1.1407221705711014792
1.1414415662181733868
1.1419851189827696647
1.1421094707309658034
1.1417978046511492174
1.1412512518795960847
1.1407068001061200224
1.140294554537130356
1.1400270940326893143
1.1398873675985978782
1.1398883133038169024
1.1400197433150591753
1.140209134782670386
1.1403554415461070182
1.1403928049108533749
1.1403198764166408985
1.1401693952459961423
1.139967490129158989
1.1397095509727368512
1.139399477036056707
1.1390924256382812807
1.1388791616656168681
1.1388344800710803462
1.1389952276792254526
1.1393754547492931373
1.1399705493667424694
1.1407332860928198759
1.1415755159853315792
1.1424186938196481123
1.1432349770566534453
1.1440394672857217007
1.1448583743785751832
1.1456876833177083164
1.1464758834934938303
1.147140146411940842
1.147610078377730547
1.1478675045522810372
1.1479585927058570949
1.1479580845794725708
1.1479306334661327771
1.1479106215720942252
1.1478992776038108303
1.1478804063352450182
1.1478390361262669206
1.1477655827547035283
1.1476539713573652435
1.1475036700849825522
1.1473254403306347715
1.1471445045683716923
1.1470027001017628621
1.1469383493481146719
1.1469572155596465812
1.1470234479012382245
1.1470933442915633993
1.1471540545783851517
1.1472362719562665401
1.1473816533451071109
1.1476002767753481493
1.1478525264270662554
1.1480678739888223738
1.1481995964922342424
1.1482517836358763219
1.1482675136229898438
1.1483025979531131799
1.148381043505676713
1.148490619767597698
1.1485949596859688082
1.1486533137656467218
1.1486360184691883912
1.1485312674629017948
1.1483565040777168331
1.1481476351260542224
1.1479514215340029804
1.1478192433063287847
1.147777022873434305
1.147811278773531285
1.1478804724656113123
1.1479418366298952403
1.1479675817512264846
1.1479586448686096567
1.1479351092418770275
1.1479242875152060321
1.1479459281800779014
1.1479981059349475547
1.148048222816052677
1.148035870155347471
1.147905237518547672
1.1476468490884019769
1.1473106253532494581
1.1469792290732117035
1.1467235182691051243
1.1484190484369425356
1.1483111729390984568
1.148269110822456307
1.1483242519944700799
1.1484763395292982846
1.1486893088983476385
1.1489059729928623454
1.1490725679891884425
1.1491605603858394691
1.1491761594447396089
1.1491522532766087483
1.1491266196344636086
1.1491192679080901584
1.149123788445494565
1.1491165442510675732
1.149072665707618901
1.1489773120186690392
1.1488299475419667672
1.1486440060077667269
1.1484422918461356655
1.1482516348963327513
1.1481000749121987869
1.1480140183269340604
1.1480115850194583249
1.1480928172574158541
1.148233366929328314
1.1483884922248370763
1.1485095570288987865
1.1485647977575927925
1.148551362079879512
1.1484911628985752241
1.1484141348438747787
1.1483409126993544547
1.1482750727408050917
1.1482077834006874095
1.1481300688505668983
1.1480430760944464463
1.1479589546900095254
1.1478936767261220808
1.1478576978885708382
1.1478525491423221538
1.1478753809025186161
1.1479253485336604612
1.1480039713520207023
1.1481082821843360264
1.1482256853585024459
1.1483353679294845406
1.1484176648159143408
1.1484654224898638297
1.1484898159056804445
1.1485170571433096498
1.1485759152154295659
1.1486846613475318879
1.1488431041167370683
1.1490317871672397487
1.1492186821021297405
1.1493691302044823921
1.1494571314404358198
1.1494726342164587329
1.1494218867138075169
1.1493204148087095007
1.149182477725681828
1.1490136040245750859
1.1488113687498682225
1.1485737458323306281
1.148308594256008508
1.1480398789436219165
1.1478048721064968429
1.1476418538903916389
1.1475740451170628464
1.1475990261728368225
1.147687148815844882
1.1477919236697833316
1.1478686822837953496
1.1478900072380719966
1.1478513757328974165
1.1477664836908294532
1.1476549129335855692
1.1475332377744402734
1.147412520263199065
1.1473005065732788665
1.1472047316622135948
1.1471327664726131967
1.1470882257130790016
1.1470652424069014419
1.1470464660843835425
1.1470088442039536591
1.1469344184160239486
1.1468199515738926042
1.1466810240053051384
1.1465483338451825102
1.1464564761837938711
1.14643029538721275
1.1464758298504549305
1.1465786805840167961
1.1467090766155338954
1.1468324636284294993
1.1469203701223047442
1.1469574000969822158
1.1469432687346710065
1.1468906249490011806
1.1468186727639599898
1.1467467011911358643
1.1466893011485603804
1.1466539921779377309
1.1466405122151503981
1.1466417911145421193
1.1466475002929641391
1.1466479379059675292
1.1466372098547295
1.1466139250989937359
1.1465801374175064176
1.1465383007930340931
1.146488814123785227
1.1464297895160062701
1.1463579092329441167
1.1462724483779216378
1.1461779114239123434
1.1460835331079877175
1.1460005278023090991
1.1459383497311446121
1.1459006828977253978
1.1458845723836392771
1.14588266387537141
1.1458872695640096584
1.1458939947991295671
1.145903167843050241
1.1459174597581376354
1.1459402524209787444
1.1459719936114836081
1.1460091331358985833
1.14604418724767676
1.1460680848085949002
1.1460739014915521938
1.1460589190526579983
1.1460250355347978424
1.1459781505992430173
1.1459252130583532647
1.1458717093303956158
1.1458203724466569096
1.1457725441457702331
1.1457297790609621835
1.1456944814581235814
1.1456695413659530036
1.1456570208598866323
1.1456566331907496181
1.1456646133248076236
1.145675945185481881
1.145686818239527005
1.1456976034641948026
1.1457142532125041967
1.1457465656374239416
1.1458041617008383195
1.1458914918580993536
1.1460045194145564995
1.1461312077059622183
1.1462556059286834742
1.1463646585917501852
1.1464526125689802338
1.1465224535712683629
1.146584968611559896
1.1466531476656480759
1.1467374387093940413
1.1468420010693485267
1.1469619880735431039
1.1470860993889431256
1.1472010121096161139
1.1472954650995466075
1.1473632668317979011
1.1474033174487441311
1.1474195480458542207
1.1474178435413728838
1.1474032356949943612
1.1473798953811169543
1.1473526160796847506
1.147327730479348995
1.1473134619164959691
1.1473200124812923395
1.1473576662991245012
1.1474319813891873387
1.1475396798942318899
1.1476678477196409212
1.1477970857852028974
1.1479068260141607194
1.1479795069897718029
1.1480054084185966623
1.1479856617069259528
1.1479306599847163284
1.1478546835306306928
1.1477710599116626167
1.1476892918380692254
1.1476133856549444179
1.1475426724649568921
1.1474737132231211945
1.1474045904789358374
1.1473387485841870514
1.1472838267810612223
1.1472506372405315567
1.1472492427876335164
1.1472864349207849699
1.1473621610750655009
1.1474706021734342176
1.1476039259629169376
1.1477549458004037142
1.1479170926096260441
1.1480879687380840526
1.1482698987562216519
1.1484657139957488159
1.1486737948876113435
1.1488855114184104433
1.1490855649775735259
1.1492551893655309492
1.14937708759221624
1.1494399155063241835
1.1494409591839791496
1.1493866745711009969
1.1492914915418650512
1.1491745435545628329
1.1490548321209199667
1.1489461065292343456
1.1488544611775073356
1.1487802509146023411
1.1487217875500157493
1.1486781953901119557
1.1486503309242552806
1.1486406329857439257
1.148652211952794655
1.1486874668384381426
1.1487474762623888225
1.1488311343020531918
1.1489341259213681212
1.1490497591036281655
1.1491704459972207353
1.1492886161078741392
1.1493976137768016077
1.1494925999650928983
1.1495704323132449609
1.1496277154901397566
1.1496596898633058004
1.1496610640875606357
1.1496274468849210226
1.1495573647404442319
1.1494543574594198176
1.1493273806399224579
1.149188652803288635
1.1490510980978869693
1.1489262400491824234
1.1488217352429035412
1.1487399900480210757
1.1486788934386951144
1.148633486740686882
1.148598053347614556
1.1485677445000637142
1.1485397560306642717
1.1485141813704438096
1.1463787927848441139
1.1470953660584559675
1.1460153830529882235
1.1462202807519172865
1.1466226039556151051
1.147269190120011384
1.1482780591982391094
1.1481705624670643928
1.1470475397189356936
1.1462103029301033974
1.1460472507311703083
1.1462190241475334052
1.1465274766295274755
1.1465675425139691956
1.1458571727107080829
1.144709143288148212
1.143630600925721108
1.1428959451960016835
1.1425854899871781267
1.142683369415165906
1.1433207808372654046
1.144388977822744069
1.1451825344577200028
1.1449790639139090231
1.1440184029333100302
1.1430618168061676965
1.1425249357212006185
1.1424774891211009198
1.1428170798189636326
1.1434412144643459897
1.1442215263889525811
1.1446715269057774478
1.1444435629848781488
1.1439640328901923283
1.1437761237046981666
1.1437318329323828969
1.1435419126961108294
1.1433575193764109468
1.1433296263286600869
1.1432108702101979603
1.1428122161533968981
1.1423825823921283096
1.1420899360691600943
1.1418044123358339625
1.1414691746873126821
1.1413330288058440853
1.1416195890923748202
1.142147105794118378
1.1424612337525594796
1.1422587931911878378
1.1416398089058796828
1.1410362697015086209
1.1408505903326557895
1.1410943871497312152
1.1415072893942199705
1.1417904397912252978
1.1418030321573147123
1.1415818146687908285
1.1411942011843811962
1.1407989464881802544
1.1406560936883878288
1.1409734491564780257
1.1417330449674238935
1.1425638643687121565
1.1429780673616463105
1.1427869794417568894
1.1422697692896641719
1.141905651024342383
1.1419685967089832079
1.1423331345051619401
1.1426523268267427813
1.1427065967100693555
1.1425185731355278485
1.1422570816072752375
1.1420193657164092738
1.1418398648797651873
1.1417094382227579441
1.1416488620668143739
1.1416093856576139398
1.1415815307368881726
1.1415709973354253304
1.1416177849617781259
1.1417231214531462502
1.1418324476343686413
1.1419289076016636564
1.1420161595451121528
1.1420389795817771361
1.1418913420787832891
1.1415174248243262767
1.1409748303979310169
1.1404211596412290319
1.1400111069693847909
1.1398047244728619631
1.1397631334884037457
1.1397877222320058621
1.1398362699242390317
1.1399363271552178656
1.1401918979563787637
1.140680772851875302
1.1412974888136222518
1.1417745706320130417
1.1418832283745374845
1.1415924940813955146
1.1410722401909538792
1.1405208450448718338
1.1400656906037953675
1.1397588648455116989
1.1396304328285538077
1.1396872728362819061
1.1398903184542570344
1.1401461440692945981
1.1403502381657726339
1.1404314775458590514
1.1403844456146858821
1.1402485516855294101
1.1400496213533426459
1.1397837387368698892
1.139451231969596412
1.1391116028917636083
1.1388723620086931287
1.1388339471247170831
1.1390384265651476436
1.1394710952974913543
1.1400953883056019755
1.1408630796068006674
1.1417147176341764236
1.1425945247580089337
1.1434648175213810717
1.1443102478755040607
1.145127152650966762
1.1459012845444307427
1.1465971551493998604
1.1471618691773979304
1.1475558100556673136
1.1477778842166930229
1.1478672989237899138
1.1478830066649627906
1.1478761938869739279
1.1478719443741991491
1.1478707753839267891
1.1478669685093036978
1.1478582509235955023
1.1478413985519615448
1.1477978352702784548
1.147693093186957114
1.1475057430609663101
1.147259827970037005
1.1470263014458934592
1.1468808606049722965
1.1468498134405156197
1.1468990829227854178
1.1469768101773070157
1.1470647922873362656
1.1471868968263181365
1.1473724155919127199
1.1476114876152145872
1.147848784235182551
1.1480214104305794809
1.1481032187320845406
1.1481208833319529461
1.1481324485793329426
1.1481955004673514154
1.1483305409048747414
1.1485082316408847802
1.1486756881134791985
1.1487788849975095751
1.1487782817667739899
1.1486694702668380774
1.1484776323438727896
1.1482550016812507199
1.1480701386496510175
1.147978373767716942
1.1479936221560420595
1.148083367277961564
1.1481935323912189073
1.1482778249486160771
1.1483201939877554221
1.1483324144574120762
1.1483407054906429323
1.1483590313438925001
1.1483835408156837232
1.1483950667873421558
1.1483636000556260992
1.1482555046387210584
1.1480474523881558646
1.1477459565080574411
1.1473980485679902142
1.1470756185681654227
1.1468381989192235615
1.1482985427430754122
1.1482479294854328611
1.1482513376324403609
1.1483197070382762384
1.1484501342973958415
1.1486207703768596122
1.1487971154097638138
1.1489431217436367749
1.149032650636093722
1.1490583706633361594
1.149033662849594517
1.1489853072769620201
1.1489385489489776226
1.1489053631678856071
1.148883016069636831
1.148858650009332516
1.1488145382068670752
1.1487347077899701109
1.148612028630997095
1.1484530312731680013
1.1482790647699314679
1.1481227636694124605
1.1480212271486736064
1.1480047086637878984
1.1480834004707460849
1.1482382757327527223
1.1484231371607023231
1.1485809353532367982
1.1486660978750851125
1.1486623061654774869
1.1485868607798301877
1.1484788482086978334
1.148376921507848758
1.1483018205943829049
1.1482518294096750733
1.1482115140536801601
1.1481656896948750912
1.1481087964715628313
1.1480461509139878729
1.1479905150695328686
1.1479570889067289841
1.1479592155338553816
1.1480062715226098113
1.148099743045561949
1.1482289174997803993
1.1483708626198809721
1.1484985867482133681
1.1485937309228861913
1.1486549899897626759
1.1486979617827428601
1.1487478356565479221
1.1488283411464805805
1.1489513489791347567
1.1491122776302780117
1.1492927523248253063
1.1494664003262193841
1.149607214713872505
1.1496959571222264973
1.1497244342206660583
1.1496959602170497838
1.1496203023943700749
1.1495056809241990248
1.1493539830508507915
1.1491622285630105349
1.1489298325190788752
1.1486686190858335088
1.1484065541099586216
1.1481813018872379928
1.1480280549036532278
1.1479649766391315513
1.14798308835503593
1.1480477136373448133
1.1481125898009945097
1.1481388971321888626
1.1481083720070750509
1.1480259513420587592
1.1479118110031287792
1.1477877306630996923
1.1476678743251669257
1.1475583421114312621
1.1474617425123088132
1.147382338351500275
1.1473259751823523533
1.1472943493996452524
1.1472791360250029769
1.1472613534822995174
1.1472174372324372982
1.147131018673035685
1.1470027376615492543
1.1468523237322858499
1.146712355188714394
1.1466150834565480565
1.1465799392417219682
1.1466066457630252895
1.1466776453503593203
1.1467654459816361001
1.1468434566814609266
1.1468940206189099928
1.1469114810799678761
1.1468999895134794897
1.146870192407710487
1.1468347782833416826
1.1468043325874104355
1.1467848289414077634
1.1467772552082240445
1.1467784935798626123
1.1467818618100120709
1.1467799270832024217
1.1467671547452169545
1.146741523235431659
1.1467034694283160245
1.14665390328816863
1.1465923623243958751
1.1465167644046585504
1.1464259906065252803
1.1463219225888987562
1.1462114915107826096
1.1461060048584643667
1.1460184549656209363
1.1459587899665648614
1.1459293185160961404
1.1459228174708733228
1.1459258656188502368
1.1459251950846789381
1.1459132170478796287
1.1458920105313445958
1.1458708424356904843
1.1458608138431047863
1.1458694748773310401
1.1458971295610826946
1.1459363178216892543
1.1459744087525325362
1.1459980643504228404
1.1459990433578139957
1.1459758372120114611
1.1459330310271347297
1.1458789058730451949
1.1458229362345995206
1.145771818033034295
1.1457284873482049825
1.1456924267415891094
1.1456614366319985976
1.1456348716805024868
1.1456138222964593609
1.145599670492263078
1.1455923709846527192
1.1455900579988844701
1.1455905466792970504
1.1455927457813892545
1.1455986811028033845
1.1456145952294096713
1.1456496763138321882
1.1457130959021348815
1.145809739503745428
1.1459367223325889196
1.1460821362168820414
1.146227926373849515
1.1463567766842908124
1.1464575854656198217
1.146528040727237796
1.1465747133398680457
1.1466098938372990546
1.1466476563225103114
1.1466982121680922013
1.1467653616574569053
1.1468450964887610954
1.1469288651434830228
1.1470063057222863456
1.147069435531210102
1.14711388219239252
1.1471399975663352233
1.1471512725609107619
1.1471529271801703675
1.1471516182871237532
1.1471536106567223889
1.1471654796944608101
1.1471936663561994596
1.1472431543308951873
1.1473161909514957291
1.1474113923858957342
1.147521227486191453
1.1476322630656330404
1.1477280878965496758
1.1477947851355034814
1.1478245420272505939
1.147816604575676136
1.1477780520303859646
1.147722039764838442
1.1476623339226581511
1.1476083594370651841
1.1475629359708190425
1.1475228495082414604
1.1474817517239346287
1.1474338549167308887
1.1473770073363454003
1.1473155294107655333
1.1472623010726397119
1.1472320849482835481
1.1472379522203137725
1.1472868552546839904
1.1473796538778278098
1.1475076848419232256
1.1476572116667496104
1.1478188909194531053
1.1479875724760277844
1.1481596399535252129
1.1483354922919981611
1.1485179655562895995
1.1487069724873320009
1.1488955240392637602
1.1490695800156587314
1.1492114715636567723
1.149305264089474532
1.149341624739328438
1.149320241883606375
1.1492504596364416791
1.1491495497169395001
1.1490377381238321419
1.1489329747648704405
1.1488471200899628144
1.1487836977075813749
1.1487387052467477044
1.1487048907768526718
1.1486773990409089308
1.1486566679773397848
1.1486473832583183885
1.148655606536371554
1.1486858431447257711
1.148739125873250444
1.1488131456700043653
1.1489030510738380553
1.1490023735195402654
1.1491048155550673826
1.1492053514254130242
1.1492999236150107656
1.1493845336017707304
1.1494550473097941978
1.1495072323750306076
1.1495362664003601072
1.1495372231510847527
1.1495067176484548011
1.1494442514325351468
1.1493531483603529608
1.1492410069607801315
1.1491185204470537595
1.1489966975203984578
1.1488845179190767531
1.1487878190271543222
1.1487086932978569642
1.1486457512038503737
1.1485952838714499347
1.1485531390736503088
1.1485166305909642048
1.1484854615783715026
1.148461364779840288
1.148446999925619938
1.150887062160774299
1.1465176489276718286
1.1454408260816104637
1.1464940322963139696
1.1463522363713083418
1.1465448263308002375
1.1470024886208967096
1.1467853700584700327