/*--------------------------------*- C++ -*----------------------------------*\
  =========                 |
  \\      /  F ield         | OpenFOAM: The Open Source CFD Toolbox
   \\    /   O peration     | Website:  https://openfoam.org
    \\  /    A nd           | Version:  12
     \\/     M anipulation  |
\*---------------------------------------------------------------------------*/
FoamFile
{
    format      ascii;
    class       volScalarField;
    location    "0.00542";
    object      T;
}
// * * * * * * * * * * * * * * * * * * * * * * * * * * * * * * * * * * * * * //

dimensions      [0 0 0 1 0 0 0];

internalField   nonuniform List<scalar> 
75962
(
299.98909357958382316
300.39938478601965244
300.59502128988606273
300.45173388615285148
300.43775171467780183
300.41792224592148841
300.43347522945731498
300.61071306080106069
300.73094912908572951
300.73723339200836335
300.69894252195791751
300.59870925500234762
300.40160390258864709
300.19426493177684279
300.08816231943296771
300.15177227864563747
300.34121747180029161
300.53862724204577717
300.69790712720555348
300.80802933813305344
300.8480219267256075
300.81826891970399629
300.77289366768377477
300.77428624052873829
300.84350200152226762
300.94264242394297071
301.02575541018717331
301.06063295767694399
301.01235777482895628
300.87531781829642341
300.71576309217635981
300.61625360001937679
300.60668871528127966
300.668097449867048
300.7686985878299879
300.86170338547384517
300.90610995088201207
300.88477458235058748
300.81413755205505822
300.73538629059481764
300.7071239945012735
300.77703936329982071
300.92333253633353252
301.05205116099841689
301.06674641533356862
300.95231003499100098
300.77388642099640492
300.62121825609943926
300.55711307733645299
300.59501004920673495
300.69746583872881729
300.79628770517018665
300.82885886631720496
300.76544605779815811
300.63240089135433664
300.51472693067802311
300.50771507920512704
300.6297787247158908
300.80346451040907141
300.92182939710301071
300.93446261595914848
300.87432091758716979
300.80908452019826882
300.77205621401395774
300.75136418935267102
300.73234234055678371
300.72326318067564443
300.73874002076087208
300.77319408931356293
300.80230628033098128
300.80694259315333738
300.79720910454273053
300.80502029072221148
300.85376509747209184
300.92735233233509007
300.97571789263474784
300.96004017531009822
300.89037726402796125
300.81872532109895246
300.78657930633011119
300.79475225516642922
300.80710085506370888
300.7829832541112296
300.71297003924746605
300.62213521649482573
300.54794446551608189
300.51526120990274649
300.52896185285635511
300.5770806947933238
300.65042758467575368
300.74393285128002162
300.84903139737417632
300.94303696379824942
300.99185894149019305
300.96853610657888112
300.87203042360204108
300.7265719372758781
300.56879422616083275
300.4314783276183789
300.3349702355016575
300.28694340431474075
300.29241381506204789
300.35420084410714026
300.46838438019966588
300.61474659615612381
300.75659093131650934
300.85116621018619298
300.87133186256562567
300.81514435194162616
300.70354657392897479
300.5684457176451474
300.44259989045616521
300.35548344084162409
300.32769681816887442
300.36620636787989724
300.46217247599088296
300.59364666824575352
300.73322182933816293
300.85348092478119497
300.93003749339197839
300.94440368491854088
300.88862516737577835
300.76895894692017919
300.60122913738820216
300.40128037439939135
300.1804370221199747
299.94935163841739723
299.7213642623026999
299.51132833192298222
299.33129504763678597
299.18624166634100447
299.0730225763411454
298.98285863386018946
298.9063757863311821
298.83869076921223495
298.77999969604530861
298.73236836964207441
298.69652503936390531
298.67053239192523506
298.65113136880103184
298.63513757415159944
298.62003842211873916
298.60424692617283426
298.58735686206870241
298.57067771694011071
298.55721774397471791
298.55008241398684277
298.55078395995951723
298.55794117820715883
298.56716680926029994
298.57291130001613055
298.57222515917345618
298.56744124662060358
298.56564029389727466
298.5740419587634733
298.59528459115426813
298.62542220011454219
298.65654670377813318
298.68170407611773953
298.69787133500415166
298.70645731928647137
298.71069033492005929
298.71296818551320484
298.71453396306401373
298.7154294886335606
298.71530966187339118
298.71351849067809781
298.70969455854390162
298.70282464365072883
298.69277688872398357
298.68104108071270275
298.67076395701099045
298.66525228953020132
298.66564171164043273
298.66994258801616979
298.67453211933411694
298.67636814712437854
298.67429931994337267
298.67001227100587357
298.66721189441938122
298.67012230019383878
298.68034794737513948
298.69502794663867462
298.70753723432824245
298.71105290693333245
298.70315335996315298
298.68755681036918759
298.67133749533098808
298.93034115893419767
298.92345151090319177
298.92791274513672306
298.94346470468570942
298.96556634017565557
298.98756082545992285
299.00366186117435063
299.01151051760029986
299.01288135840530913
299.01198884123903099
299.01254613711847696
299.01550223366245973
299.01872785168552582
299.01857608966730595
299.01202140993211742
298.99812572615303452
298.97828596324558248
298.95538653756779013
298.93262285428818359
298.91278233109500206
298.89816864605154478
298.89062125131215453
298.89101915255929498
298.89859630770598642
298.91061019758024031
298.9229810496041182
298.931866357975764
298.93525690940009554
298.93361911880128901
298.92912955345695991
298.92382629340539779
298.9180749072588128
298.91059185302304968
298.8999480852016859
298.88622409630318089
298.87159778442907054
298.85946036045606888
298.85258905276475616
298.85162468919492085
298.85503797363935519
298.8604774870818801
298.86640950580107301
298.87278055475547944
298.88030454735314834
298.88914638633309551
298.89824854826753153
298.90579224807237324
298.91048576666031522
298.91275748055159056
298.91489222450235275
298.92007588124835138
298.93077662251772608
298.94740353182248782
298.96782079438287383
298.98797617385093872
299.0034015565485106
299.01077908908160907
299.00898547115662041
298.99916078657133767
298.98380038357493049
298.96536315989044397
298.94532145848876326
298.92393608229775737
298.90085587460401939
298.87628010861209304
298.85173754229646192
298.83016250109727707
298.81505776879009773
298.80901653685015162
298.81232962901771089
298.82256165464946207
298.83537103589725348
298.84620315166671389
298.8518267884151669
298.85104165237345342
298.84447646013973099
298.83379635732433144
298.82084793974144077
298.80710590209724842
298.79379697584823816
298.7821382277618909
298.77318301191087357
298.76737693765136328
298.76414228737405665
298.76177246137797283
298.75800297724322263
298.75103707462517377
298.74044360682466959
298.72753794078869305
298.71514762502636131
298.70669390374018803
298.70496447301900389
298.71111876199967128
298.724087293229843
298.74078838392966873
298.75710727875684825
298.76920682178075594
298.77460128041451526
298.77282553853689251
298.76532469944447712
298.75473034727792765
298.74386041801193414
298.73494543320282446
298.72923768466688443
298.72687988340493348
298.72711780595079745
298.72870128893697483
298.73036413159275071
298.73121113401964521
298.73092530383473786
298.72963692546306902
298.72760755347991335
298.72486578932489465
298.72103182094190288
298.71552165770850706
298.70789372938816086
298.69832001778121366
298.68769039553603761
298.67740300300329181
298.66898073292492199
298.66357766355105241
298.6615923058427029
298.6627332151660994
298.66609475736140666
298.67059187453111235
298.67529332631255556
298.67953981825644405
298.68303400050780283
298.68570618528332261
298.68756004592961517
298.68852756801379655
298.6885166464089707
298.68738216944689157
298.6850680165937888
298.68177261182898974
298.67782546171008562
298.67358618457416242
298.66926788184065344
298.66486452500186033
298.66032213729295108
298.65590458453436895
298.65207130170438177
298.64941474409471311
298.64840874913500102
298.64917733021434287
298.65128317853987028
298.65390510613548258
298.65628509586491646
298.6582339953941414
298.66022742916931065
298.66325233219095026
298.66829407274462937
298.67582782940581865
298.68551218910710077
298.69631642465543564
298.70700306234107302
298.71656529304829064
298.72475804479944372
298.7322385615138387
298.74027851197041628
298.75022836016148631
298.76287062563096697
298.77803721532819736
298.79455429414144874
298.81072778187677841
298.8247797277865061
298.83551530271535057
298.84258843596728639
298.84633421826458743
298.84742922537151344
298.84650934463144267
298.84408439313278905
298.8404595378675026
298.83583962811104584
298.83070019053900523
298.82599080975967354
298.82312501550450179
298.82369167586165304
298.82886617309691246
298.83881727591324307
298.85250651881534623
298.86795112852564671
298.88260353794527191
298.89397972504889367
298.90035736523543619
298.90119167230932362
298.89701370982061235
298.88902445080617554
298.87878770199142764
298.86770170081427977
298.85675208311971573
298.8464123970176729
298.83683438755787165
298.82811918989523292
298.82060094599290778
298.81481295203838044
298.81144823880930517
298.8113197363402378
298.81466589858729321
298.82141306809108983
298.8311442980875654
298.84328823516761986
298.85722135764075347
298.87255049306054389
298.88932151933840942
298.90785199702452246
298.92834648965697397
298.95053949528585235
298.97349112332005916
298.99560560328035308
299.0149620362353744
299.02977649034988872
299.03879854232116031
299.04160417480187562
299.03868123206711971
299.03123533353050334
299.02082574437912399
299.00896393814991825
298.99686651565383499
298.98543604245713823
298.9752890295267207
298.96684327791427904
298.96040615960129117
298.9562397581793789
298.95460665402470113
298.95574365286671537
298.95984130718028382
298.96695498637268429
298.97682151862829869
298.98880839975350909
299.0020147178383354
299.01541334200663869
299.02806226564615599
299.03929033019295503
299.04871420667438997
299.05606194471340586
299.06102042344889469
299.06324399758273103
299.06236500237054088
299.05808525401698716
299.05038990597984139
299.03972252280601651
299.02694058253052845
299.01317644980878185
298.99968622624601267
298.98757007558822352
298.9775405798757788
298.96985026683842079
298.96425262829683334
298.96011526341516173
298.95666754113591423
298.95328001883962088
298.94970597633789566
298.94610823084161666
300.49127777008021667
300.52961084148859072
300.43874508701753712
300.50375578921216402
300.5577150317046744
300.50333388064001383
300.52368791705742979
300.66259569278929575
300.76195142521049775
300.76697016827426978
300.74103954567277697
300.66138474325344987
300.52738203882177004
300.35829603415686506
300.21389379611872528
300.18821555439882331
300.30890980318866923
300.49038145670260747
300.64333291712597429
300.72639651928079729
300.7495117137623879
300.74627234832206568
300.74232432836242879
300.75847112076985468
300.82393588847918409
300.92909893075437822
301.01995559693790483
301.04594915348371842
300.98117056452872475
300.84512237261543532
300.70455148594373895
300.61167312410719887
300.58784321923417338
300.64877221450626621
300.78371427635187274
300.91947481428024957
300.97180751321224079
300.92939361944502252
300.82697461978909814
300.71535884710561959
300.66315051056653829
300.72250709009188085
300.87457752367578223
301.01247147354945355
301.03390757817197709
300.92577653900065116
300.74884897736865241
300.58613945107452992
300.50571858809917103
300.53301422140953036
300.63728918253218581
300.74898191754004984
300.79870621434059785
300.75003690216271934
300.61623758425071173
300.48191624291769131
300.44751281137649812
300.55140780904645226
300.73269439289612137
300.88564506793449027
300.9364055114688199
300.89315138279340545
300.81323546484503595
300.74573316901251019
300.70402593674720038
300.68795345866772095
300.69890283991668412
300.73354682271906313
300.77581493542714952
300.80122847557083787
300.79759124883685217
300.78013816671625591
300.78275611709892701
300.82566598498181065
300.88870191071129057
300.92296455390788879
300.89933295624041421
300.83456479021157293
300.77046020591774322
300.7401239254952543
300.74638851646437843
300.76261721199477961
300.7560767391751142
300.71405123889093147
300.64874242464702547
300.58768019081719558
300.5538455698957705
300.5524019463380796
300.579329722478235
300.63131269563876913
300.70567572447436078
300.79384511165199001
300.87605797020262344
300.92318876323713539
300.91172202039433614
300.8368140303398377
300.71394174850343006
300.57396216789317123
300.44907060153769862
300.36092990162040905
300.31632020619468904
300.31609015420877995
300.36231220856984692
300.45534385852789683
300.58092564041550077
300.70657607794396426
300.79278451316031351
300.81248727943579979
300.7635174294485978
300.66343098363466879
300.5397661481264322
300.42353231721176599
300.34454786036457108
300.32555937498489129
300.37495042568252757
300.48334084038356195
300.62520831934506305
300.76874148455817704
300.88635432578547579
300.95836245272977294
300.97158788189631196
300.91951023924667652
300.80457716080519504
300.63750864190325274
300.43204922337895368
300.20145267424595659
299.96000557322076929
299.7242918448389446
299.51052397212311007
299.33068994618218994
299.1887079902622304
299.07969963206920738
298.99297924507504831
298.91783020470160182
298.84847125652038358
298.7856435199543057
298.73286484938074636
298.69243372214327792
298.66367530613314329
298.64322089212532774
298.62717358448924188
298.61315897384275786
298.60033791284206472
298.58845200915902751
298.57731953571521899
298.56706373429909718
298.55849234000089609
298.55370944171500014
298.55453156870765952
298.55993431374105285
298.56546475769408744
298.5669748030272217
298.5646246190316333
298.56386798125453197
298.57144823792884836
298.59029371941448971
298.61718315196611684
298.6445769523047602
298.66651102027140041
298.68175843862445618
298.69295992773021453
298.70430344251434462
298.71727913880602046
298.73050774301242427
298.74103879011028084
298.74603279614478879
298.74383234615936544
298.73416094729839187
298.71911938980593959
298.70213364884330076
298.68739000777225101
298.67944311388691858
298.68022295866558125
298.68768871987219882
298.69713639177717823
298.70411677086212876
298.70613928077909804
298.70402365420096658
298.70072961721257343
298.69994700006384392
298.70443494930208317
298.71446792445010487
298.7268391030344219
298.73512929561275087
298.73312341584022533
298.71928047986256161
298.69823546141554971
298.67811282660602501
298.66586079949553323
298.93175674064661962
298.92045125375824455
298.91598547842858125
298.9215624335075745
298.93708587849647529
298.95880232522802089
298.98086160834691327
298.9978187163432608
299.0068036919245742
299.00844783024342632
299.00607074984077371
299.00350436301596346
299.00281447496024612
299.00340173390691234
299.00288703520999434
298.99868962768840674
298.98916371563825578
298.97409164092738365
298.9547474584281872
298.93349047386976736
298.9132117110630702
298.89698588171881966
298.8877010049888554
298.88731545680485624
298.89582853390567152
298.91064271335505964
298.92700851199521139
298.93977351899229689
298.94556847749385042
298.9440713135952592
298.93757146230655053
298.9292153240536436
298.92118951458496667
298.91390698837352602
298.90649497960987446
298.898077015737897
298.88883191771037673
298.88005969631427661
298.87340830392059843
298.8698924861534465
298.86956003601233078
298.87201096271206779
298.87711160794322041
298.88505783988898656
298.89564714268556145
298.90770042113445015
298.91915650795596093
298.92800949516970377
298.93348140194285634
298.93664480396512317
298.94011753607730952
298.94680023945545599
298.95853922160830507
298.97530109870967863
298.99506916070907891
299.01451798763417855
299.03003592912551767
299.03891167860552969
299.04011545073524303
299.03435297833891582
299.02333050390518565
299.00862462285903121
298.990863265734788
298.9697815664629843
298.94510261731988976
298.91756335790165622
298.88960789460219303
298.86511917459944243
298.84812823210410215
298.84110526463734914
298.84382118765017822
298.85316782987513307
298.86425424191543243
298.87237607195226019
298.87464154623933155
298.87056608198236063
298.86158319479170586
298.849752302906154
298.83682832305680677
298.82400181696897334
298.81211672177045102
298.80197543516601399
298.7943505337890997
298.78956911208740621
298.78695629843070947
298.78465923087082956
298.78027866806297652
298.77200085192151846
298.75957604594748318
298.74470715623107253
298.73063760576519599
298.72097978851434164
298.71830971402607702
298.72324315840711506
298.73427534860184096
298.74829556139940223
298.76167256522563775
298.77137675969669317
298.77572029242924145
298.77459251519030659
298.76926082838281218
298.76172410307191285
298.75403730819186876
298.74779544853288371
298.74386061319103192
298.74226713100358666
298.74230966858573311
298.74291122951751731
298.74303349739216173
298.74201923427494876
298.73967251728856809
298.73615952037579291
298.73170521603395855
298.72634526954334433
298.71990189963139528
298.71206770376960549
298.70281930185495867
298.69267279035278762
298.68262288961699369
298.67385829713418843
298.66737225663234767
298.66354836534173955
298.66207463053257243
298.66217229424285051
298.66300949867149939
298.66408034833631291
298.66536265170827846
298.66708181669957867
298.66956026182509731
298.6728465176112195
298.67659837569038928
298.68007468857797448
298.68236172325237021
298.68275051441122514
298.68095287361495593
298.67715704114954178
298.67198014515531668
298.66616938782408397
298.66033970379589846
298.65482749368891291
298.64981383735613463
298.64547067084106402
298.64202055329076302
298.63970436995964519
298.63866331360452477
298.63880427718686406
298.6397004558689332
298.64083133556738403
298.6418341949409978
298.64280015799010926
298.64440470839957698
298.64770965718628304
298.6537329381481527
298.66292286884242912
298.67481870884017781
298.68811751778309826
298.70111093650058365
298.71241009046917725
298.72141324969692278
298.72845751604847919
298.73471836069438723
298.74161498151102023
298.75030535676665977
298.76127764998653902
298.77405139317255589
298.78743225616057089
298.7999756351039764
298.81042255195052348
298.81802919569162214
298.82258866524580299
298.82444468296813511
298.82418696544516479
298.82236085579972951
298.81946465510276312
298.81609101198318967
298.8130039780432412
298.81115471473515299
298.81167485107897619
298.81566787068959457
298.82370305276577938
298.83538850929022601
298.84930020850885057
298.86332756080628315
298.87524620103164352
298.88316616441795759
298.88604396109440131
298.88399886389265703
298.87813941867869971
298.86999001899795303
298.86097850059735492
298.85213407062417446
298.84391273514802378
298.83628056134966755
298.82891074325044656
298.82162813416550762
298.81480674362973105
298.80923987317788715
298.80603361028215659
298.80619133050129221
298.81037577266693006
298.81853326633705592
298.83002912528473871
298.84404447246981817
298.85985454061329847
298.87681556357404133
298.8947251434780128
298.91386936875829861
298.93456881677053616
298.95665426620990957
298.97920361708014525
299.00058822531212854
299.01881670895528487
299.03205705179254892
299.03910451912656754
299.03965452125356705
299.03435077210150439
299.02465789209838931
299.01252596291936925
298.99989658724058472
298.98818333665860791
298.97803819046771423
298.96955931203387991
298.96266923070078292
298.95739253198524921
298.95392300956166309
298.95258343550813152
298.95371627242320756
298.95753763946072468
298.96408535577648991
298.97315050629009647
298.9841971151645339
298.99647049855661862
299.00915982587275721
299.02149074542273866
299.03280855512514336
299.04265535410701204
299.05073948033066245
299.05672153445937056
299.06009893516716147
299.06030165549077537
299.05685695570718963
299.04960951317116269
299.03894130242127858
299.0258023218989365
299.01147273840308571
298.99728643110648818
298.98441225986618974
298.97359602293863645
298.96503602508232689
298.95846617396790634
298.95335831185377629
298.94913440215486844
298.94534589350161013
298.94178820221384285
298.93854421034751567
300.0457061533386991
300.5572441307833742
300.59174580706036295
300.53650725364371965
300.34555204554527563
300.24854786776290894
300.41694192480088077
300.61899383018942444
300.69508715543514654
300.70269185419641644
300.69894182647709613
300.66869982686961293
300.58894609883549265
300.44495946014330912
300.27063044932157254
300.18390406681299964
300.24720645170492617
300.41107063426403556
300.57599648061267317
300.66574236131731368
300.68677455432435863
300.68720751946335668
300.68993734354057779
300.70152988064813826
300.76364764139481167
300.89133025430805901
301.01698236705567524
301.05629108452109222
300.978776806478038
300.83355925068923398
300.71034398667808318
300.64871600740497115
300.64913128043946244
300.73122098658700452
300.88355769768321579
301.01066247460363456
301.02523314236896113
300.93453593181862971
300.79894510469910074
300.67160393881556502
300.60960015623641084
300.67094136171584751
300.83360512646061125
300.98511149401787179
301.01377644501593522
300.8970585248676457
300.70198577301539444
300.52600257380646553
300.44529181781769012
300.48480767549062875
300.60873085364460167
300.7407531724198293
300.80075185428853501
300.74155874812646516
300.59114466443145375
300.44443611922207538
300.40562551536305591
300.51434722017802414
300.7071292781503189
300.87015352027378867
300.92304070727197995
300.86495204982259111
300.76030742546004149
300.67669445689324448
300.64432086451847681
300.65764895941481427
300.69662640280171217
300.74025448550929696
300.7718463777201805
300.78105286227804527
300.77090346441104884
300.76249432498485703
300.77753780173867426
300.81870706309973684
300.85952221983762911
300.86979385923592645
300.8379214161290065
300.78249374664727611
300.72899068234346487
300.70143102421775438
300.70493490302226292
300.72662534947363611
300.74037177367540608
300.72284734243692128
300.67535365536713243
300.62078816714370078
300.58339905211346377
300.5749174500373897
300.59549131231398178
300.6392157701106953
300.69908118124664043
300.76566617340466792
300.82494123402375408
300.86035866337016387
300.85520006523199754
300.80226527741911013
300.7056725797901322
300.58578601601391256
300.47288982118607237
300.38958013601546782
300.34431720762427176
300.33926036218122135
300.37602306050212064
300.45346684490732514
300.55615427426840824
300.65548971385283039
300.72102490902369709
300.73472856272815079
300.6949466117101224
300.6141681995185877
300.51409433911305769
300.42201394291271299
300.36483100066283214
300.36297410054106649
300.42338034573867844
300.53426792025356917
300.66862431302996583
300.7946944832821714
300.88832381142617578
300.9365336203724155
300.93419775842880881
300.87909916943152666
300.7712915652127208
300.61539561936115206
300.4200683242524974
300.19634442569366684
299.95745737813587084
299.71852932517060708
299.49518197791292096
299.30074213311445419
299.14265874228101438
299.0208844757161728
298.92872767317629723
298.85728252190028797
298.79958380205363255
298.75217928768171305
298.71408415649830204
298.6846835147853767
298.66232979927963243
298.64473106006545322
298.63071132686462761
298.62058671097582874
298.61474458837545853
298.61127636240729544
298.60552453086910418
298.59330345518287686
298.57489739289701447
298.55586052188249369
298.54302178127761636
298.53889613015860505
298.54042914723788726
298.54329424669435866
298.54708763933132332
298.55590603123170013
298.57410311257416424
298.60121592736351204
298.63113198228046485
298.65622667898412601
298.67237847636465631
298.68104027158017288
298.68724627587522491
298.6964641258863935
298.71088312184656388
298.72813331885510024
298.74390449110376267
298.75392632157064554
298.75508929243488865
298.74727573564501881
298.73274165210295905
298.71609707893713903
298.70353712637665922
298.69998495200877642
298.70623799297192136
298.71849317212905817
298.73102941855415793
298.73932913597315064
298.7424022822109464
298.74240866436713304
298.74307164442251405
298.74669176588844266
298.75345141359269974
298.76163416091560521
298.76805991480102875
298.76883379516533523
298.7608758437008305
298.74409850196536809
298.72270101703372802
298.7036489648639872
298.69275874144693717
298.91958989675731573
298.91441341162789058
298.91466886126386271
298.92141413929704186
298.93434644937860867
298.95130684939812227
298.96891069213563696
298.98361235321624463
298.99279114845649019
298.99563109028690633
298.99336649131851118
298.9886318161072154
298.98399941380699829
298.98076700053815102
298.97873826023118227
298.97660324974486912
298.97243366985549073
298.96440707335062825
298.95164327432428308
298.93479375662525399
298.91617923929260314
298.89937191030020358
298.88840803133359714
298.88654082764708164
298.89482898767329289
298.91119391686203244
298.93067856441354024
298.94720548811363869
298.95594940399621464
298.95520942590621871
298.9468554187694167
298.93506230075473695
298.92395351382560875
298.91575558072372587
298.91032164526484394
298.90605144835006968
298.9013557855278691
298.89562995342248541
298.88937421924197224
298.883834092730865
298.88049810923740779
298.88069081726661125
298.88539111298803164
298.89483583304945569
298.90804139840344078
298.92275084726003342
298.93623658972171597
298.94659807094041071
298.95363643469295312
298.95885753359840464
298.96474717792688125
298.97366161428334408
298.98677613396279185
299.0036131336884182
299.02230439630244518
299.04016416371126752
299.05453773612003943
299.06346081981115503
299.06611409011583191
299.06288393462403974
299.05483533431521437
299.04285954831010486
299.02714966385894968
299.00734064038454108
298.9832801935164639
298.95611328903868298
298.92871371825003735
298.90503110731020797
298.88880992074103915
298.88203381335688391
298.88382620431406167
298.89057547565784034
298.8974133748180293
298.90022842428862759
298.89706275975981953
298.88840629086161016
298.87637087149602166
298.86326183243954802
298.85060411352827714
298.83907939354071459
298.82898291326671369
298.82074454733094626
298.81491974812809076
298.81160608545002333
298.80986213298859866
298.8076759822946542
298.80261392552688449
298.79304347238939954
298.77912787994347354
298.76300717494194714
298.74812227777795215
298.73784278142665016
298.73418762598333842
298.73712292149224368
298.74481446623701686
298.75438305645712944
298.76301952809166096
298.76881512140084851
298.77109068957275895
298.77019583241497003
298.76719607887821439
298.76342779461873533
298.76005717422162888
298.75779088953498785
298.7568066813487917
298.75682720044500229
298.75716610140290186
298.75702468545301826
298.75577912739663589
298.75316271213557684
298.74916998750893526
298.74385960525813744
298.7371739843939622
298.72891786490924915
298.71902642862318089
298.70776688288964351
298.69592719489787669
298.68472651396535866
298.67552936957179099
298.66935552863424164
298.66641921554969485
298.66594616369621917
298.66652567195535539
298.66677399112705871
298.66589602713281693
298.66408343260621905
298.66225037096518236
298.66149017685364697
298.66253625205143862
298.66539670263699691
298.66930829373529832
298.67299742000307106
298.67512658370742429
298.67488317330827385
298.67213902137780224
298.66738089778823451
298.66147248167754924
298.65540859972543331
298.64990220184108694
298.64527886182156635
298.64150030491822463
298.63834074652089612
298.63572075409791751
298.63372501606261267
298.6324596714948143
298.63188431561974312
298.63178134999947133
298.63191595925934507
298.63218056728112515
298.63279728689701642
298.63442737261243565
298.63803545106679849
298.64458222625796679
298.65457917308725655
298.66772620079007083
298.68277995629222232
298.69785584043421522
298.71114888679778687
298.72150435101190169
298.7286891225824661
298.73340859202761521
298.73697737753832371
298.74090583583227954
298.74630003077470519
298.75358556925385756
298.76234261913350565
298.77164289799327435
298.78033364353086654
298.7874884554294681
298.7925548185330058
298.79549050050184178
298.79661891811468877
298.79649222181018331
298.7958650832572971
298.79548919354130021
298.79616544348209572
298.79867572412001664
298.8036193876189941
298.81126512987009392
298.82145436011802531
298.83334450937786642
298.84545034588245471
298.85596877032014618
298.8633706688995062
298.86679130124218773
298.86613253862827833
298.86214191157006326
298.85622276801706221
298.84984824516425306
298.84403287314984254
298.83909646373751912
298.83472594776998221
298.83028242950121012
298.82518606268916983
298.81923343102289437
298.8128883233997044
298.80749539430627237
298.80457498663179194
298.80545357344306012
298.8108078710831137
298.82068461637561541
298.83415631550639091
298.84979305317216358
298.86665277849891709
298.8842516934738569
298.90225867020836859
298.92075113706727052
298.94004443723360964
298.96012573326777328
298.98024042894701324
298.99888756119787558
299.01418847947013546
299.02445229507878821
299.02868376520734728
299.02683019035384859
299.01984144237650298
299.00948878236835071
298.99785014694299434
298.98677274187070907
298.97748510314147552
298.9703721832375436
298.96506696317248952
298.96089213188503209
298.9574329043545049
298.95481567771747677
298.95357669158943281
298.9543514698136164
298.95757275804669462
298.96328552932362754
298.97117955669568801
298.98069259247080254
298.99112237338982823
299.0018173772884893
299.01228187267696512
299.0221287134601198
299.03096951472713272
299.0383852346097342
299.04392778052624635
299.04707482188263157
299.04729093550719199
299.04421002772676275
299.03778203128780433
299.02836962569830348
299.01678529047342181
299.00415412626642819
298.9916127575774567
298.98006326531270815
298.97006056032302013
298.96177079359989648
298.95500390256842138
298.94936586626158714
298.94444167368385479
298.94001648957936368
298.93614707883347137
298.93309363378369881
298.93123287414522338
300.50842902772342313
300.50714543688832237
300.52999276170652365
300.52887795769635204
300.26318560643426281
300.1270182815550811
300.25397262735361892
300.4547030981029252