/*--------------------------------*- C++ -*----------------------------------*\
  =========                 |
  \\      /  F ield         | OpenFOAM: The Open Source CFD Toolbox
   \\    /   O peration     | Website:  https://openfoam.org
    \\  /    A nd           | Version:  12
     \\/     M anipulation  |
\*---------------------------------------------------------------------------*/
FoamFile
{
    format      ascii;
    class       volScalarField;
    location    "0.0072";
    object      alphat;
}
// * * * * * * * * * * * * * * * * * * * * * * * * * * * * * * * * * * * * * //

dimensions      [1 -1 -1 0 0 0 0];

internalField   nonuniform List<scalar> 
75962
(
5.736543211434582737e-07
6.9532253566777233976e-07
8.1637087505510324684e-07
8.7336574847055446237e-07
9.3569143013351201536e-07
1.0562845434428522192e-06
1.2058454529804087478e-06
1.32163990315465338e-06
1.3848612482008839237e-06
1.4282839365314002139e-06
1.5093464235352848472e-06
1.686081021529747447e-06
1.828976451341719561e-06
1.8969024359671227812e-06
1.9632202042097068539e-06
2.0561071469338224608e-06
2.1476298785258792956e-06
2.2259464381339627537e-06
2.3063624660950706198e-06
2.3982898858456578127e-06
2.4903896975174237482e-06
2.5693522992390396758e-06
2.6406627003024998011e-06
2.7239953665805250537e-06
2.8301096443822859349e-06
2.9534424269439402076e-06
3.0809655337884924176e-06
3.1959428545823440378e-06
3.2827700066417765109e-06
3.3346287642244869838e-06
3.3612166176586283962e-06
3.3879508911320349159e-06
3.4457362679585467943e-06
3.5803853295369321646e-06
3.7462148786135815542e-06
3.8970134813378579452e-06
4.0102529663582434986e-06
4.0771271058571531524e-06
4.1051092884193995843e-06
4.121127627434407384e-06
4.156105268028682181e-06
4.2570848102485957316e-06
4.4807267119698079928e-06
4.6775728849975272057e-06
4.8100539373177694886e-06
4.8906940100697841948e-06
4.9509176808127824027e-06
5.0149302226430570229e-06
5.083267634006296217e-06
5.1425861241803618644e-06
5.1853822199560303357e-06
5.2164851077067365764e-06
5.2444215284527893867e-06
5.2720529435404578139e-06
5.2965187657919472346e-06
5.3145236447391534635e-06
5.3270110895382969353e-06
5.341462374442609135e-06
5.3717972823197524559e-06
5.4503752860267618721e-06
5.6617467956936030527e-06
5.9163624396121198206e-06
6.1186793613582631259e-06
6.2451165299174669817e-06
6.2999452085251427555e-06
6.3112162442494764854e-06
6.3112670225364310981e-06
6.32116395150848312e-06
6.3543569756314156115e-06
6.4124431951361528123e-06
6.4865063461820379748e-06
6.5706780765591172642e-06
6.6548959840744392188e-06
6.7258045579105209857e-06
6.7726090759580740504e-06
6.7940855465100558926e-06
6.8030505312087804343e-06
6.8201912661944353748e-06
6.8745818509521050758e-06
7.0461650361687723628e-06
7.2606721080809194285e-06
7.4190578886146303579e-06
7.5152988141513978238e-06
7.5615973263160199343e-06
7.5776774505107562455e-06
7.5807599010489843714e-06
7.5824990491107945303e-06
7.5891438116292951887e-06
7.6085656627184250137e-06
7.6677731235527666113e-06
7.803544215017796902e-06
7.9451190133674147312e-06
8.0639604806173379418e-06
8.1401282416446171184e-06
8.1688938722118332498e-06
8.1674550973496435566e-06
8.1594447054212329058e-06
8.1566853496165200052e-06
8.1829620509248325252e-06
8.3119747258208823962e-06
8.4733676382001477177e-06
8.5709164012038249882e-06
8.6276588230000108236e-06
8.6653179590254460289e-06
8.6953764269017178555e-06
8.7203980462598674648e-06
8.7396293296680787309e-06
8.759539145210611951e-06
8.7977612307703748128e-06
8.8957455691657167415e-06
9.0639916931160682855e-06
9.2179955337479253064e-06
9.3187554291708690269e-06
9.3582083552956114885e-06
9.3579384413155526087e-06
9.3445033522226472099e-06
9.3309586535003092688e-06
9.3317038885288565323e-06
9.3869698340932690477e-06
9.5810476785847388081e-06
9.7924413798215083604e-06
9.9534615267237388933e-06
1.0068458908705235237e-05
1.0138272858277576504e-05
1.0169533548250801308e-05
1.0175924311530501018e-05
1.0173464943240187708e-05
1.0172171692393287568e-05
1.0186482583733022137e-05
1.0253503513076446096e-05
1.0318359105891219645e-05
1.0345218463840408538e-05
1.034616744030195516e-05
1.033606934557956376e-05
1.0301657397372050243e-05
1.0217571098363621284e-05
1.0151016005259651408e-05
1.011890953506462626e-05
1.0109994850430589552e-05
1.0123130313505648877e-05
1.0231400709297873452e-05
1.0503515402422491636e-05
1.0686769731530856197e-05
1.0779073764737946082e-05
1.0846305130859309419e-05
1.0946026920132992779e-05
1.1102877444849312263e-05
1.130649557679524294e-05
1.1517863367597856259e-05
1.1692324649121341496e-05
1.179742810812548519e-05
1.1830919750048746273e-05
1.1823028254683467844e-05
1.1779852971293426872e-05
1.1657766732980441089e-05
1.1574516856768807808e-05
1.15508334701037972e-05
1.1567205079738367385e-05
1.1724030045192970558e-05
1.2012136851830402832e-05
1.217769479557394631e-05
1.223998335576207765e-05
1.2247580764511466819e-05
1.2241472787371213978e-05
1.2235948609130876399e-05
1.2233658415928684273e-05
1.2228400084903375442e-05
1.221213487313787845e-05
1.2151632124082278137e-05
1.1975368971982480222e-05
1.1799415550633767763e-05
1.1694838452539499393e-05
1.1649007877417398639e-05
1.163632199955056014e-05
1.1636859775969190142e-05
1.1666475711799159182e-05
1.1715830717123037528e-05
1.1745690283364011193e-05
1.175727348890002887e-05
1.1756117192268188929e-05
1.1747393195305937659e-05
1.1735700094333976467e-05
1.1718240704830078044e-05
1.1683357742952079478e-05
1.1622884946732702508e-05
1.1568654416778459393e-05
1.1525080249582395948e-05
1.1493919450941999965e-05
1.2099466237131268267e-05
1.2132182599506693998e-05
1.2162032595757774685e-05
1.2187183990374604258e-05
1.2207550370803424284e-05
1.2223182468673854159e-05
1.2234706118713286764e-05
1.2243022838666736452e-05
1.2248822898542556146e-05
1.2253008069972608741e-05
1.2256588726246111002e-05
1.2261040230174655269e-05
1.2267229018260396631e-05
1.2275719958355374185e-05
1.2286259274964811896e-05
1.2297902769005463164e-05
1.230917794696525002e-05
1.2318827841890950963e-05
1.2325648715144415721e-05
1.232939606220271655e-05
1.233080010439435664e-05
1.2331245343260499516e-05
1.2332607070470986646e-05
1.2335892893151481967e-05
1.2341754318462336661e-05
1.2350266489891543716e-05
1.2361063632280114971e-05
1.2373643441867830919e-05
1.2387883190133371075e-05
1.2403694899451267556e-05
1.2421279458197216167e-05
1.2440100927704578302e-05
1.2459431350255993783e-05
1.2478074853482558224e-05
1.2494873300671817965e-05
1.2508681745866692095e-05
1.2518461236284101701e-05
1.2524042341890829667e-05
1.2524853222157242421e-05
1.2521243456748924248e-05
1.2514171121112333649e-05
1.2505431976309851959e-05
1.2496010003970562806e-05
1.2486549898035240977e-05
1.2476290442233518659e-05
1.2466434070301330179e-05
1.2457920315986177463e-05
1.2449452091036836555e-05
1.2439175289864108168e-05
1.2426470413868592141e-05
1.2411212678306540695e-05
1.2394099457584582003e-05
1.2375719665538753209e-05
1.2356922205501635133e-05
1.2338163693218647362e-05
1.231979856952080623e-05
1.2301797179592860104e-05
1.228420256583478733e-05
1.2267022916807712984e-05
1.2250598078459720445e-05
1.2235160576888917357e-05
1.2221046690033697651e-05
1.2208019044533606926e-05
1.2195862928682804033e-05
1.218375444833808734e-05
1.2171318033888122012e-05
1.2158062955341695724e-05
1.2144117511590555612e-05
1.2129725047887192477e-05
1.2115151263752855997e-05
1.210077938309407286e-05
1.2086618388011110352e-05
1.2072983480463060703e-05
1.2059844467899739337e-05
1.2047414679234836964e-05
1.2035549316718247481e-05
1.2024144485703183995e-05
1.2012630941019424464e-05
1.2000810405175670284e-05
1.1988000664376525744e-05
1.1974561435086708707e-05
1.1960305280045745031e-05
1.1946166290507214739e-05
1.1932170404339631072e-05
1.1919013202030442333e-05
1.1906319997970244318e-05
1.1894266282917316424e-05
1.188187950565687171e-05
1.1869188772588778677e-05
1.1855086600840191352e-05
1.1840113220060385438e-05
1.1823673600609305452e-05
1.1806978846283779243e-05
1.1789795119063165734e-05
1.1773401963469707122e-05
1.1757191496803687226e-05
1.1742061936501799023e-05
1.172695453067161214e-05
1.1712512589501110534e-05
1.1697745439107856108e-05
1.1683295931565769912e-05
1.1668384713503955681e-05
1.1653821335019409037e-05
1.1638778502015175023e-05
1.1624228825020488327e-05
1.1609082087134849634e-05
1.159422128913826662e-05
1.1578521282731681557e-05
1.1562991712302107518e-05
1.1546776616837273449e-05
1.1531317356177465147e-05
1.1515713915641570173e-05
1.1501476899116250263e-05
1.1487345760321170419e-05
1.1474466003538424564e-05
1.1461391944397587598e-05
1.144909915677996499e-05
1.1436248473874026038e-05
1.1424007189750642235e-05
1.1411181425750788795e-05
1.1398948089400121097e-05
1.1386126711973266416e-05
1.1373688648143493685e-05
1.1360259355226385165e-05
1.1346866659359262266e-05
1.1332089889375456199e-05
1.1317374348146755199e-05
1.1301572359129803279e-05
1.1286307076162868012e-05
1.1270371839730051488e-05
1.1255325490111115874e-05
1.1239758859154495732e-05
1.1225208262220770896e-05
1.1210243559162853076e-05
1.1196339320928709975e-05
1.1182015364533153117e-05
1.1168711861053797643e-05
1.1154858042705130121e-05
1.1141804393664130521e-05
1.1128009052401736107e-05
1.1114772702255808345e-05
1.1100719916818567673e-05
1.1087238066445496274e-05
1.107309718263367219e-05
1.1059795506277464252e-05
1.104602589303852264e-05
1.1033253015486052301e-05
1.1020074935482799443e-05
1.1007766188507302899e-05
1.0994897933462888668e-05
1.0982719056402005637e-05
1.0969685492331922221e-05
1.0957232267362575144e-05
1.0943780417552288086e-05
1.0930832916746445235e-05
1.0916798589527465301e-05
1.0903364065675618953e-05
1.0888913018424546092e-05
1.0875324189673851402e-05
1.0860903001788209729e-05
1.0847405525315308153e-05
1.0833103300641242262e-05
1.0819599249919069559e-05
1.0805241983824890494e-05
1.0791507560798187349e-05
1.0776946704166691119e-05
1.0763078574156114856e-05
1.0748569554338350044e-05
1.0735120156504476507e-05
1.072121309084723517e-05
1.0708462250713709233e-05
1.0695081590560550968e-05
1.0682507464049306395e-05
1.0668938428773931985e-05
1.0655676130314827661e-05
1.064127625461626615e-05
1.062720917907789487e-05
1.0612275416939625288e-05
1.0598131833698872458e-05
1.0583528966638850688e-05
1.0570011040160172069e-05
1.0555965053209087959e-05
1.0542953343439610473e-05
1.05291296850368558e-05
1.0516176991630656973e-05
1.050229651135948413e-05
1.0489142774112893001e-05
1.0475135617868186548e-05
1.0461878722057100447e-05
1.0447916615832647129e-05
1.0434890379230433375e-05
1.0421294283002564159e-05
1.0408856831851456351e-05
1.0396002235512093916e-05
1.0384386016249215874e-05
1.0372433389557905758e-05
1.0361531893119663088e-05
1.0349984576550185978e-05
1.033920056013949739e-05
1.0327294906220630213e-05
1.0315869500960664633e-05
1.0303051634960727823e-05
1.0290517702469202926e-05
1.0276697192020954098e-05
1.0263195819886484803e-05
1.0248800832348088695e-05
1.0235190163297698898e-05
1.0221083463047216268e-05
1.0208357837271120642e-05
1.0195426499944690261e-05
1.0184059000414728472e-05
1.0172475566651136355e-05
1.016222813167286472e-05
1.0151404329118256649e-05
1.0141550820966563194e-05
1.0130737981526045442e-05
1.0120613045263641465e-05
1.0109362608848989623e-05
1.0098785382781681286e-05
1.0087030383933543747e-05
1.0076085505793310954e-05
1.0063974032772583352e-05
1.0052544795671738493e-05
1.0040016479784759688e-05
1.0028084558167897877e-05
1.0014964270101806609e-05
1.0002553757238157316e-05
9.9889672043791484968e-06
9.9762557645405049959e-06
9.9624868460710972406e-06
9.9498550977072372286e-06
9.936519841302741374e-06
9.9244934172173949886e-06
9.911985601211473524e-06
9.9009756799894362559e-06
9.8893471594389587183e-06
9.8791932960471454648e-06
9.8680762628646479347e-06
9.8580572544010555453e-06
9.846790443494919296e-06
9.8362507499141934691e-06
9.8242990709811736579e-06
9.8131362096246449396e-06
9.8006101037418930105e-06
9.7890932427472743347e-06
9.7764725888693569222e-06
9.7651723251910758049e-06
9.7528983888363839604e-06
9.7421419695561749214e-06
9.730433591846876699e-06
9.720202358777990442e-06
9.7088243462558218659e-06
9.6988105210801273538e-06
9.6876822275860633891e-06
5.8988225272945434697e-07
7.1104948667021904744e-07
8.9557228638117731915e-07
9.994971223058450277e-07
1.0578049329855562453e-06
1.1600216888013973691e-06
1.2836161820895334169e-06
1.3663017498558300632e-06
1.4222595834667053612e-06
1.5034898654180322117e-06
1.638632141113000641e-06
1.8009094917204258778e-06
1.9317225930070589326e-06
2.000776777263317458e-06
2.0416553574205421422e-06
2.1179698981796706762e-06
2.2728238295455099825e-06
2.3841577972385597207e-06
2.4490914941005659341e-06
2.5256555637933514639e-06
2.6331649813196574939e-06
2.7365613944778677347e-06
2.8070739800107736638e-06
2.8590164435247404066e-06
2.9328837370789118047e-06
3.0510131455593642808e-06
3.1953934055965746665e-06
3.3250435350703304023e-06
3.4107912526138389003e-06
3.4532725218360666147e-06
3.4814052551079957845e-06
3.5346797065448680082e-06
3.6528415352537714887e-06
3.8083914890702242981e-06
3.9598809762713635282e-06
4.0835149575543948141e-06
4.1680294871820922572e-06
4.2140073097276114185e-06
4.2345132707599307837e-06
4.2563900123497680708e-06
4.3101986602944486097e-06
4.4694466760019001614e-06
4.7818317142185770192e-06
5.0343802535411209342e-06
5.1809806538521101108e-06
5.2368656429018549134e-06
5.2486271124395449987e-06
5.2594137029876750778e-06
5.2963069387323607597e-06
5.363757619469380661e-06
5.4241482807516723793e-06
5.4702117251766358262e-06
5.5028510191601956973e-06
5.5246765156304384237e-06
5.537365138255783705e-06
5.5436576280480606455e-06
5.5496003552327560784e-06
5.5634646001959505774e-06
5.5983889306556559331e-06
5.6967068015957788589e-06
5.9465615667627121693e-06
6.2157506150803139272e-06
6.4222369569435073695e-06
6.5490274164002110273e-06
6.6046295199266382456e-06
6.6172480869571608723e-06
6.6185909121373011837e-06
6.6301463319497177848e-06
6.6684724934686089476e-06
6.7392313811939002504e-06
6.8205779939374618391e-06
6.9047553277281296309e-06
6.9832196672377009388e-06
7.046432866606298978e-06
7.0872520823303914743e-06
7.1052030031472890282e-06
7.1106082757749002561e-06
7.1209976890434287228e-06
7.1592071673041155879e-06
7.3020427892506156912e-06
7.5827359274883465078e-06
7.8074953987207825086e-06
7.9516871128251797891e-06
8.0253099353456430081e-06
8.0534113966476685926e-06
8.0606542052357322002e-06
8.0625135578093715756e-06
8.0666657546285656396e-06
8.0777906178311478308e-06
8.1058175258031247787e-06
8.18769374757801174e-06
8.3110683579331857501e-06
8.4174014508899199654e-06
8.4879781290047057483e-06
8.5176656258617830959e-06
8.5186230284067064188e-06
8.5120575254425283112e-06
8.508889447679654486e-06
8.5252385350407023138e-06
8.6206911004898702916e-06
8.8092796292509455716e-06
8.9471212093681082636e-06
9.0399537660902734392e-06
9.1043783825319766692e-06
9.1515357154451196545e-06
9.1854918686284528311e-06
9.2071772514343554016e-06
9.2227997289106619487e-06
9.248098042745800558e-06
9.3121666596539355234e-06
9.4842986731473707452e-06
9.6750754670216475859e-06
9.8078645871543481587e-06
9.8702702857915479098e-06
9.8803278728491780269e-06
9.8710084384454287165e-06
9.8552740925617674363e-06
9.8492439048946604351e-06
9.8703031824890836754e-06
9.9888898437635018258e-06
1.0200450230628236803e-05
1.0364525782495193426e-05
1.0477568894952372813e-05
1.0543527867147528906e-05
1.0572963062281401581e-05
1.0581160829772667383e-05
1.0584558435496955447e-05
1.0594195842206298358e-05
1.0634993736880511892e-05
1.0732394559748573203e-05
1.0807255534899082818e-05
1.0845985710862226224e-05
1.0855223783324897526e-05
1.0849182386540505787e-05
1.0831794511285787528e-05
1.0777339069371286178e-05
1.0707763670458712309e-05
1.0669238861602207071e-05
1.0656185511001130148e-05
1.0658743841906228919e-05
1.0717400453063430834e-05
1.092986637763571142e-05
1.1151255437444488469e-05
1.1304067575069702889e-05
1.142129136788089388e-05
1.154424472729351945e-05
1.1704460891087728927e-05
1.1906295391262996687e-05
1.2119974405871069425e-05
1.230231167914275941e-05
1.2416825333454073775e-05
1.2456215945097269014e-05
1.2449509594611260323e-05
1.2407321393712123238e-05
1.2277212186195866106e-05
1.217699990434752419e-05
1.2145783587648621092e-05
1.2152380257526650104e-05
1.2266444604987074182e-05
1.2528210215476269753e-05
1.2695884161714614911e-05
1.2781764219218481215e-05
1.2833085663251215765e-05
1.2881916385292209321e-05
1.2930935101278588607e-05
1.2964130352415717084e-05
1.2971313081496346192e-05
1.2960485826789362582e-05
1.2914322422333261283e-05
1.2752162914033804663e-05
1.2543869673925403695e-05
1.2417334656398418074e-05
1.2360643493452590016e-05
1.2345202305800222708e-05
1.2344132559262385558e-05
1.2368237989259497084e-05
1.2407879913528548253e-05
1.2428462150794459111e-05
1.2433327499178095397e-05
1.242725521602942145e-05
1.2416678866473299404e-05
1.2401574173345865785e-05
1.2374709071691323572e-05
1.2317012731740513152e-05
1.2251712950263867402e-05
1.2198325008491152729e-05
1.2157300979189592129e-05
1.212842803120536688e-05
1.2110567839072247304e-05
1.2668920630138470014e-05
1.2719152216689166767e-05
1.2765416092207974678e-05
1.2805320287242781278e-05
1.2837035622119175759e-05
1.2860199698208875455e-05
1.2875420315504658528e-05
1.2883642741018050821e-05
1.2886484546789802154e-05
1.2886035245102128252e-05
1.2884474082202516951e-05
1.2883692072187083352e-05
1.2885704277261619135e-05
1.2891515381993915175e-05
1.2901287981927076675e-05
1.2914106088556075232e-05
1.292861271589166718e-05
1.2942867366426623164e-05
1.2955141835463623577e-05
1.2964540630855736557e-05
1.2970491361441346574e-05
1.297385107399780001e-05
1.2975739197284854546e-05
1.2978237355340163962e-05
1.29825415763493086e-05
1.2989603544763070222e-05
1.2999557430343375265e-05
1.301235702383548681e-05
1.3027124734319167423e-05
1.3043637209870538661e-05
1.3061400776126794331e-05
1.3080255323413726229e-05
1.3099855746961474632e-05
1.3119402851747802597e-05
1.3137960420532550189e-05
1.3154522311490693965e-05
1.3168289845118297569e-05
1.3178467253630943637e-05
1.3184508569849020715e-05
1.3186053991003359671e-05
1.3183266898654623104e-05
1.3176711682286025457e-05
1.3168241690070883753e-05
1.3159084220669049165e-05
1.3149780344505974846e-05
1.314040528616951111e-05
1.3130953075371688509e-05
1.3122308942836025922e-05
1.31138557631889151e-05
1.3103856704514613683e-05
1.3090616350053799181e-05
1.3074462278850628276e-05
1.3056241922569284766e-05
1.3036792587307400706e-05
1.3016651238648433968e-05
1.2996468060067357508e-05
1.2976339292177438558e-05
1.2956575314025134632e-05
1.2937154412586131342e-05
1.291847985343504516e-05
1.290074152590339766e-05
1.2884357817253900264e-05
1.286936454092524764e-05
1.2855644657413359592e-05
1.2842612715683084784e-05
1.2829598755151903276e-05
1.281591112059044134e-05
1.2801414567024746872e-05
1.2786049598909937622e-05
1.277046753540690238e-05
1.2754766644882497333e-05
1.2739599625825791672e-05
1.2724696665234224498e-05
1.2710533328216027586e-05
1.2696758459161204248e-05
1.2683816586478086817e-05
1.2671289262344001607e-05
1.2659372779575825613e-05
1.2647200892062024905e-05
1.2634809795753561791e-05
1.2621230707133005423e-05
1.2607119316548221898e-05
1.2592094343433858343e-05
1.2577420094787100603e-05
1.2562882896459847654e-05
1.25494185741078759e-05
1.2536294821333175643e-05
1.252384888304977063e-05
1.2510810350807341187e-05
1.2497447182321162103e-05
1.2482488307316223194e-05
1.2466827322791492591e-05
1.2449659219123742173e-05
1.2432503516106015938e-05
1.2414775145734014257e-05
1.2397958384552506408e-05
1.2381127564204525809e-05
1.2365406729734144175e-05
1.2349483792458768033e-05
1.2334225578050560067e-05
1.2318344532357287436e-05
1.2302778164648725764e-05
1.2286513269732059e-05
1.2270739972074523486e-05
1.2254428016332862691e-05
1.2238777617931222142e-05
1.2222457721600833212e-05
1.2206610563234788678e-05
1.2189906651018331962e-05
1.2173698480399340041e-05
1.2156848149639289938e-05
1.2141024370792521703e-05
1.2124958264479246335e-05
1.2110316741622494222e-05
1.209548500622192146e-05
1.2081848565814498389e-05
1.2067716569015278735e-05
1.2054458179433746485e-05
1.2040555620867426874e-05
1.2027598925240316866e-05
1.2014120501024035857e-05
1.2001575462210478933e-05
1.1988314461009795832e-05
1.1975515066696855028e-05
1.1961325905375867052e-05
1.1947076009044411672e-05
1.193110140751736912e-05
1.1915289142949619518e-05
1.1898367712124319933e-05
1.1882377182977807599e-05
1.1865858151239534664e-05
1.1850629092434507316e-05
1.1834829784214956005e-05
1.1820189074871546817e-05
1.1804815787459265312e-05
1.1790402456389827675e-05
1.1775192964768777087e-05
1.1760930325024637771e-05
1.174585923242305567e-05
1.1731719695637048213e-05
1.1716765675895629231e-05
1.1702682586263588109e-05
1.1687771901487911905e-05
1.1673777749152718778e-05
1.1659019785903980429e-05
1.1645354342004688431e-05
1.1631023915304242099e-05
1.1617872568439636136e-05
1.1604047992504982209e-05
1.1591252420259515727e-05
1.1577635425593157674e-05
1.1564850597429144431e-05
1.1550957946933941648e-05
1.1537732127812298512e-05
1.1523184162940812192e-05
1.150921326254141827e-05
1.1493866625259798272e-05
1.1479281060189834324e-05
1.1463548623968998391e-05
1.1448949806510322339e-05
1.1433475230903983235e-05
1.1419228786334146766e-05
1.1404074704489223718e-05
1.138998788509768513e-05
1.1374852019181105645e-05
1.1360579337811957338e-05
1.1345266355544622345e-05
1.1330915794805544131e-05
1.1315715464364945958e-05
1.1301822801399686856e-05
1.128724712645776812e-05
1.1274039401007742795e-05
1.1259962400496606691e-05
1.124686054425995258e-05
1.123244573907358792e-05
1.1218521346911945706e-05
1.1203092666980328632e-05
1.118820739483583286e-05
1.117213856593620706e-05
1.1157094188097967794e-05
1.1141288543458293956e-05
1.1126822340907025819e-05
1.1111629999619982936e-05
1.1097777455451299079e-05
1.1083006127286748087e-05
1.1069473815400172298e-05
1.1054932413655689448e-05
1.1041479674866194353e-05
1.1026970982096754486e-05
1.1013464268082319815e-05
1.0998909611049009411e-05
1.0985405927793192039e-05
1.0970926741164321619e-05
1.0957740628540669307e-05
1.0943780958226762476e-05
1.0931311666937618487e-05
1.0918179164512848952e-05
1.0906398426843214836e-05
1.0893682406918166254e-05
1.0882005046023674618e-05
1.0868961759463447638e-05
1.0856673490602687592e-05
1.0842777311576493315e-05
1.0829502969842244144e-05
1.0814732926893674169e-05
1.0800689849316661266e-05
1.0785540809154290888e-05
1.0771564748161639242e-05
1.075682785342390632e-05
1.0743677787322756124e-05
1.0729894396458071145e-05
1.071781991820055511e-05
1.070507959635051695e-05
1.06938998682965896e-05
1.0681909501397471703e-05
1.067127686880693203e-05
1.0659625733360421454e-05
1.0649094438885010278e-05
1.0637329848413424558e-05
1.0626621283035918698e-05
1.061438215766642174e-05
1.0603162917313647433e-05
1.0590260803794574785e-05
1.0578196762696347169e-05
1.0564515974741600169e-05
1.0551591501445786129e-05
1.0537178460419315077e-05
1.0523764078529199365e-05
1.0508999875535352946e-05
1.049555106784946604e-05
1.0480881214187267691e-05
1.0467766122957024091e-05
1.0453677119219475632e-05
1.0441202479974956386e-05
1.0427935273380244189e-05
1.0416377517441529043e-05
1.0403878302383454243e-05
1.0393140185349091122e-05
1.0381207932030462902e-05
1.0370774638992049638e-05
1.0358926027789192148e-05
1.0348222676045923553e-05
1.0335953111238663888e-05
1.0324734452377695853e-05
1.0311914263371105537e-05
1.0300211027003359707e-05
1.0286983105681295656e-05
1.0275126376023052064e-05
1.0261833359766447227e-05
1.0250204501394056506e-05
1.023733783241753666e-05
1.0226282973497793422e-05
1.02139594296499547e-05
1.0203420150732431127e-05
1.0191595378336717548e-05
6.1229575619683701758e-07
7.0621538055002137686e-07
8.892452542390920309e-07
1.0058665522256900025e-06
1.0649716615046207021e-06
1.1512515677245122342e-06
1.3146243667143108889e-06
1.4630136247270832217e-06
1.5489857606007898027e-06
1.5989288738690323776e-06
1.6796457619572707492e-06
1.8439626564030761943e-06
2.0021859781442728246e-06
2.0931980394814187027e-06
2.1380523122211553593e-06
2.2076172507777299238e-06
2.3310826020339624231e-06
2.4531352256940914592e-06
2.5536947148608538709e-06
2.6378695859932844874e-06
2.7133852086048076309e-06
2.7874448152279456989e-06
2.8768684319041330045e-06
2.9984735920377853877e-06
3.1497841466745365767e-06
3.3094511384754059538e-06
3.4525331040334474217e-06
3.5639619119697143364e-06
3.6374440054769354156e-06
3.675838173741500168e-06
3.6951260975921409386e-06
3.7216343706700183382e-06
3.7848305455118449724e-06
3.9552430942228421852e-06
4.1736561500449638134e-06
4.3404965571416445489e-06
4.4439356688988672641e-06
4.4929597205174198261e-06
4.5097818171055428535e-06
4.5249395606005522993e-06
4.5685300237712850451e-06
4.7131982349496545732e-06
5.0305091486311184174e-06
5.2925276589072416369e-06
5.4500972541795456968e-06
5.5179622131868906001e-06
5.5363478567016581635e-06
5.5451196832957093668e-06
5.5669859037994894345e-06
5.6086674565244767446e-06
5.6643126516451955483e-06
5.726439312161116059e-06
5.7874609050583766879e-06
5.8388810631052655837e-06
5.8734578927382611081e-06
5.8906607953418798287e-06
5.8979212039000206198e-06
5.906865557030009989e-06
5.9289965363004269562e-06
5.9887032260614018358e-06
6.1770438149371176677e-06
6.484001801826728887e-06
6.7306292511420778136e-06
6.8910082359185217659e-06
6.970569749903101523e-06
6.9970905997307842255e-06
7.0048697787623685163e-06
7.0203395211643972821e-06
7.0616587748478404192e-06
7.1325966447046460861e-06
7.2184997989527933888e-06
7.306007296874516001e-06
7.3806384907324342352e-06
7.4311717775636213385e-06
7.4560097960337015554e-06
7.462428252962490637e-06
7.4630135007676589784e-06
7.4698957396446769298e-06
7.508956150994133755e-06
7.6710006781224615206e-06
7.9591731120941780389e-06
8.1698180827847940853e-06
8.2924587196054774481e-06
8.3472259025923018031e-06
8.3641375594866895391e-06
8.3694386071322377673e-06
8.3810109215282944587e-06
8.4133867674206845827e-06
8.4987901537155429566e-06
8.6183311475571508953e-06
8.7406921990067087014e-06
8.849096119698781547e-06
8.9251659358321864699e-06
8.9605536767426923692e-06
8.9634761158767643264e-06
8.9541942868577974537e-06
8.9411289660179927538e-06
8.9399579170879420084e-06
8.972939826104223528e-06
9.1325742094481578929e-06
9.3784113446118003897e-06
9.5358538358304615701e-06
9.6226977638411086255e-06
9.6666670075603177857e-06
9.6881798990397562121e-06
9.6988565121173253016e-06
9.7067917630706694913e-06
9.7204809102659521844e-06
9.7558378587832494065e-06
9.8742523087969130094e-06
1.0111019564067944405e-05
1.0294599021959054984e-05
1.0393505326054340278e-05
1.0420574882928609802e-05
1.0414556061125863117e-05
1.0384909768235483788e-05
1.0343230679786052857e-05
1.0328359080380545518e-05
1.0331616593151717842e-05
1.0396633471254455991e-05
1.0580147749048789973e-05
1.0732574479997892712e-05
1.082906859860472818e-05
1.0879777308239318843e-05
1.0901971098439261075e-05
1.0919634945558273962e-05
1.0955631564457757272e-05
1.1047546307907707666e-05
1.1172019548060926347e-05
1.1272529623723005784e-05
1.1334635601396057935e-05
1.135944546737169405e-05
1.1359390466917089314e-05
1.1348908863824605582e-05
1.1317879144055326745e-05
1.1246104695608423319e-05
1.1193203160475255221e-05
1.1170939143336311322e-05
1.1166662181912817854e-05
1.1194343877752263876e-05
1.1350292994147157769e-05
1.1721479360044334564e-05
1.2001696179193414486e-05
1.2153488569020018899e-05
1.2212751780783607313e-05
1.2240028658512528732e-05
1.2292787836802396628e-05
1.2442017945732868821e-05
1.2689184755383531712e-05
1.2902678359029182928e-05
1.303536204181804198e-05
1.3080626081391042733e-05
1.307315695374394698e-05
1.3021684478733877821e-05
1.2868183785555316323e-05
1.2762937122032655664e-05
1.2735395481144542876e-05
1.2753180342451145187e-05
1.2920337209019391517e-05
1.3243888632920957539e-05
1.3435416166220821198e-05
1.3520681272814440632e-05
1.3561719245965533212e-05
1.3603407141858064308e-05
1.3654112785921207156e-05
1.36941281013602686e-05
1.3706740974547186005e-05
1.3697706149705699908e-05
1.3657413138902640558e-05
1.3506327435549962679e-05
1.3271661576371594074e-05
1.3116969369189464438e-05
1.3039309047179162851e-05
1.3011088125119677124e-05
1.3003567659293125913e-05
1.3003288754553598869e-05
1.3019014186699629515e-05
1.3044142503567476385e-05
1.3061357855650208864e-05
1.3069121058918328445e-05
1.3067585837408724121e-05
1.3057811198248773482e-05
1.3044045415034870718e-05
1.3023024013375635656e-05
1.2977626540653127817e-05
1.2908302544158690409e-05
1.2854436946426519304e-05
1.2817584526613055222e-05
1.2795141793012493726e-05
1.3453425832159937099e-05
1.3476501960491473896e-05
1.3495516898683336098e-05
1.3510429287588569632e-05
1.3521746294702119236e-05
1.3530369788910037981e-05
1.3537099313798156501e-05
1.3542482092598395938e-05
1.3547446264522823665e-05
1.3553101887315623594e-05
1.356079372363276075e-05
1.3571440989831798764e-05
1.3585752316594540729e-05
1.3603420103500660671e-05
1.3623221228388118748e-05
1.3643215168214222309e-05
1.366165500565450759e-05
1.3676933078670242986e-05
1.3688015299832706844e-05
1.3694514902516821366e-05
1.3696893668695030768e-05
1.3696128782853424284e-05
1.3693969660255128168e-05
1.3692255814714318326e-05
1.369254422285015203e-05
1.3695988577435053268e-05
1.3703097331524984975e-05
1.3713481982436969201e-05
1.3726439964102004056e-05
1.374109928723533888e-05
1.375692175753915044e-05
1.3773216957171946105e-05
1.3789504166773064036e-05
1.3805208827482594821e-05
1.3819689868229503678e-05
1.3832562292693066427e-05
1.3843410964888722906e-05
1.385180500599758663e-05
1.3857558646114415745e-05
1.3860657020437571783e-05
1.3861170317546409262e-05
1.3859119773014095102e-05
1.3855094418315309281e-05
1.3849440737949460177e-05
1.3842489105532478579e-05
1.3835139806882537687e-05
1.3827656770238154607e-05
1.3819855665285802498e-05
1.3811508667186527688e-05
1.380238498861458037e-05
1.3792504059545008193e-05
1.3781848776001045904e-05
1.376965833342542061e-05
1.3754337245512043351e-05
1.3733467542527443274e-05
1.3711153082184318567e-05
1.3688044623300351789e-05