/*--------------------------------*- C++ -*----------------------------------*\
  =========                 |
  \\      /  F ield         | OpenFOAM: The Open Source CFD Toolbox
   \\    /   O peration     | Website:  https://openfoam.org
    \\  /    A nd           | Version:  12
     \\/     M anipulation  |
\*---------------------------------------------------------------------------*/
FoamFile
{
    format      ascii;
    class       volScalarField;
    location    "0.0072";
    object      k;
}
// * * * * * * * * * * * * * * * * * * * * * * * * * * * * * * * * * * * * * //

dimensions      [0 2 -2 0 0 0 0];

internalField   nonuniform List<scalar> 
75962
(
3.60281335443483715e-05
5.2814090521248143774e-05
7.3137983632745243298e-05
8.4219821256662909617e-05
9.6817756567842383182e-05
0.00012311413917093127677
0.000160214376665463598
0.00019280058386799233576
0.00021225655740477042052
0.00022635895251713121328
0.0002534938321130304241
0.00031689013511160084562
0.00037323205608590814169
0.00040162890326884628659
0.00043031629249735899338
0.00047244094997363417698
0.00051610177364624421938
0.00055517346430298121322
0.00059739818655442974288
0.00064816563656111981367
0.00070091182262108748472
0.00074674200921468001767
0.00078834573825238541366
0.0008386908820587910332
0.00090609174252523035694
0.00098812637813459045823
0.0010766704507822559816
0.0011601992480636401546
0.001225841298791039086
0.0012663246618201894587
0.0012882150519807544428
0.0013109909540059356062
0.0013584281765304580692
0.0014685031173566757186
0.0016093546758096824272
0.0017436005503744401307
0.0018493862866591299823
0.0019153967604838327901
0.0019460593389820689605
0.0019650760744411533906
0.0020015329072739979945
0.0021021721188555875064
0.002331696151483050785
0.0025454859196151441263
0.0026973467591729955069
0.0027950769795255653305
0.0028709093985850430569
0.0029510293552503317344
0.0030355316992527491861
0.0031091324492582223318
0.0031637951994381375079
0.0032058630569157314447
0.0032454290787711464854
0.0032855672465395284639
0.0033224007834059213901
0.0033513388444191736203
0.0033729249655113364807
0.0033963286580041204821
0.0034403212590039321077
0.0035480039770427454146
0.003835526076613836495
0.0041951564298837486222
0.0044917727420880114789
0.0046841242646610097011
0.0047753019900577823101
0.0048048315522236286629
0.0048171531579143337526
0.0048403303134242608302
0.0048946582050960621771
0.0049859482975658023229
0.0051043944644550282019
0.0052434962914052300753
0.0053875364348584930257
0.005512898204869489012
0.0055991709029104656803
0.005643073380545521496
0.0056666335529354594849
0.0057050056262449057309
0.0058067813951651718607
0.0061107465404729843089
0.0065003051230392580942
0.006799209146955783982
0.0069889403077928397359
0.0070868717760045512113
0.007127490920091681878
0.0071420951318071955807
0.0071522877055686185158
0.0071704840954388317231
0.0072132343713989773362
0.0073337449596410477295
0.0076064794788099649586
0.0078981421309339445991
0.0081502586575272588376
0.0083193288675346196287
0.0083923037217789858006
0.0084017652212948941426
0.0083957107276412812347
0.0083995256699991045074
0.008464770480856188134
0.0087484208225379594265
0.0091113232828014759784
0.0093431204895729064175
0.0094857465527795684079
0.0095831182371120954278
0.0096597621731824758612
0.0097219335328826116116
0.0097700490895298204574
0.0098214569927519701498
0.0099179976125202216203
0.010154319281741526135
0.010558555811450093601
0.010935977401560359121
0.011189292315258867611
0.011295739294449691145
0.011308197522969059418
0.011292417448808886662
0.011278981910797920146
0.011300407250737684248
0.011452278496000587588
0.01194732744744252291
0.012499286203647331714
0.012933496645135194453
0.013253405652336850556
0.013454889030483826659
0.013552218433331816166
0.01358209826925231567
0.013589676367437433097
0.013603698050419535739
0.013662352309094918934
0.013863955077114234124
0.014060455360457562585
0.014151654222153326607
0.014170627332538736007
0.014160148271086534302
0.014085463216820939131
0.013877077150494776178
0.013717101690696573493
0.013650450531218364172
0.013646665185267518872
0.0137031689045070907
0.014019507121814716796
0.014800039835722032452
0.015347352888947042582
0.015637104478815038594
0.015853432568764602023
0.016165706136775391533
0.01665194628433024418
0.017287793422757522649
0.017958279761870893365
0.018522878653843763419
0.018874277612567932211
0.019002380806851734002
0.01900512684583531911
0.018903595439624779756
0.018556804687729522296
0.018337320033103385319
0.018307164086118040552
0.018400570241161113422
0.018938237076588586294
0.019915269594180679685
0.02049842525921174996
0.020733437415728837167
0.020778947596587285518
0.020774752758974411593
0.020771423053758276273
0.020780094030459751731
0.02078218021078460237
0.02075244323050301834
0.020579916057907769039
0.020025430591612974202
0.019480510765509245763
0.019176085581374961025
0.019061904515575434083
0.019049420936039951346
0.01907159690451469547
0.019181824460633139368
0.01935487310125346555
0.019465686799085182845
0.019521317564166452974
0.019541343691312933195
0.019542152329854015763
0.019537200635594175607
0.019515705853884516424
0.019438412843571072769
0.01927751969087176942
0.019137870606069841417
0.01903195767423899315
0.018962805272580696841
0.021807662451108367901
0.02195764273159247354
0.02210011520158795123
0.022226571137310021514
0.02233424697644089546
0.02242185942510141472
0.022491948487300687104
0.022549581197934178561
0.02259991383495409123
0.022648011414845101857
0.022697685900693827243
0.022752946001721053443
0.022814818657493539378
0.022883502254111447172
0.022957091851049361841
0.023032396425253110622
0.023105283281581845412
0.023172888921595916761
0.023232112680575060792
0.023282281682194864991
0.023325040718931506351
0.023363629237633864316
0.023403304969670146035
0.023447095859503552795
0.023498285947814091801
0.023559344861236831276
0.023631349914694850523
0.023713867457594565991
0.023806239231309676146
0.023906629575648041808
0.024014051017829829426
0.024125321988850000066
0.024237537296223975875
0.024346689491408200073
0.02444891430938025273
0.024539886366678746732
0.024615240553716045274
0.024674046052236754678
0.024714104717287965762
0.024737042383728091721
0.024746688363011234979
0.024749659988134845023
0.024748903300949500611
0.024745979371983896355
0.024737357030374537703
0.02472803880182358402
0.024722935976386573725
0.024718595050625614268
0.024709234274699995448
0.02469329983645049062
0.024670285011301522349
0.024642124976178830104
0.02460983643683667052
0.024575542574701805809
0.024540308791605076888
0.024505477177818233564
0.024471305761914471238
0.024438281464405752635
0.024406290223148378871
0.024375986587827490337
0.024347432910832980668
0.024321478235458764139
0.024297465292537737819
0.024275685367382327656
0.024254448219788258406
0.024233713412065590459
0.024212295282624415188
0.024190598917400489565
0.024168831808915779841
0.024147025099530958908
0.024125733359978453196
0.024104284057596007951
0.024083424032031383599
0.024062707208812005033
0.024042805823391057152
0.024023286966347801724
0.024004361294623372675
0.023984826577650445595
0.023965125840293814014
0.02394352461016957187
0.02392173345116099803
0.023898335135483388114
0.023875670022880407517
0.023852311411093257698
0.02382999489189853437
0.023807065478915628159
0.023785119514574643712
0.02376192533731257342
0.02373936715779764034
0.023714293755328078733
0.023689204834064631761
0.023661117135730699856
0.023633589583921914279
0.023604180876670374095
0.023576759771807401928
0.023548163291290703791
0.023521924864942769795
0.023494306706018604214
0.023468633480001339919
0.023441572168956228278
0.023416027601910641837
0.023388880419795667759
0.023363186921952654174
0.023335465518237535898
0.023309681594691211703
0.023281811499376831032
0.023255858546781398716
0.023227581662038709193
0.023200891891360736485
0.023171695387050186138
0.023144862636469098333
0.023115865392509527682
0.023090241411629963686
0.023062878632653001365
0.023038800941908989944
0.023012856242337165896
0.022989557754956171237
0.022963851028670639182
0.022940511573853811927
0.022914703399865746225
0.022891259336919451278
0.02286575093186455146
0.022842572341351709275
0.022816700845601133041
0.02279266567122243542
0.022764900202876321017
0.022739031124852343568
0.022709974060700889587
0.022683656524928565851
0.022654678924345531682
0.022628836956001745911
0.022600160996870163888
0.022574622145883641022
0.02254634265603992771
0.022521194502290751982
0.022493290188768274435
0.022468567560212419909
0.022441054326118994866
0.022416530513443139183
0.022389193087040615976
0.022364493175781423318
0.022336986686476153346
0.022312157012403258105
0.02228473253793386219
0.022260370249305275886
0.022233443938028594339
0.022209624199154443663
0.022183281300483904258
0.022159730530176051377
0.022133573816618890701
0.022110225552937512461
0.022083842214030393464
0.022060450059062750028
0.022033850337569903244
0.022010142306720662658
0.021982854849512147716
0.021958621943612005589
0.021930658397253704334
0.021906266352049282714
0.021878387655538636403
0.021854059553998109872
0.02182648483467768824
0.021802359892363103872
0.021775271221136781319
0.021751203309511062817
0.021724119052969188132
0.021699792018553040046
0.021672381119812553218
0.021648350783090453825
0.021621449233514986044
0.021598351953610459703
0.021572283996945430112
0.021549652243243358485
0.021523785551009550626
0.021500298077963470034
0.021473424714386016993
0.021448876587618407458
0.021421356601491452903
0.021396986318643163721
0.021370240301507154729
0.021347122447628583131
0.021321121148342021129
0.021298709685331467661
0.02127265873941208349
0.021250010801809271488
0.021223703432459304491
0.021200545648904382812
0.021174220777102063795
0.021151180229058492988
0.021125361631722176792
0.021103103159106524622
0.021077950656739303376
0.021056547343190352983
0.021032241568316380198
0.021011601904040486111
0.020988329983246560573
0.020968346979331767277
0.020945290890693909341
0.020925500473577759997
0.020902031295673285938
0.020881953039350139439
0.02085806324518385893
0.02083722966579753394
0.020812866833996437194
0.020790956527631868078
0.020765871880677411188
0.020743639863331757994
0.020718357780311637967
0.020697084453603013798
0.02067308261494761254
0.020653491011105477165
0.020631310009756573948
0.02061322234577355611
0.02059195549413363191
0.02057429898115879785
0.020552903953426897299
0.020534832263348675591
0.020512957244793458139
0.020494663987350517087
0.020472411791335177328
0.020454187615886736118
0.020431885172620855434
0.020412987196870655687
0.020390294616177879333
0.020370757384144219659
0.020347191688855372632
0.020327361962804112866
0.020303564137951431168
0.020283951980319226555
0.020260331304505829753
0.020241153766669836567
0.020218421753563788068
0.020199877478483035942
0.020177936484471165057
0.020160540594045640167
0.020139192962309614143
0.020122799165272181598
0.020102009776003997715
0.020085867944223005643
0.020065389888403655644
0.020048989022831285173
0.020028066865230929189
0.020011465100187225685
0.019990099581998876932
0.019973236428138550769
0.019951837020152525526
0.019935446282429984677
0.01991446985211715176
0.019899017351688849664
0.019879076247823410095
0.019864739664266401614
0.019845462489134640255
0.0198316553859352665
0.019813271409096559067
3.611732119977050957e-05
5.2425109598342405472e-05
8.3670971240660640521e-05
0.00010452296236793921791
0.00011716166917286119158
0.00014117078995332205354
0.00017310386115833553125
0.00019627149376745287404
0.00021291289468980092092
0.00023830089942720306378
0.00028356358259488045545
0.00034327030085696901528
0.00039593907386604413213
0.00042522230255864372278
0.00044258071293263044664
0.00047616429279785996284
0.0005487968520193680852
0.00060492879412690628901
0.00064013488605892370897
0.00068320281452695613266
0.00074444282875595492021
0.00080444312573073437252
0.000846004098219461779
0.00087770228375749000539
0.00092471336907923155392
0.0010022711343075111842
0.0011010980191353638737
0.0011940822523483262188
0.0012580484365054458301
0.0012911619394934002649
0.0013144209281425976721
0.0013573644523493773664
0.0014516447562323044063
0.0015795448558568276828
0.001709446824711131083
0.0018201190802314007669
0.0018988924331570702225
0.0019441580297257525425
0.0019670469037350035713
0.0019915862350283297481
0.0020454862543500870048
0.0022014378997476224259
0.0025230574966004465191
0.002801698842035272273
0.0029735953806473303801
0.0030446251895539571883
0.0030645837544866216806
0.0030826593369911439377
0.0031301972420158213732
0.0032136694458049486732
0.0032895422380735351783
0.0033495535113239717842
0.0033948393328739581883
0.0034281769142875174496
0.0034510359286812832165
0.0034661146936161234787
0.0034799640284528228842
0.0035026099571032684454
0.0035512791336280440276
0.0036822248859441734925
0.0040186476416937217879
0.0043973651889296517387
0.004699304625751256001
0.004892300577187554296
0.0049854687436746755042
0.0050177432534797379235
0.0050319285914677876898
0.0050572035853409334077
0.005119121219523138297
0.0052302701471479019074
0.0053608173634010760841
0.0055004180990993268088
0.0056352912157020236886
0.005748092957865730962
0.0058248319165308216558
0.0058638626334639159382
0.005882833383235305108
0.0059110011649405888937
0.0059854683823033034626
0.0062360626354369015634
0.0067349630565363997545
0.0071516102214792785785
0.0074307882769239445159
0.0075819578896555647751
0.0076473985602022401947
0.0076718814411732456915
0.0076839419740183699872
0.007698390583677916163
0.0077257291947993907838
0.0077870646854669408124
0.0079552461638001028404
0.0082102282644348593965
0.0084371398271233539329
0.0085954561849473018476
0.0086712004856524249607
0.0086862966015393301006
0.0086829599126121807806
0.0086847297939450975729
0.0087273027344085749024
0.008936404886619966903
0.0093510834120001922604
0.0096690267832743193727
0.0098927188307582590576
0.010051366305392883671
0.010166662554352765002
0.010248299475223635394
0.010301184315804194983
0.010342833519868713243
0.01041047349700650361
0.010569792730812007861
0.010980736633407159678
0.011444377690562890226
0.01177642527468545329
0.011940906830331816588
0.011979249536473949439
0.011972425515953538655
0.011952012119632629897
0.011955881715638518731
0.01202524437780807913
0.012333954287310410977
0.01288342129263796848
0.013324236471821277947
0.013638165708430185011
0.013827846395813789271
0.013917475146161489494
0.013948644453749872371
0.013969041491583712722
0.014011416586870634182
0.014141974036082992361
0.014427902729878738439
0.014654477497612528394
0.014780404079711621443
0.014823372640718838686
0.014824813853628670407
0.014797735548369954708
0.014671707904547161977
0.014504337836612351403
0.014420226693349372238
0.014404626563614813042
0.014432429623353433198
0.014614443804774659638
0.015224538061876605535
0.015875218000684341441
0.016338620045810929582
0.016701980831499905339
0.017085245539934498793
0.01758452046710506575
0.018217347390307815636
0.01889631203117829103
0.019486475658951167567
0.019868626902668704015
0.020016739625798099511
0.020023914167640776557
0.019925446325413199294
0.019551904905523297129
0.01927651875149465413
0.019220421415852371322
0.019281621964399208585
0.019681207514914866863
0.020566547443682033081
0.021155608377717224911
0.021473037403405330348
0.021670616764283699013
0.021855746046405871014
0.022039286016389391526
0.022169285463294413629
0.022213670822677413635
0.022202529425071854813
0.022079129752580837348
0.021570210799087694703
0.020913899265115842158
0.020535725392345237361
0.020385834686780106989
0.020364882365111816598
0.020383171448821884447
0.020478296599102083914
0.020623511619616771706
0.020707815755341838632
0.020744854534552055469
0.020751639187128669006
0.020748963985649418462
0.0207352663221360492
0.020685133713904541031
0.020534236765122712565
0.020359470836238475339
0.020225213915100553191
0.02013067346196914173
0.020072275602721331711
0.020044106971221310742
0.022680491244559244923
0.022891335875846241521
0.02309184993755450041
0.023272619250923724105
0.023424872278227069217
0.02354487664863721269
0.023633336935962770409
0.023694010868516739154
0.023734501870896988068
0.023764606442921522994
0.023793731127318636792
0.02382873137512579384
0.023875606887334050593
0.023936171237355662045
0.024009642765913174339
0.024092220221599548735
0.024179463223826771351
0.024265454623866748729
0.024345234942623712043
0.024416536642344721653
0.024477401859888493069
0.024530069385971072643
0.024576915906744462026
0.024623889010335336253
0.024674472759309083736
0.024732653446190418223
0.024800602078775591669
0.024880552650611977711
0.024971136180469349214
0.025072149581139607094
0.025180967192649290898
0.025295560329674841166
0.025413274406193699789
0.025530377545661737948
0.025643214915893223355
0.025747995424862217539
0.025841532103572765339
0.025920550923313630948
0.025982928792279664371
0.026027480777747410284
0.026055124993097252689
0.026068095537203558876
0.026073202773994667153
0.026074390317815551027
0.02607293278496727873
0.026068762042775476401
0.026062273441953585223
0.026058124670869348138
0.026055346603778929693
0.026048331729510352389
0.026031091040522105762
0.026004948347309091161
0.025972725406222797045
0.025936856907022569352
0.025898593580445064544
0.025859931867183130055
0.025821104876481010271
0.025783407053647566798
0.025746620779570947302
0.025711726927023028505
0.025678531009577256622
0.025647825554346307536
0.025619463678896808867
0.025593622753393656388
0.025569510987473023644
0.025546383764496433805
0.025522995302653863486
0.02549938780565296978
0.025474884849987840252
0.025450970291984269939
0.025426725155662303207
0.025403711011997932856
0.025380207394297686629
0.025357792840579811144
0.02533492253262546387
0.025313363147855226509
0.025291691129888882461
0.025271360354232153683
0.025250032954637284532
0.025229157610791218269
0.025205852014701865538
0.02518291248457545789
0.025157985910441365424
0.025134573442987823838
0.025110228236939938218
0.025087658647599857947
0.025063960052650758464
0.025041553949364615816
0.025017109279006279066
0.024993451717727134531
0.024966608830075426306
0.024940335085383839864
0.024910689198346745027
0.024882434721517503878
0.024851815056726390268
0.024823658501832428225
0.02479372397652539195
0.024766595104500091495
0.024737592134527860294
0.024710923072954336238
0.02468199331257374049
0.024654795391173042057
0.02462515524150006227
0.024597539772696797034
0.024567558892119919361
0.024540044794557531321
0.024509936602134983763
0.024482129790878760095
0.024451485740667626423
0.024423227085694040883
0.024392220533399497362
0.024364411373525754478
0.024334055199917225404
0.024307572060635756345
0.024278692197328421987
0.02425345039757445878
0.024225564079359235975
0.024200807911428912772
0.024173059475990271716
0.024148479868099956974
0.024121058654545109862
0.024096850181790172712
0.024069902754334755041
0.024045851313818374095
0.024018182094827669054
0.0239927636717903979
0.02396286992963084575
0.023935472455690245258
0.02390450566161701762
0.023877191467351521065
0.023846938330985379545
0.023820709930924176961
0.023791012377920597864
0.023765015449180297569
0.023735412124674833828
0.023709231816632796858
0.023679496817708346745
0.023653317149049585266
0.023623599943598767165
0.023597525459218560151
0.023568044879220133997
0.02354214363578092245
0.023512917115691422953
0.02348738369563328765
0.023458598728553520241
0.023433729814806993075
0.02340548136901291626
0.023381080780123505991
0.023353119740997980297
0.023328677535212817562
0.023300694375809935521
0.023276299950519538373
0.023248169582593382343
0.0232237891166574284
0.023195305782707786868
0.023170345541339426587
0.023140826420818431941
0.023115015642207463464
0.023084789733155582775
0.023058948513792993512
0.023029146351411192151
0.023003809322626970341
0.022974545237261313757
0.022949624785163193208
0.022920819181850050905
0.022895939949018589976
0.022867119436703397389
0.022842037694703210687
0.022812931245734968666
0.022788136572477961372
0.02275954244793312875
0.022735683382383770068
0.022708058215124261869
0.022684763413959949802
0.022657181708857922209
0.022632938243051303057
0.022604012806498732097
0.022578387741742887707
0.022548619482883020676
0.022523056415896140076
0.022493976171265864933
0.022469525204082713143
0.022441260596737882399
0.022417595464193702803
0.022389565286939690919
0.022366087769889967524
0.022338270427592288314
0.022314776076821630363
0.022287126764103486198
0.022263765341291631705
0.022236411071813066975
0.022213416416886167665
0.022186296032716261439
0.022163824417253900206
0.022137271618434165021
0.02211555821247467371
0.022089956101170340336
0.022068860079416930536
0.022043506960731359956
0.022022546426817918297
0.021996935740754685468
0.021975818981664313467
0.02194992414248552598
0.021928259060395850072
0.021901914268501642552
0.021879301714254725114
0.021852311592319408062
0.021829526402925767542
0.021802592889365923767
0.021780715694129537674
0.021754762847266420622
0.021734257648922308132
0.021709719764845286649
0.021690398180950819923
0.021666899921917448513
0.021648271397023351875
0.021625141737074356912
0.021606500557300171994
0.021583148488887142491
0.021564709609217951741
0.021540957090036377125
0.021522417268291276632
0.021498203583790984755
0.021478557862793262734
0.021453483312123509952
0.021432546218650972564
0.021406489277833087165
0.021385239343906549403
0.021359037420621632131
0.021338469775460396083
0.021312901426152500856
0.021293241841219060634
0.021268801665006557139
0.021249748144947122608
0.021226049616738917186
0.021207821782514131581
0.021184366176331279052
0.021166979015748963594
0.021144065881784371297
0.021127127161832404134
0.021104806746292829878
0.021087934080451918584
0.021065677000465878738
0.021048748945124477749
0.021026232137383065596
0.021009018001389687808
0.020986085364979190776
0.020968971738321195292
0.020945918307057827951
0.020929304926870440778
0.020907085157556921234
0.020891620190819026881
0.020870339539753906405
0.020855818093172606709
0.020835668996019070937
3.7151372979881596217e-05
4.9364272182779817758e-05
7.8466560982082934157e-05
0.00010061166070744309142
0.00011289871570000856453
0.00013232313279385997406
0.00017299610404409581656
0.00021454322528266861416
0.00024070411031536321296
0.00025652411546269832067
0.00028306049574208536632
0.00034175783194208568441
0.00040420714342984613967
0.0004425820098023628725
0.00046180260416477201136
0.00049228544347072256734
0.00054902684763824657812
0.00060859894821397426089
0.00066111963529217286899
0.00070760333450260823763
0.00075035949680935377752
0.00079270333692892775389
0.0008445882703201097871
0.00091773691334742736256
0.0010136259837325713
0.0011209489688696885543
0.0012225492768873384361
0.0013050787082563334533
0.0013609691639307637794
0.0013912166503286212734
0.0014078212839677558491
0.0014301095403591672882
0.0014805078479289744773
0.0016179636050211070389
0.0018039396889655680365
0.0019542704489489692854
0.0020515249050273381103
0.0020999878161412572145
0.0021196975151701272916
0.0021386138219823382436
0.0021836648387327257242
0.0023263627952713312151
0.0026533805774089577745
0.00294263908141685019
0.0031269894429140233233
0.0032114936794774445218
0.0032387256019618141864
0.0032548711656517183635
0.0032859762887627397623
0.0033392956576227127326
0.0034086102228951553096
0.0034868907438141433924
0.0035665909066492601336
0.0036374065132613654129
0.0036892155959779371691
0.00371962766320024351
0.003736246080719899873
0.0037525790819991234476
0.0037845271741034844371
0.0038655951105380946184
0.0041179879141400813763
0.0045442273037572646424
0.0049029762614440563703
0.0051469755636689238504
0.0052772323029234057337
0.0053301939124177580981
0.0053530679401016523222
0.0053836720528089351129
0.0054508861679206845746
0.0055641396572179424584
0.0057040475387113770064
0.0058512435852070242281
0.0059822522111432890196
0.0060765425551405592708
0.0061285688928585111204
0.0061493689090579995576
0.0061605266270860197658
0.0061825582782499581211
0.0062574807643075904678
0.0065390951913599990042
0.0070497381938548582189
0.0074395878664188881332
0.0076778648782275952037
0.0077932859287887538621
0.0078375886286980375739
0.0078584012877557351401
0.0078889075860952059122
0.0079566817297858326297
0.0081250723258725621179
0.0083634260019671540637
0.0086146601762361347393
0.0088456527297149402378
0.009016132987433289267
0.0091047748034990653998
0.0091254073612868358278
0.0091186491422612855895
0.0091013589502391360059
0.0091067211628192649281
0.0091826213795603850443
0.009524799399595421448
0.010065999344198385893
0.010433120432020409618
0.010648808507787257613
0.01076461157971421792
0.010823111889975386632
0.010852440826904114282
0.010875330494659383659
0.010914600593077987759
0.011007276007966162318
0.011292045168359628876
0.011858827259257763431
0.012312176136301946489
0.012566752151219651862
0.012646689517031286729
0.012645204985174848117
0.012587721476405487608
0.012503383935284878917
0.012486695269877109288
0.012515554839170472609
0.012694960082583356745
0.013169964455020957694
0.013576207432892683363
0.013842984484886092234
0.013989428000004950833
0.014057198181343386403
0.014110322377550431686
0.014213147638178274743
0.014468841369881925082
0.014821516095561627913
0.015118735250530980843
0.015314163811992574302
0.015405469654273406047
0.01542603202562378012
0.015417820858529449404
0.01535554068145903242
0.015183553605892715146
0.015061225431089373533
0.015019782276093712747
0.015026805025982690675
0.015122066618272572008
0.015569601526659435434
0.016633455265462369216
0.017470111145304056954
0.017944141891561377067
0.018146174141901526278
0.018252239823324648005
0.018433955470994512621
0.018905653281972047836
0.019684391376732234685
0.020371030822015613604
0.02081182490139718913
0.020980158179498539783
0.020985408187863534291
0.020856522730735297527
0.020407616842827939335
0.020114926218268717323
0.020068709758429243567
0.020163879047093515723
0.020731508524378938763
0.021821950922329521466
0.022495978452497844557
0.022816854724515236996
0.022984550539201755587
0.023149600986838693439
0.023342001015284847415
0.023497405215922202715
0.023561706016692503252
0.023557780239221042667
0.023455461555912548999
0.02298380744473285317
0.022236479372049328812
0.021763404858823866272
0.021543942251354492728
0.021481732303374224957
0.021481559734147018248
0.021500852992750646431
0.021571749270741943927
0.021675962209011405413
0.021757983576095193956
0.021813637712952076153
0.02184325200412038856
0.021849652432659370793
0.021845925864400535937
0.021820340106091979521
0.021714477324666432018
0.021528039201631980759
0.021391148974325868704
0.021306492436737187873
0.021263711353325425585
0.024297213500940568337
0.024414323105269534336
0.024519428575002825965
0.024611773292096142396
0.024691596878727680581
0.0247603061833237513
0.024819842650742288126
0.024872608751276684136
0.024923372976248095445
0.024977799906001293267
0.025041936900473911465
0.025119215434290902145
0.025211279982636329577
0.025315712983802085567
0.02542715166564660581
0.025538301236866105953
0.025643131663722892183
0.02573639356169230008
0.02581497203670017615
0.025878024963214174559
0.025927471839060186459
0.025966517411445181468
0.026000543089190236018
0.026034880556135273078
0.026074179430687922238
0.026122556693310462761
0.026182885647403883467
0.026255588289778596794
0.026340086345451263483
0.026434421474648729655
0.026536718230837679638
0.026643434578058351747
0.026751402853948048205
0.026857299053973687775
0.026957960862698644722
0.027051552552517219019
0.027136287865247205736
0.027210433255815694165
0.027273420309035664721
0.02732548478615121415
0.027367144659313891175
0.027398440855411310829
0.027421336899031457934
0.027436657227804764347
0.027445201646159253506
0.027450328084716868471
0.027453475069925400293
0.027454848362428927594
0.027454691846973165031
0.02745306044274547011
0.027450567533958122879
0.027447275781356177821
0.027439830636636384359
0.02742133133242976098
0.027381496032617979458
0.027336204969206821802
0.027287821816432362987
0.027240822984045228589
0.027193863377143228516
0.027150562815790223181
0.027108397824239117285
0.027070748737761989033
0.027034236807541179443
0.027002376517673475076
0.026970511733425552026
0.026942100073592906151
0.026911839274547627587
0.026883789064755744119
0.026853797426163415751
0.026826325389920632064
0.026797895903936577028
0.02677204426758093142
0.02674502233902579032
0.026720224353238609255
0.026693848606592796013
0.026670404065735755367
0.026645322001643812621
0.02662351787512390322
0.026599129405324582059
0.026576807933570922859
0.026550685854847752565
0.026526237917178445425
0.02649865911460009063
0.026474091919873748296
0.026447317416132241213
0.026424044948523090631
0.026397965976034387658
0.026374673755627894844
0.026347673270342569785
0.026322560484291719629
0.026293030995413892159
0.026265446807084310427
0.026233637638641362638
0.026205120954938918021
0.026172927920892218728
0.026144706180780321464
0.026113035740862357292
0.026085184619354929297
0.026053964476602336359
0.026026129157287653665
0.025994183275560234919
0.025965516415918512422
0.025932514584574010985
0.025903469029724759259
0.025870614621990146997
0.025841555306754675908
0.025808516615305199249
0.025779017233729422526
0.025745461793016198582
0.025716257177318024157
0.025683263109283517578
0.025655196117213653617
0.025623420315576132117
0.025596490971756268723
0.025565766207662793397
0.02553963879781171939
0.025509148371134920258
0.025483067039419642769
0.02545252516523383024
0.025426723223389305351
0.025396829339246754925
0.025371752066395750896
0.025342210718862279162
0.025316859948795268631
0.025286231421536374542
0.025259207875616460082
0.025226565273837299463
0.025197977738648649065
0.025164863166044330184
0.025137049900974015731
0.025105428747732822653
0.025079198871040001007
0.025048316555020631174
0.025022096526266551786
0.02499060874918732772
0.02496353901880664708