/*--------------------------------*- C++ -*----------------------------------*\
  =========                 |
  \\      /  F ield         | OpenFOAM: The Open Source CFD Toolbox
   \\    /   O peration     | Website:  https://openfoam.org
    \\  /    A nd           | Version:  12
     \\/     M anipulation  |
\*---------------------------------------------------------------------------*/
FoamFile
{
    format      ascii;
    class       volScalarField;
    location    "0.0072";
    object      k_0;
}
// * * * * * * * * * * * * * * * * * * * * * * * * * * * * * * * * * * * * * //

dimensions      [0 2 -2 0 0 0 0];

internalField   nonuniform List<scalar> 
75962
(
3.6023736506293951366e-05
5.2809298728161004706e-05
7.3124556741680914553e-05
8.419685360523886618e-05
9.6814279499261542746e-05
0.00012314534258476059593
0.00016024756590432941822
0.00019279482645005594421
0.00021221249099498323072
0.00022631914594561293474
0.0002535187528555790876
0.0003169872339834699888
0.00037325138981276974499
0.00040160008395303365639
0.00043029869512734464799
0.00047243144116520174522
0.00051608261066331988839
0.00055515313241989564831
0.00059739080112713755389
0.00064816821686681342588
0.00070090884538938380034
0.00074671590591507744621
0.00078832003259818881138
0.00083870809593420368993
0.00090615149735316083066
0.00098820550622643254721
0.001076745025968305243
0.00116023715405702511
0.0012258072058015695611
0.0012662090110190618759
0.0012880554409821849855
0.0013108577000474632649
0.0013584205732344956184
0.0014687013483723101569
0.0016095651957740647955
0.0017437428808908246418
0.0018494006566048405531
0.0019152699779281952795
0.0019458492721548784239
0.001964891364253534313
0.0020014585171611158111
0.0021024761116935995059
0.0023322119385414201952
0.0025457772311120010003
0.0026974066789530433755
0.0027950061982605070229
0.002870834758259553296
0.002950993816851708515
0.0030354899871304647646
0.0031090269077086595158
0.0031636210572873989244
0.0032056593225517262397
0.0032452292841284430779
0.0032853721633911260949
0.0033221917402911321608
0.0033511067823615335939
0.0033726827639791018797
0.0033961166293268859814
0.0034402073119404927813
0.0035482484479635828349
0.0038364260811663960724
0.0041959617525635477253
0.0044922972139949625056
0.0046842704578544530625
0.00477511310826408443
0.0048044701800885021917
0.0048168009447124562547
0.0048400760533299337987
0.0048945677388861829823
0.0049859530348753461002
0.0051044722289491769804
0.0052436079550823013959
0.0053876187875742794983
0.0055128768990350537557
0.005598994547422624958
0.0056427642540920674649
0.0056662987356032598965
0.0057047675983718064419
0.0058069413361822213096
0.0061117389962874581547
0.0065011074859221496328
0.0067996545590215838259
0.006989030920225580007
0.0070866988892494073987
0.0071271631769970825165
0.0071417010385731310995
0.0071518855285891526699
0.0071701131940860272918
0.0072129917172158598132
0.0073339705907123405731
0.0076070663914906506628
0.0078986384326554422153
0.0081505203765109036917
0.0083192311872379281351
0.0083918826730895162286
0.0084012168133596083763
0.0083951660228681335152
0.0083990778864442908191
0.0084647762095100050755
0.0087494157281612916499
0.0091119311437514571156
0.0093433238884091558696
0.0094857085784437605858
0.0095829673936576112436
0.0096595594175355545957
0.0097216886447123798676
0.009769782957100700202
0.009821269037163026655
0.0099180629641510559269
0.010155117378440076115
0.010559518254475989268
0.010936621771890985694
0.011189390830084803424
0.011295369682399953801
0.011307643003098461626
0.011291802379660454206
0.0112784935834175995
0.011300170423498536593
0.011452972183739701037
0.011949264070688605383
0.012500702199586618754
0.012934411971846701897
0.013253834054568133793
0.013454886128257912206
0.013551915379172753406
0.013581661475246205317
0.013589223099140934278
0.013603262562438081865
0.013662199947175839368
0.013864317084012627718
0.014060471472003439539
0.01415137039373889731
0.014170195629315171168
0.01415961074365637215
0.014084485570285545236
0.013875837053303590948
0.013716271123488039604
0.013649945730181807513
0.013646304282184778742
0.013703244730645007879
0.014021338247284428555
0.014802424504232088165
0.015348458648243005001
0.015637532032960883149
0.015853884909530532865
0.016166685372724910047
0.016653580965669951414
0.017289829881363110581
0.01796020979905521911
0.018524181362588678507
0.018874679314580984635
0.019002037473701202663
0.019004495297141474341
0.018902170943593938485
0.01855485975852726177
0.018336373912706614708
0.0183067210907189859
0.018400931366406244466
0.018941468688291739075
0.019917794023553040544
0.020499400342427753774
0.02073332598478669006
0.020778410806253151677
0.020774169335347387327
0.020770901479773614534
0.020779623196375669736
0.020781657152418336887
0.020751674579431063361
0.020578157412425836237
0.020022384473540509597
0.019478447933117881002
0.019174941549952740499
0.01906138760823883338
0.019049158219891563354
0.019071545533338601225
0.019182282699706287854
0.019355153141410702533
0.019465659006810600434
0.019521032207875668729
0.019540896638179674344
0.019541652826017812811
0.019536677066015736837
0.019515095723610348388
0.019437435240833987604
0.019276475518429456862
0.019136962153716401136
0.019031211713228551874
0.018962219026128105531
0.0218079269780160033
0.02195786842758299176
0.022100271094666116417
0.022226658623923346847
0.022334275978922336209
0.022421836679260152142
0.022491875385715072444
0.022549452845918662586
0.022599726510807795904
0.022647774812615248385
0.022697428634028671973
0.022752708022607499166
0.022814634809750197753
0.02288338993358035936
0.022957042596621377722
0.023032379760810760272
0.023105260061446832726
0.023172822843015070116
0.023231982920054298353
0.023282094717832480663
0.023324827782440035739
0.023363434495472849145
0.023403163889373329587
0.023447022077132353979
0.02349827328188731565
0.023559373169644202972
0.023631396426914877407
0.023713922017986700796
0.023806308117535989605
0.023906729221650161593
0.024014191427949332924
0.024125496574772413438
0.024237725324176579572
0.024346863346732378758
0.024449049768716871883
0.024539964822115862414
0.024615254021788518513
0.024673989052699983604
0.024713973912655722021
0.024736847798989065189
0.024746455892718278308
0.024749421202114475077
0.024748677204576467054
0.024745769946198915151
0.024737154716209474453
0.024727871612359071662
0.024722782672337694637
0.0247184155233929094
0.024708990190904268208
0.024692983285829923912
0.024669899916717620558
0.024641689116783327407
0.024609371911856917775
0.024575068773335134037
0.024539836284941152905
0.024505008140271494071
0.024470838472690749354
0.024437817315948136276
0.024405838058483987629
0.024375560464255534299
0.024347045322288801
0.024321131392694414486
0.02429714915024602101
0.024275378713053873125
0.024254125787634899653
0.024233355689882565831
0.024211893449302378245
0.024190158379851469522
0.024168364540150127223
0.024146546760377928659
0.02412525625606542351
0.024103817991407344712
0.024082977188100190141
0.024062285298805882044
0.024042411384618544989
0.024022916176547660233
0.024004002628019573823
0.023984464266814716632
0.023964742676831601864
0.023943111265405395138
0.023921292272679844232
0.023897881934384076347
0.023875227202132615067
0.023851897656344638737
0.02382961795547259426
0.023806719010070309661
0.023784784936703166208
0.0237615793150558266
0.023738986863556330725
0.023713866334038911227
0.023688730299314744721
0.023660609444278550562
0.023633071262989562705
0.023603675379536958462
0.023576283935446976786
0.023547724599859449351
0.023521520692868554819
0.023493927652671695722
0.023468269471744223481
0.023441213647497807782
0.023415669231598743721
0.023388520329160007727
0.023362823695563278426
0.023335098869104703434
0.023309307969344245093
0.023281425874268971143
0.023255456682006132862
0.0232271637826664476
0.023200465216774931315
0.023171274580442262347
0.0231444624144400736
0.023115497813568378072
0.023089910004504644869
0.023062578449209340109
0.023038522656680084089
0.023012588411721216636
0.022989291282349569312
0.022963581746745048012
0.022940238970525751727
0.022914427506037768345
0.022890979499919205525
0.022865462664864354136
0.022842267656379037361
0.022816371618813061778
0.02279230443672020795
0.022764504872373685085
0.02273860591985962451
0.022709527619637955714
0.02268319958004622397
0.022654221374891148066
0.022628385922235084299
0.022599722387191233108
0.022574199951917242601
0.022545938735873960468
0.022520809557023936665
0.022492922669647905098
0.022468214436972357845
0.022440709665481572282
0.022416189493902661384
0.022388849446525922737
0.022364145538739849811
0.022336634918396353067
0.0223118056732384204
0.022284387878166073832
0.022260038403489411374
0.022233130220719498488
0.022209331186522695417
0.022183007235492741005
0.022159471337104125893
0.022133323050960235917
0.022109975473327696943
0.022083587294656793765
0.022060186207242205025
0.022033575010081352108
0.022009854777620786043
0.02198255642869704346
0.02195831479072272302
0.021930346548487758551
0.021905952721923589721
0.021878073003156157245
0.021853742918406391521
0.021826163148896939037
0.021802031130338128673
0.0217749326385055543
0.021750856711373146857
0.02172376818086806799
0.021699443021043714197
0.021672041905341173085
0.021648025306458189981
0.021621137596330271963
0.021598049326249459112
0.021571981437768873724
0.021549339954004393533
0.021523453101030827483
0.021499941668080162216
0.021473045063162402024
0.021448479672118127975
0.02142095232977633476
0.021396584475522648777
0.021369847349068587378
0.021346738776570704094
0.021320745414333926865
0.021298336937672777275
0.021272284504678447281
0.021249632004673193325
0.021223317681103755217
0.021200154091241797671
0.021173825155887528865
0.021150785502128514187
0.021124974098944575979
0.021102729157039076813
0.021077596673713894226
0.021056217596245450918
0.021031937342957447712
0.021011322807047452116
0.020988070865201612775
0.020968099844601614801
0.020945046611137461967
0.020925247658282155466
0.020901761214555808488
0.02088165783115372362
0.020857737443038773528
0.020836874339120778354
0.020812485504568788153
0.020790560433217860486
0.020765475189846754889
0.020743256945038302669
0.020718003401525103557
0.020696766782694431958
0.020672804579976993
0.020653250205418739044
0.020631098542286434999
0.020613029453752634151
0.020591770246562501878
0.020574111659279990805
0.020552708158898015667
0.020534626176866990072
0.020512742077708426974
0.020494441085278515546
0.020472184233994092373
0.020453956793392243096
0.020431649842627467445
0.020412746836816181295
0.020390045113080602912
0.020370494019729189911
0.020346912210264689325
0.020327064727010370898
0.020303251251755329715
0.020283627447255446474
0.020260002413342810546
0.020240831016406495013
0.020218114223308047972
0.020199594443202087413
0.020177683840047058034
0.020160316846704065541
0.020138994810112591932
0.020122617871099729436
0.020101834988608454496
0.020085690123246870836
0.0200651986796721582
0.020048778401958601558
0.020027835970555001727
0.020011216332128971968
0.0199898397097630319
0.019972974460598886398
0.019951581665613327826
0.019935202419915636074
0.019914240514672925525
0.019898802072622890497
0.019878871999323619729
0.01986454078164701445
0.019845263946759599677
0.019831454893614899188
0.019813066354405627079
3.6129044547242568993e-05
5.2443966304298234623e-05
8.3676995071792654177e-05
0.00010449567281086438947
0.00011714250703820162415
0.00014118289499344662745
0.00017309539358135588331
0.00019623124185143858722
0.00021287529488194734876
0.00023830892960598318341
0.00028362538490673834101
0.00034333230490169011672
0.00039594430805365107189
0.00042516815718143650569
0.00044253140996414614934
0.00047618874841609477909
0.00054886228429792136355
0.00060491367753166315219
0.00064008846539677735112
0.00068319695399121399722
0.00074446779206002429777
0.00080443446665031000369
0.00084594750443661389551
0.00087764578114251365955
0.00092471957441165307003
0.001002353413887459993
0.001101194657725649553
0.0011941160301725819385
0.0012579840071985383919
0.0012910229227344465364
0.0013142866956434681898
0.0013573321764739851043
0.0014517866735184355165
0.0015797288048471471236
0.0017095908807156932809
0.0018201698806764869849
0.00189882915337045966
0.0019439878730964459379
0.001966832832463272316
0.0019914277881210918665
0.0020455034799209599085
0.0022020459292676868024
0.0025237829272751503493
0.0028021009654580534241
0.0029736075183943860845
0.0030443871670191614831
0.0030642851497274027107
0.003082411908333446398
0.0031301119369183073513
0.0032136068964428317861
0.0032894272261381695376
0.0033493764455538969915
0.0033946162902228891635
0.0034279224356905412842
0.0034507582780757268918
0.0034658285705987355863
0.0034796990775122875472
0.0035024005968691276046
0.0035512037621722833576
0.0036826189945598150621
0.0040196684655553049231
0.0043982085308523063624
0.0046998221450476095409
0.004892416556245602656
0.0049852521997601657866
0.0050173697473339662345
0.0050315718565772027046
0.0050569466750302431712
0.0051190696277692310928
0.0052303129941580761564
0.0053608967413516202608
0.0055004950423234973481
0.0056353185212735861995
0.0057480181568222172422
0.0058246189767078076702
0.0058635251872846258156
0.0058824538158917206651
0.0059106822549035769807
0.0059854489125483354914
0.006237156888097492892
0.0067361796498883481227
0.0071524292286604821203
0.0074311210086767673713
0.0075818941707483083342
0.0076470948401400297076
0.0076714695270384339332
0.0076834991227252204954
0.0076979598416509892322
0.007725355915363097542
0.0077868839102557974724
0.0079555775831159740441
0.0082105870323990349374
0.008437312922589727468
0.0085953276482835377914
0.0086707857100461523808
0.0086857493242309905673
0.0086824165466555802695
0.0086842603609390452146
0.008727150109320900781
0.0089373120830483088889
0.0093519388117291064183
0.0096695108681284554913
0.0098929064535792799601
0.010051370235664228159
0.01016655059062138676
0.010248091888416369089
0.010300905769971934259
0.010342570349046327147
0.0104103726326911835
0.010570241727473637938
0.010982027189239936329
0.011445301696527463917
0.011776739401671808272
0.011940641618261459492
0.011978688781335795899
0.011971788528487110545
0.011951449060268976715
0.0119554704065208562
0.012025341221550122153
0.012335446606006999701
0.012884775420684680888
0.013325084575918539481
0.013638520085943354326
0.013827805524999776596
0.01391718709304610134
0.013948264460656048178
0.013968675304369918
0.014011126114238372717
0.014142211890778915925
0.014428302369524744625
0.014654555244854183468
0.01478018249668448629
0.014822950081310756407
0.014824321641801271529
0.014797036043860506763
0.014670530021875233598
0.014503407849472899419
0.014419620838585583966
0.014404202130323912751
0.014432245747254730112
0.014615320591313950283
0.01522696545804242893
0.015876842169557939255
0.016339656190553455972
0.016702831493908484872
0.017086353120596121935
0.017586147204321781606
0.018219386868351034048
0.01889831145945213009
0.019487888365758571085
0.019869112997508358437
0.020016414440996856822
0.020023253788948366244
0.019924010800411784405
0.019549701330879940692
0.01927538688288543689
0.019219905229868088775
0.019281705808591599605
0.01968366251033731168
0.020569034819859589869
0.021156724824900170756
0.021473363044704023989
0.02167073319063814521
0.021855909945675652123
0.02203938396914003825
0.022169097636102835791
0.022213186141438457516
0.022201842846801211895
0.022077614129868281673
0.021566858939315852045
0.020911419427210597294
0.020534334763414052033
0.020385213317213574102
0.020364584324831021267
0.02038305392659296375
0.020478594835504560639
0.02062360610333981159
0.020707618347908417905
0.020744436719267407565
0.02075111079116928603
0.020748400068178109168
0.020734649883456683639
0.020684298891002456111
0.020533014492235095172
0.020358401886918960078
0.020224317735745542951
0.020129944441876088113
0.020071700328204957614
0.020043650941901556412
0.022680955825445076046
0.022891787650991174408
0.023092211027990788147
0.023272865644672853513
0.02342499949052377281
0.023544898350807575566
0.023633262790468415049
0.023693846980538259273
0.023734258669935327096
0.023764303275228531448
0.023793397906796492913
0.023828410932853330562
0.023875344239879171815
0.023935994732602963037
0.024009555850667024801
0.024092202568571252641
0.024179477854838149486
0.024265456894591058701
0.024345190146087783423
0.024416425242653496536
0.024477227904735589237
0.02452986186749739686
0.024576719269433194848
0.02462374420475200304
0.024674400061754048902
0.02473265294094796965
0.024800658470933805572
0.024880641265347086533
0.024971237890230608275
0.025072259724303134348
0.025181090307943340689
0.02529570481805323498
0.025413438694596172246
0.025530547048273531663
0.025643369431024552046
0.02574811694625879846
0.025841606762346130272
0.025920567245269362372
0.025982877945701376293
0.026027359806123279151
0.026054940077482876409
0.026067870794433629922
0.02607297159166234099
0.026074177569681399741
0.026072739018605288475
0.026068585235540262662
0.026062118731419416789
0.026057980422424350392
0.026055183787316121141
0.026048106779777216446
0.026030773584631700795
0.026004566339826708232
0.025972289732772747828
0.025936384895697026792
0.025898101027545375463
0.025859428407851693665
0.025820594728965438891
0.025782894647393049536
0.025746115137015912477
0.025711243093315221814
0.02567808494795478097
0.025647427958699786643
0.025619113224301392345
0.025593303918710275796
0.02556919680261032779
0.025546045240393888687
0.025522612780051849579
0.025498955822845795205
0.025474413786869105902
0.025450477774562538236
0.025426229395502309566
0.025403224236501504435
0.025379737428554791784
0.025357344645335396643
0.025334499727225380517
0.025312966870505625161
0.025291317527512277574
0.025270997384169463507
0.025249663379350018727
0.025228763020646520487
0.025205423458243513685
0.025182454137417098483
0.025157516611136385848
0.025134118203409210046
0.025109805965633884284
0.025087275038323336718
0.025063605635472718802
0.025041207120238686418
0.025016745629815553831
0.024993049638789878453
0.024966158835951095252
0.024939840057976787879
0.024910165025082649237
0.024881903382087136589
0.024851297699316640677
0.024823169238090993932
0.024793267970123405997
0.024766168641228915315
0.024737185287909694426
0.024710525102831882444
0.024681595055217372958
0.024654392812545243563
0.024624749158262824317
0.024597131017494704847
0.024567147985726584675
0.024539628871898061524
0.024509511956542270189
0.024481694173472987736
0.024451042971749145649
0.024422785705913496734
0.024391794178844152657
0.024364010879071230919
0.024333687586241822126
0.024307235614824628661
0.024278379312999528311
0.024253152249876466784
0.024225272313949223341
0.024200519105805725489
0.024172774634304037417
0.02414820159493764884
0.024120786814748395449
0.024096580415131383518
0.024069624096701994903
0.024045549263518227467
0.024017843887204466669
0.023992381464439164335
0.023962446253400500329
0.023935019343707442802
0.023904039894258686388
0.023876728073371777245
0.023846487260966983679
0.023820274086810911546
0.023790590295844561003
0.023764604702736231989
0.023735008797616634346
0.023708834884308790936
0.023679105952476683233
0.023652932826592511228
0.023623220738596163726
0.023597151099904185856
0.023567673466480601463
0.023541774642278578966
0.023512552081247150432
0.023487023947764081727
0.023458249480548878929
0.02343339465831855567
0.023405163733678086696
0.023380782643351687156
0.023352838942511437714
0.023328410244453486044
0.023300433884066721474
0.023276037632859875037
0.023247897910913070674
0.02322350205243700963
0.023195000150037562575
0.023170021480505450379
0.023140488258663952092
0.023114669535852269688
0.023084443215674599337
0.023058606524450332709
0.023028810103908971957
0.023003476644453776934
0.022974211472435831366
0.022949286052470475178
0.022920471770207170165
0.022895585095160143202
0.022866761628374417809
0.022841683451391536774
0.022812588145198438305
0.022787808119867081214
0.022759227449786218617
0.022735375499447665892
0.022707747166072232703
0.022684437949172971127
0.02265683141578176199
0.022632559201091081297
0.022603607051134684547
0.022577963080603089679
0.022548186906960168002
0.022522626614217163693
0.022493556896013851276
0.022469118625556158686
0.022440866107076965635
0.02241720927373283892
0.022389184160892180997
0.022365708526612175511
0.022337889192031102487
0.022314391363827578568
0.02228673780294677248
0.022263373480415390993
0.022236019192386692611
0.022213029421551764436
0.022185921689097116982
0.022163470221543603994
0.022136942820096986578
0.022115255754177984282
0.022089674670538930051
0.022068590797723084546
0.022043239317889574969
0.022022268550993779473
0.021996637946042462558
0.02197549390702260852
0.021949569104495733618
0.021927878329403512753
0.021901514727802450649
0.021878895734274376311
0.021851912369815602866
0.021829145037111991751
0.021802239097661615941
0.021780393059473490691
0.021754471591851946843
0.021733994127087267328
0.02170947843475189154
0.021690173570471597136
0.021666686132663745545
0.021648063665404608524
0.021624935859500163393
0.021606293903004916007
0.021582940478658357852
0.021564496534440903697
0.021540737198518823681
0.02152218681581246143
0.021497958492511709538
0.021478297422688363838
0.021453205058785694559
0.021432250151768993118
0.021406177143715850175
0.021384912882659520839
0.021358702060491740332
0.021338130830029417018
0.021312566535285158015
0.021292919087365465985
0.021268496421382045158
0.021249466887282342925
0.021225796193929006433
0.021207594800179134509
0.02118416360545304078
0.021166793482387358943
0.02114388931508288938
0.021126952642591886877
0.021104625970081013903
0.021087741589967096134
0.021065468799730716065
0.021048523683385805816
0.021025991658796479994
0.021008766026746183292
0.020985828526573151176
0.020968714510562383446
0.020945666623402844908
0.020929062762977391349
0.020906854893318858879
0.020891401103269539169
0.020870129577268230897
0.020855614615851624655
0.020835467574803555324
3.709949361490631276e-05
4.9370831398361204271e-05
7.8485995401963157877e-05
0.00010059097743326529098
0.0001128755358912106446
0.00013233458451821986102
0.00017304151631749610778
0.00021455524467016857384
0.00024066554335777136115
0.00025648320366680055086
0.00028307641832347508765
0.00034183609467797692293
0.00040423594249851003144
0.00044253649243434340331
0.00046174157842139980324
0.00049228198216656803097
0.00054906505541890270484
0.00060862021260350601844
0.00066110396527934789726
0.00070756045496369918309
0.00075030870772931621861
0.00079267545366936526755
0.00084460984399570358371
0.00091781604885625650645
0.0010137442205271499432
0.0011210612505789386943
0.0012226107092466595092
0.0013050653226397532398
0.0013608734529372307643
0.0013910529023558691059
0.0014076382711135345185
0.0014299752735796049299
0.0014805264939224134068
0.001618306181965111076
0.0018042204623098954865
0.0019543929282770629643
0.0020514782179038128576
0.0020998035323815124852
0.0021194502800709526941
0.0021384061924286999583
0.0021836266753240281789
0.0023268926682685018431
0.0026541553564934654459
0.0029430502262072092204
0.0031270366317726122282
0.0032112988050072683276
0.0032384406897201338527
0.0032545985190772226507
0.0032857660875080254258
0.0033391538049003114189
0.0034085047025550299117
0.0034867905881474665214
0.0035664683634142450332
0.0036372360294974980487
0.0036889816225414164517
0.0037193441030737382086
0.0037359533479569139065
0.0037523219728501687811
0.0037843465693485306249
0.003865685847607753297
0.0041189530486484739885
0.0045452205953071369085
0.0049036453342189562088
0.005147211042384585919
0.005277102194475496999
0.0053298825562977597894
0.0053527454435436183991
0.0053834335528906759188
0.0054508104676018820714
0.0055641701551462354955
0.0057041258954130162964
0.0058512958108723573877
0.0059822055241739655052
0.0060763577023557309789
0.0061282534045784932755
0.0061489690479854773597
0.0061601112810150734228
0.0061822002027080600814
0.0062574858534149542869
0.0065403176095007245494
0.0070509133254643106825
0.0074402665997690105651
0.0076780368308726762785
0.0077930948060626224413
0.0078372170001585906435
0.0078579927339841454392
0.0078885599100383899801
0.0079565408646591982006
0.0081253431206646815205
0.0083637777800976212395
0.0086149889893897321075
0.0088458275022035102314
0.0090160376223165916709
0.0091043831777520897036
0.0091248330173517005343
0.0091180039422581096037
0.0091007875431804736294
0.0091062906969703993204
0.0091827139236267674161
0.0095263051565643783181
0.010067142907809219568
0.010433622186518417066
0.010648850446538482908
0.010764400024242413989
0.010822776448297552823
0.010852061199211171516
0.010874971843986445605
0.01091433563024427067
0.011007323795543866307
0.011293308611969924554
0.011860178556232963201
0.012312881625445207256
0.012566707014566807707
0.012646151137315370452
0.012644526786416780337
0.012586744558575757233
0.012502655992619253825
0.012486183439697279979
0.012515309919278381351
0.012695702687851119494
0.013171266212137645174
0.013576863821670897767
0.013843162219524769024
0.013989282534891402457
0.01405693359776239576
0.014110151827643855824
0.014213245937970273719
0.014469536213377298325
0.014822104088937644584
0.015118978612799791744
0.015314038155948237266
0.015405070651658272357
0.01542551142490583907
0.015417225915344986986
0.015354577485032131975
0.015182408254913664497
0.015060456666275309073
0.015019282283041199971
0.015026449163806061479
0.015122339108244307881
0.015572221545130824835
0.01663692940542736004
0.017472063809358614334
0.01794480978916252259
0.018146095812905237155
0.01825212221345456215
0.018434390092549539364
0.018907770586308440125
0.019686780568806943464
0.020372745427281357261
0.020812455609088831993
0.02097984987547521149
0.020984725277885012823
0.020854838330343173497
0.020405215611478060012
0.020113806480337621807
0.02006823429086856958
0.020164230689773979255
0.020735041447387018987
0.021824811975873804892
0.0224972088710028717
0.022817066848930641493
0.022984521767738415321
0.023149714756613985062
0.023342151821431112585
0.023497291988592603623
0.023561234134212707264
0.023557110289871927705
0.023454031774199975147
0.022980276124239626401
0.02223357527417521573
0.021761642292175160246
0.021543056089388532698
0.021481295334004855968
0.021481216361184499869
0.021500607073818827492
0.021571704777526255759
0.02167582675065128292
0.021757721115655277722
0.021813257978185673913
0.021842773689604771947
0.02184912668855866491
0.021845378656593816141
0.021819653825213641829
0.02171329554210375129
0.021526923016323893517
0.021390259065479696327
0.021305814474561569904
0.021263183558477189578
0.024297255318349083447
0.024414299808949914417
0.024519335195508338426
0.024611622740661257686
0.024691412891194274015
0.024760111556579252751
0.02481964591501943998
0.024872410060177266994
0.024923174037746735621
0.024977609148322310606
0.025041770592550020857
0.025119096354997327153
0.025211227246220348913
0.025315726842291844112
0.025427210047482298044
0.025538369728156668642
0.025643174293551711934
0.025736378839239060917
0.025814879274479441557
0.025877849045335618583
0.02592722473064373867
0.025966228779919189179
0.026000256855527609928
0.026034639523692244129
0.026074013282777957351
0.026122476899083178076
0.026182882296957910723
0.026255637567385293335
0.026340162264356585531
0.026434506142174754584
0.026536804079186297051
0.026643521394108068967
0.026751491322239102227
0.026857384093240420364
0.026958034807755774237
0.027051607649716563619
0.0271363158763155074
0.027210427615960111614
0.02727337821652955907
0.027325406535875697983
0.02736703286343079855
0.027398304366050226649
0.027421187676962856944
0.027436503415469045558
0.027445054123596473311
0.027450193752041524009
0.02745334721491144922
0.027454713880624214556
0.02745453901668374469
0.027452872531026174113
0.02745034847691193991
0.027447015632333326279
0.027439510798390236157
0.027420902906012935285
0.027380980407771687152
0.027335658579738481705
0.027287257669516219033
0.027240253669527238201
0.0271933046318932857
0.027150032313760969621
0.027107912355344966626
0.027070316004032944635
0.027033851300123902528
0.027002016755698285411
0.026970150134164060096
0.026941709814585615423
0.026911404285151045018
0.026883309726449908239
0.026853287875248318256
0.026825807223701651077
0.026797386820683694042
0.026771554796114056113
0.026744555883966226323
0.02671978063353932023
0.026693428731951126393
0.026670006615913736253
0.026644942832238002056
0.026623144475474948972
0.026598744557639813352
0.026576394154199881742
0.026550235309757030944
0.026525758235351640929
0.026498171016262551253
0.026473620007409544991
0.026446879755203829554
0.026423643909136700081
0.026397589843670559578
0.02637430113773041665
0.026347281133352495885
0.026322131952195348958
0.026292561204517100187
0.026264942212327457155
0.026233114602223606138
0.026204596269231567734
0.02617241626736736132
0.026144215652593390947
0.02611256714590086056
0.026084734135640448571
0.026053523792541950777
0.02602568882463479269
0.025993737510512912592
0.025965062792168494554
0.025932055330415312161
0.02590300692825717177
0.025870150222882977442
0.025841088380072509828
0.025808045941751185659
0.025778545695612990751
0.02574499737125592741
0.025715810382918861954
0.025682844551956216655
0.025654810389390127895
0.025623064777237712641
0.025596158248344168945
0.025565445440505141922
0.025539320078764332633
0.025508828006500790242
0.025482747471403395523
0.025452213329044310469
0.025426424879426881565
0.02539654442906155718
0.025371471460815201576
0.025341918430526525624
0.025316538618766905311
0.025285868227072526987
0.02525879868546873977
0.02522611829369186473
0.025197511013001529234
0.025164398175377168665
0.02513660266678504826
0.025105005624058245733
0.025078795648745686592
0.0250479228883536513
0.025021701122533910461
0.024990203819524107326
0.024963122182627181522
0.024930807282383268819