/*--------------------------------*- C++ -*----------------------------------*\
  =========                 |
  \\      /  F ield         | OpenFOAM: The Open Source CFD Toolbox
   \\    /   O peration     | Website:  https://openfoam.org
    \\  /    A nd           | Version:  12
     \\/     M anipulation  |
\*---------------------------------------------------------------------------*/
FoamFile
{
    format      ascii;
    class       volScalarField;
    location    "0.0072";
    object      pPrime2Mean;
}
// * * * * * * * * * * * * * * * * * * * * * * * * * * * * * * * * * * * * * //

dimensions      [2 -2 -4 0 0 0 0];

internalField   nonuniform List<scalar> 
75962
(
868287.67153358459473
848897.62482261657715
840485.13183975219727
834797.82641410827637
830355.03235816955566
826325.65533638000488
822255.28685569763184
818178.67122650146484
814186.64075469970703
810271.13527297973633
806452.16443824768066
802753.66361045837402
799126.79142379760742
795521.43669509887695
791973.16191482543945
788563.27540969848633
785317.12169456481934
782203.48789978027344
779166.53499031066895
776170.11330223083496
773203.58431816101074
770256.38003921508789
767338.97605323791504
764492.06579780578613
761818.62171936035156
759387.64950752258301
757199.05672454833984
755244.71081161499023
753525.9315357208252
751987.84324073791504
750584.07590866088867
749323.44644546508789
748214.34389877319336
747218.66011238098145
746277.13332176208496
745350.16585731506348
744433.92155838012695
743529.5224437713623
742633.23430633544922
741729.10260391235352
740796.38625335693359
739816.44117164611816
738779.85267448425293
737685.33658981323242
736527.88407325744629
735300.10737419128418
733997.24557304382324
732610.09063911437988
731132.0995044708252
729551.24717140197754
727861.26203918457031
726075.7063045501709
724197.28090667724609
722215.34561538696289
720135.25150299072266
717972.7203311920166
715740.82020378112793
713449.20866394042969
711121.96226501464844
708804.25804710388184
706547.11664009094238
704369.85856437683105
702253.99664306640625
700170.28927993774414
698116.31130027770996
696125.51173782348633
694215.82579040527344
692367.12479209899902
690545.2193431854248
688725.53355026245117
686903.23596000671387
685081.33490943908691
683257.85612869262695
681425.52682685852051
679575.23233604431152
677700.01267623901367
675801.36316108703613
673892.61336326599121
671986.30792808532715
670079.45024108886719
668162.31743621826172
666232.30340385437012
664292.85708808898926
662347.77437591552734
660397.24456214904785
658446.25178337097168
656501.37896919250488
654568.68951797485352
652658.98223876953125
650791.95625305175781
648984.46663093566895
647237.10520553588867
645539.66779708862305
643885.80193519592285
642286.11703681945801
640760.63411712646484
639313.32317352294922
637929.0962963104248
636584.05782318115234
635257.46880912780762
633938.78461837768555
632627.4703311920166
631328.74745941162109
630046.76990127563477
628778.03075790405273
627510.11294174194336
626227.17460060119629
624913.11518287658691
623556.09412384033203
622151.02154922485352
620699.01647758483887
619204.1547966003418
617670.33816719055176
616100.17609214782715
614496.36368179321289
612860.66197204589844
611194.46436500549316
609494.33512687683105
607747.17044830322266
605935.83041763305664
604051.81233787536621
602101.09431648254395
600099.71650314331055
598062.39355087280273
595993.14314651489258
593890.50846481323242
591760.69341659545898
589624.67033004760742
587510.62767601013184
585442.05300521850586
583429.46100807189941
581470.99470901489258
579559.55674743652344
577689.98844146728516
575860.21701240539551
574070.0918140411377
572320.22490501403809
570610.5999870300293
568943.0959358215332
567323.52335357666016
565758.1662483215332
564248.21233177185059
562786.26282501220703
561355.92849159240723
559939.23814964294434
558527.65546035766602
557123.84065246582031
555734.2455997467041
554357.73500823974609
552980.5700740814209
551579.95187950134277
550136.3290901184082
548641.39491081237793
547100.12729454040527
545525.25435256958008
543928.7398796081543
542318.01234245300293
540697.19834136962891
539068.51664733886719
537430.98335266113281
535775.37417411804199
534086.42169952392578
532355.40717506408691
530589.27538108825684
528805.17901992797852
527016.15201950073242
525222.9806957244873
523418.42999839782715
521598.99679946899414
519772.47945976257324
517952.25783348083496
516146.21709632873535
514353.08441162109375
512567.85222625732422
510786.39261436462402
509006.35086059570312
507229.26808929443359
505463.20127487182617
503720.8162956237793
502014.87604713439941
500354.72084617614746
498745.64816665649414
497190.69462394714355
495691.75394630432129
494247.13983345031738
492849.1368408203125
491485.06170272827148
490141.83969497680664
441421.6756706237793
440352.41555023193359
439273.36653327941895
438187.5970401763916
437094.71562004089355
435991.90200233459473
434873.97497749328613
433735.11146926879883
432573.02978324890137
431392.87675476074219
430206.37829208374023
429026.40102386474609
427860.90444946289062
426710.00074195861816
425566.5864315032959
424419.03205108642578
423255.24704360961914
422067.61076354980469
420856.61942100524902
419630.33201599121094
418399.77519416809082
417172.79421997070312
415949.72456741333008
414723.3768482208252
413484.49844741821289
412229.48796844482422
410963.61947250366211
409697.41884613037109
408440.74728393554688
407199.89660835266113
405978.04433441162109
404776.06648063659668
403593.57446479797363
402431.73357582092285
401295.41631889343262
400191.66690063476562
399125.53085899353027
398096.80425643920898
397098.9752368927002
396120.88168716430664
395151.04722213745117
394182.32930946350098
393213.75040817260742
392248.45314979553223
391290.1210994720459
390340.24837493896484
389397.53306007385254
388459.69866943359375
387526.4956111907959
386601.49810409545898
385690.83749008178711
384799.98403549194336
383931.47527503967285
383084.62251281738281
382256.33011054992676
381441.50497055053711
380633.65636825561523
379826.86698150634766
379018.06761360168457
378207.66213035583496
377397.59158897399902
376588.2254810333252
375776.4121036529541
374955.85498237609863
374120.13657188415527
373266.62586212158203
372398.22491645812988
371521.60729789733887
370643.26197624206543
369766.91224670410156
368893.88563919067383
368024.06755828857422
367155.42411613464355
366283.52905654907227
365402.99944114685059
364510.10054969787598
363603.93044853210449
362685.18427085876465
361754.37067985534668
360811.76191520690918
359858.74337005615234
358897.6732177734375
357929.34263229370117
356950.53073692321777
355954.50208854675293
354934.30024909973145
353886.08881378173828
352810.77499389648438
351714.01376342773438
350604.36828422546387
349490.4733829498291
348378.7693920135498
347273.06264686584473
346175.3133716583252
345086.05447387695312
344004.09024238586426
342926.22421073913574
341848.28267288208008
340767.69658660888672
339686.17609786987305
338610.04509162902832
337547.46477890014648
336505.06244850158691
335486.35027503967285
334491.75745391845703
333519.2053165435791
332565.50778579711914
331628.33013343811035
330706.91411590576172
329800.72359085083008
328907.69488143920898
328024.72608947753906
327149.76679420471191
326282.88005256652832
325424.82079124450684
324575.03418159484863
323731.1981372833252
322890.78276443481445
322053.3575553894043
321221.56357192993164
320399.31986808776855
319588.57695388793945
318787.83121681213379
317993.57879829406738
317203.07441329956055
316415.68371391296387
315632.18836212158203
314853.10209274291992
314078.04987335205078
313306.36765289306641
312538.23250389099121
311774.57670783996582
311015.60269927978516
310259.40605354309082
309501.76915550231934
308737.26037216186523
307960.5625171661377
307166.85177612304688
306351.61755180358887
305510.85175514221191
304642.8189811706543
303749.53630256652832
302837.41132545471191
301915.20940780639648
300990.54109573364258
300066.49586486816406
299140.57283401489258
298206.82684326171875
297259.24274826049805
296293.58407402038574
295307.20888900756836
294298.09760665893555
293265.13656616210938
292209.37041091918945
291134.82938385009766
290047.59469985961914
288953.96112632751465
287858.90958786010742
286765.89413833618164
285677.58413505554199
284596.76821327209473
283526.9339599609375
282471.78446197509766
281434.2100658416748
280415.49914169311523
279415.39032745361328
278432.97383117675781
277467.45082855224609
276518.05522727966309
275583.55517578125
274661.98033905029297
273751.15821266174316
272849.99030303955078
271959.53816223144531
271083.23217391967773
270226.10366249084473
269393.35149765014648
268588.61783218383789
267812.85133743286133
267064.78816986083984
266342.74838066101074
265646.02946090698242
264974.53870964050293
264327.20187568664551
263700.81717491149902
263090.43667602539062
262491.25479316711426
261900.72075462341309
261319.24944496154785
260749.08029174804688
260192.05531311035156
259647.84828948974609
259113.81041717529297
258586.11112213134766
258061.18239402770996
257536.64144706726074
257011.3448657989502
256485.14773941040039
255958.74665451049805
255433.58222579956055
254911.61844444274902
254395.12960624694824
253886.3541374206543
253387.04524040222168
252897.97328186035156
252418.4139461517334
251945.9259147644043
251476.73147201538086
251006.42964935302734
250530.26205444335938
250042.90645980834961
249538.83219909667969
249013.84116172790527
248466.83715057373047
247900.11905670166016
247317.55077934265137
246721.83215141296387
246112.94389152526855
245488.76094627380371
244847.05085182189941
244187.21175765991211
243510.98331260681152
242822.21165657043457
242126.26178932189941
241429.31151390075684
240737.59278869628906
240056.72279167175293
239390.895751953125
238742.03949928283691
238109.27694320678711
237489.29863739013672
236877.7646656036377
236271.14919853210449
235667.8937873840332
235068.09204483032227
234472.18190002441406
233879.84018135070801
233290.04813957214355
232702.11390113830566
232116.49081802368164
231534.60808181762695
230958.18454742431641
230388.98616600036621
229829.27917861938477
229282.22027778625488
228751.27435111999512
228239.12971115112305
227746.92802429199219
227274.41498374938965
226820.64701271057129
226384.60881996154785
225965.36981582641602
225561.94948768615723
225173.1040210723877
891443.8406982421875
864201.63245391845703
852151.2193775177002
843548.30263900756836
836976.57459449768066
831618.56152725219727
826875.17547416687012
822380.36289215087891
817972.20210838317871
813607.75880241394043
809252.22594833374023
804913.10485649108887
800647.03582954406738
796508.23453521728516
792509.63236427307129
788689.73799133300781
785109.10604858398438
781768.45143508911133
778675.62228393554688
775802.21172332763672
773077.00942230224609
770400.44408798217773
767722.72345542907715
765059.39894866943359
762475.62511825561523
760036.77311897277832
757762.42194938659668
755660.00836372375488
753748.64680671691895
752021.50482559204102
750494.86003875732422
749194.16271781921387
748096.21943664550781
747143.30031776428223
746275.52912330627441
745460.94943428039551
744665.43772506713867
743847.5517406463623
742985.10088920593262
742076.22864723205566
741106.33308792114258
740049.01975059509277
738897.1715030670166
737672.34477043151855
736387.37629318237305
735033.09889602661133
733600.83880043029785
732087.13957405090332
730490.3641300201416
728810.92153549194336
727048.64847755432129
725202.14516067504883
723276.95176124572754
721270.45912551879883
719179.89885711669922
717007.20085334777832
714762.68441963195801
712454.37444877624512
710099.71548843383789
707741.41495323181152
705441.60711097717285
703237.74935913085938
701121.67480850219727
699064.89917945861816
697067.0700569152832
695150.04546546936035
693321.06612014770508
691553.28511810302734
689809.84010124206543
688067.07686614990234
686323.27634239196777
684574.32725524902344
682811.91402053833008
681031.35644912719727
679232.20669937133789
677412.53506088256836
675576.71147727966309
673733.85385322570801
671889.88926315307617
670037.96095275878906
668162.56546020507812
666261.09083938598633
664344.31436920166016
662421.23118782043457
660491.18330383300781
658555.0345516204834
656622.48545265197754
654707.05460166931152
652822.71057891845703
650985.1750373840332
649205.32758140563965
647479.13017272949219
645794.62562561035156
644145.58200836181641
642539.09558486938477
640991.81520843505859
639512.41994285583496
638087.65409660339355
636693.30055618286133
635306.03878021240234
633913.99637794494629
632520.84460830688477
631140.96592330932617
629783.06692695617676
628444.10086441040039
627111.73495864868164
625769.90320205688477
624403.35075187683105
622999.01504898071289
621549.49897956848145
620055.70033073425293
618523.28899574279785
616959.98184967041016
615370.70686912536621
613757.08017158508301
612118.17461013793945
610456.68067169189453
608768.6187801361084
607037.85432434082031
605245.99074554443359
603385.72832870483398
601465.76697731018066
599500.78642654418945
597500.71371459960938
595464.40167427062988
593381.55449104309082
591250.62400817871094
589092.90465545654297
586945.61285591125488
584841.73777961730957
582797.45168113708496
580813.23681259155273
578882.07303237915039
576994.7422046661377
575145.40839767456055
573333.47918891906738
571561.01589965820312
569828.3221607208252
568136.02019691467285
566489.82766151428223
564899.97060203552246
563373.12858581542969
561905.49151229858398
560479.02941513061523
559069.01988983154297
557661.22250747680664
556259.34476661682129
554874.01169967651367
553506.86006355285645
552144.16654014587402
550764.4505786895752
549348.77167320251465
547887.93466567993164
546385.81317520141602
544851.40532875061035
543292.08663177490234
541713.4249095916748
540121.47939300537109
538521.95260047912598
536915.86909866333008
535294.5673999786377
533644.22394180297852
531957.58101463317871
530240.16447448730469
528504.39392280578613
526759.3652515411377
525004.68252563476562
523232.99256896972656
521438.93402481079102
519627.27300453186035
517810.6144847869873
515999.94280052185059
514199.80968856811523
512410.12720108032227
510628.20162391662598
508849.37236213684082
507072.81892776489258
505306.54130172729492
503565.25825309753418
501863.27553367614746
500210.11896514892578
498609.7064208984375
497061.52189254760742
495563.45996475219727
494112.72170448303223
492703.67489051818848
491327.16376495361328
489973.27281951904297
488633.81771469116211
442507.50992393493652
441428.02849388122559
440339.22822380065918
439243.85953140258789
438142.25952529907227
437032.8751277923584
435913.09013748168945
434779.96315383911133
433629.77730178833008
432460.52280616760254
431276.11127662658691
430086.67682647705078
428903.96936798095703
427735.52424430847168
426581.63150215148926
425435.35429573059082
424284.88254737854004
423117.7836742401123
421926.41543388366699
420711.71685600280762
419482.61189079284668
418251.15564346313477
417026.31630516052246
415809.4747257232666
414593.98937034606934
413369.7523078918457
412130.2471809387207
410876.95577239990234
409617.60425186157227
408361.0353946685791
407114.37479400634766
405882.93811988830566
404669.90848541259766
403476.80048179626465
402306.60226249694824
401166.09331703186035
400063.22646903991699
399001.63796424865723
397977.59853935241699
396981.37844467163086
396000.97242546081543
395026.3058910369873
394052.43501663208008
393079.73615646362305
392111.35625267028809
391149.94001007080078
390195.71455383300781
389246.50136756896973
388299.46585083007812
387353.64653587341309
386411.51911926269531
385478.82720565795898
384562.99434280395508
383670.43395042419434
382804.12534141540527
381962.24083709716797
381138.73642730712891
380325.58041381835938
379515.49461364746094
378703.79078483581543
377888.35497856140137
377068.50494003295898
376243.56004905700684
375411.64473342895508
374569.22280502319336
373712.42546653747559
372839.77791213989258
371954.18171119689941
371062.16582679748535
370170.44070816040039
369282.98137283325195
368400.82612419128418
367523.54418563842773
366649.34887886047363
365773.87360382080078
364890.7579402923584
363994.71481323242188
363083.86675071716309
362158.80764961242676
361220.4911937713623
360269.91657066345215
359309.47471809387207
358342.45395469665527
357369.72935485839844
356387.21210670471191
355387.23123741149902
354362.53438377380371
353309.75387191772461
352230.67099380493164
351131.76066017150879
350022.07885551452637
348910.13283920288086
347801.15898895263672
346697.09875106811523
345598.80516815185547
344507.90487098693848
343426.00369262695312
342352.32331848144531
341283.11105728149414
340214.39055061340332
339145.98247146606445
338083.05014228820801
337033.98911666870117
336006.68191337585449
335005.87903022766113
334032.22866630554199
333083.05202484130859
332154.71939849853516
331245.30287933349609
330354.83269119262695
329482.83964920043945
328626.11570167541504
327779.45631980895996
326938.70163726806641
326102.87264823913574
325273.28259658813477
324451.07904434204102
323635.73725891113281
322825.65774536132812
322020.35715103149414
321221.68169975280762
320432.35953140258789
319653.15064811706543
318881.86701011657715
318115.23029327392578
317351.44942092895508
316590.8350887298584
315834.15115547180176
315080.76889228820801
314328.78034973144531
313576.74548149108887
312825.06077575683594
312075.32756042480469
311328.57465744018555
310583.49406814575195
309836.34363746643066
309081.93132781982422
308314.99869537353516
307530.80823516845703
306725.21474456787109
305894.6564826965332
305037.28618812561035
304154.49883270263672
303251.22315406799316
302334.65496635437012
301410.87278175354004
300482.07561683654785
299546.02161979675293
298598.138671875
297634.44489860534668
296652.56623268127441
295650.90865898132324
294627.84512329101562
293582.54878425598145
292516.61803436279297
291434.79896354675293
290343.55655479431152
289248.87616729736328
288155.01106452941895
287064.63432693481445
285979.72896766662598
284902.33489227294922
283834.95966911315918
282780.30517768859863
281740.57012176513672
280717.17457389831543
279710.95348739624023
278722.47224426269531
277751.8877124786377
276798.37820625305176
275859.83401298522949
274933.45774841308594
274016.97736930847168
273109.87384414672852
272213.99539947509766
271333.2098388671875
270472.43569946289062
269636.43032455444336
268828.52657508850098
268049.83946990966797
267299.63409614562988
266576.63092041015625
265880.10665512084961
265209.75091743469238
264564.34537124633789
263940.5174503326416
263332.86955070495605
262735.66961479187012
262145.09542846679688
261560.68522834777832
260984.89640808105469
260420.96926498413086
259870.53880500793457
259332.47124862670898
258803.41802406311035
258279.3972110748291
257757.30553817749023
257235.66752052307129
256714.40298461914062
256194.2386360168457
255676.38767433166504
255162.59966468811035
254655.16819381713867
254156.51646614074707
253668.42984199523926
253191.12279319763184
252722.46590614318848
252258.20597267150879
251793.21280097961426
251322.81387710571289
250843.22648429870605
250350.98671340942383
249842.53079605102539
249314.9230899810791
248767.37856674194336
248201.77897071838379
247621.17612838745117
247027.26153182983398
246418.98848533630371
245793.38715362548828
245147.68014144897461
244481.32678604125977
243796.67190933227539
243098.16769218444824
242391.2534122467041
241681.87591934204102
240976.74469566345215
240283.19198226928711
239607.81967163085938
238954.01477432250977
238320.18529510498047
237700.50177383422852
237087.94832992553711
236477.42875671386719
235867.06926918029785
235257.40065765380859
234649.60547256469727
234044.46184921264648
233442.38442611694336
232843.93011283874512
232249.88364601135254
231660.70101928710938
231075.9681510925293
230494.8593635559082
229917.61949729919434
229346.79399299621582
228787.08953475952148
228243.70910835266113
227720.6438159942627
227220.08527755737305
226742.92194557189941
226289.34978866577148
225859.02567291259766
225450.6307430267334
225061.39657592773438
863075.82100296020508
848509.25312232971191
841760.30085182189941
835740.2348575592041
830448.99804878234863
825880.60214233398438
821951.42720413208008
818398.60078620910645
814965.22500610351562
811482.87506294250488
807820.8679027557373
803954.10804557800293
799961.41400527954102
795925.06577682495117
791882.18462371826172
787924.82429885864258
784185.13476371765137
780711.02875518798828
777513.67102813720703
774588.60766220092773
771889.31486701965332
769336.77123069763184
766873.02754783630371
764488.03988647460938
762171.90483283996582
759941.82730674743652
757820.51687431335449
755809.76628303527832
753906.39066696166992
752121.95961952209473
750509.65083312988281
749111.18517112731934
747920.48654747009277
746885.18600654602051
745964.82440567016602
745144.6987476348877
744390.36440658569336
743637.3991584777832
742843.11630058288574
741995.40377044677734
741073.45370864868164
740050.54020500183105
738916.47489547729492
737688.36883354187012
736377.13152122497559
734967.91160774230957
733447.10886192321777
731829.79212379455566
730135.42591094970703
728362.8577880859375
726505.92596244812012
724562.21601867675781
722542.92562866210938
720462.11123847961426
718323.32533645629883
716122.7797794342041
713857.85284614562988
711527.20346832275391
709143.02224731445312
706752.32832527160645
704415.92288208007812
702172.31530952453613
700021.22691345214844
697946.03493499755859
695946.37680625915527
694033.89403533935547
692206.44219589233398
690444.67854118347168
688719.5329418182373
687011.1414966583252
685313.78666877746582
683618.7231502532959
681917.98313140869141
680208.36531448364258
678492.5033016204834
676773.42055130004883
675051.02083778381348
673326.84961318969727
671593.7342357635498
669834.98893547058105
668032.70778465270996
666184.86189842224121
664307.39382743835449
662412.38359832763672
660501.19765853881836
658573.81329345703125
656643.40750503540039
654732.89460945129395
652860.24944877624512
651031.89234161376953
649250.10006713867188
647515.3951587677002
645820.31689453125
644155.70697212219238
642522.07329750061035
640934.26090049743652
639403.60606384277344
637920.60949516296387
636461.09517669677734
635000.57898139953613
633530.30150604248047
632060.35371398925781
630608.36186218261719
629183.25278854370117
627778.7376537322998
626380.3463306427002
624973.11932563781738
623548.66998481750488
622101.26758766174316
620626.08090400695801
619117.93133354187012
617576.65054130554199
616009.02116203308105
614420.16569519042969
612810.46870613098145
611180.57045555114746
609534.87091636657715
607871.42595481872559
606175.95098876953125
604429.79312324523926
602624.47115707397461
600764.71059036254883
598859.56721496582031
596913.23165130615234
594920.35175514221191
592868.77449607849121
590754.73724365234375
588598.04193496704102
586437.98102951049805
584313.22611999511719
582246.00225830078125
580242.1737232208252
578296.71012687683105
576398.90168762207031
574539.64883804321289
572714.65580940246582
570922.5854377746582
569162.66220474243164
567437.69791984558105
565758.14028549194336
564138.25698280334473
562586.8002815246582
561100.8015251159668
559661.91143035888672
558243.35003662109375
556827.96235084533691
555419.41168594360352
554030.10186958312988
552662.46518135070801
551303.84794998168945
549934.51666831970215
548536.91373634338379
547103.64733695983887
545636.94765853881836
544141.63520431518555
542621.77116584777832
541081.82478904724121
539528.61694145202637
537967.90688323974609
536399.59609413146973
534816.30830764770508
533209.18806266784668
531575.94854545593262
529921.95881652832031
528254.76210021972656
526577.23301315307617
524885.6361198425293
523171.47438812255859
521428.23556709289551
519658.48092269897461
517873.98791313171387
516087.49981880187988
514306.86129570007324
512534.17110633850098
510766.85363578796387
508999.72446441650391
507232.2122688293457
505473.50516319274902
503739.45472526550293
502045.13799476623535
500399.90976524353027
498805.64624214172363
497257.38019180297852
495747.87156867980957
494273.37514686584473
492832.76068305969238
491423.09429550170898
490039.05245018005371
488674.98727989196777
442626.00192260742188
441519.60397148132324
440407.33959007263184
439288.64972686767578
438161.17287635803223
437022.99833297729492
435874.70388793945312
434717.63188362121582
433550.86255073547363
432372.30285263061523
431183.1868953704834
429989.75875663757324
428800.27570915222168
427620.95376205444336
426453.05249977111816
425291.51380157470703
424126.07158851623535
422945.54828453063965
421743.17120742797852
420519.89608192443848
419284.04743003845215
418047.45431518554688
416820.3427619934082
415606.64609718322754
414401.9960823059082
413196.41148567199707
411980.9490795135498
410753.1739330291748
409516.93818283081055
408278.48520660400391
407044.16063690185547
405820.20389366149902
404611.8798942565918
403422.98324012756348
402257.91488075256348
401123.6076545715332
400026.96392822265625
398969.2740364074707
397943.9112377166748
396939.51407814025879
395945.44333076477051
394955.34726715087891
393967.52327537536621
392983.44610977172852
392005.69493103027344
391035.7082405090332
390072.26671981811523
389112.11433219909668
388152.21387481689453
387191.94051933288574
386233.72148132324219
385282.88969039916992
384347.23887062072754
383435.13754272460938
382551.54265213012695
381694.95362854003906
380858.46894645690918
380033.78550720214844
379213.96575164794922
378393.37458610534668
377567.27903175354004
376732.70088005065918
375888.91178131103516
375036.21356964111328
374173.97078323364258
373300.26151657104492
372413.96361351013184
371517.13617324829102
370615.06212615966797
369713.64617729187012
368816.6375904083252
367925.34848785400391
367039.89034080505371
366158.9498291015625
365278.16011238098145
364390.43536949157715
363489.33214569091797
362572.14291763305664
361639.38671875
360692.38944435119629
359732.90568542480469
358764.26843070983887
357790.69789695739746
356813.78288078308105
355829.58609390258789
354830.19095230102539
353808.30044555664062
352760.84853935241699
351689.90542602539062
350601.63443756103516
349504.1969051361084
348404.77955627441406
347307.08690071105957
346211.60180854797363
345118.54681015014648
344030.44857025146484
342951.42471694946289
341883.74585342407227
340825.6331615447998
339773.05374717712402
338724.08553314208984
337681.72701072692871
336653.06218719482422
335646.05331039428711
334666.15482330322266
333714.38088607788086
332788.12172889709473
331884.20471382141113
331001.34150886535645
330139.79217338562012
329298.48007202148438
328472.96108245849609
327656.90940856933594
326845.62236404418945
326038.08955955505371
325236.3428840637207
324442.80593109130859
323658.15867805480957
322881.45072746276855
322111.91580581665039
321350.14914321899414
320596.97267913818359
319851.69268989562988
319112.05743789672852
318375.98364448547363
317642.93681716918945
316913.22642707824707
316185.8925895690918
315457.91494941711426
314725.68734169006348
313987.57238388061523
313244.78425598144531
312500.16314697265625
311756.01895523071289
311012.54281234741211
310267.3830451965332
309516.31539916992188
308754.3394660949707
307976.85687828063965
307179.73346900939941
306359.61030006408691
305514.20411491394043
304643.84875106811523
303751.86319732666016
302843.21063613891602
301922.23529815673828
300990.01801872253418
300044.5881462097168
299082.92952346801758
298102.89987754821777
297103.76501655578613
296085.26416969299316
295046.8889102935791
293988.97743225097656
292914.50927734375
291829.39105033874512
290740.38010597229004
289652.50794219970703
288568.33422088623047
287488.86222648620605
286414.87699699401855
285347.51407432556152
284288.34123992919922
283239.21335029602051
282201.94177627563477
281178.09942054748535
280169.06534576416016
279175.88607597351074
278198.9207649230957
277237.41174125671387
276289.52340507507324
275353.07334899902344
274426.68901443481445
273510.6707706451416
272607.28070259094238
271720.26995086669922
270853.89504814147949
270011.8685474395752
269196.62599182128906
268409.2213306427002
267649.67241287231445
266917.54410934448242
266212.484375
265534.13605117797852
264881.40426445007324
264251.45884323120117
263639.40224075317383
263039.28506851196289
262446.25622367858887
261858.58552360534668
261278.07990074157715
260708.34873199462891
260152.08667755126953
259609.23471260070801
259077.05885696411133
258551.8187255859375
258030.5998649597168
257512.0119686126709
256995.80208778381348
256482.13576698303223
255971.41148567199707
255464.67472267150879
254963.86577606201172
254471.44788551330566
253989.23225212097168
253517.06114959716797
253052.04215621948242
252589.2266788482666
252123.29910278320312
251650.1876392364502
251167.23957443237305
250672.14041137695312
250162.08771133422852
249634.48000144958496
249088.40148735046387
248525.11820793151855
247946.7563591003418
247353.99211502075195
246744.89405632019043
246115.79683876037598
245463.67138290405273
244788.3406810760498
244093.13331413269043
243383.6234073638916
242665.73555755615234
241945.02687644958496
241227.60676765441895
240521.0653190612793
239833.34490203857422
239169.43742179870605
238528.47147369384766
237903.9664421081543
237287.29864883422852
236671.85874938964844
236054.89217758178711
235436.58156585693359
234818.04193496704102
234200.08515548706055
233583.28927993774414
232968.63658142089844
232357.66631317138672
231751.64976119995117
231150.6933650970459
230553.92191123962402
229960.85445976257324
229373.05887794494629
228794.62053489685059
228230.81516075134277
227686.12841606140137
227163.16249465942383
226663.09627723693848
226186.8079719543457
225735.35659217834473
225309.26907539367676
224907.3137035369873
224525.87869262695312
881270.11895561218262
858077.63273620605469
847220.69860458374023
838533.8482608795166
831161.31843757629395
824977.59628486633301
819856.26980400085449
815491.48617553710938
811696.78274154663086