/*--------------------------------*- C++ -*----------------------------------*\
  =========                 |
  \\      /  F ield         | OpenFOAM: The Open Source CFD Toolbox
   \\    /   O peration     | Website:  https://openfoam.org
    \\  /    A nd           | Version:  12
     \\/     M anipulation  |
\*---------------------------------------------------------------------------*/
FoamFile
{
    format      ascii;
    class       volScalarField;
    location    "0.0072";
    object      rho_0;
}
// * * * * * * * * * * * * * * * * * * * * * * * * * * * * * * * * * * * * * //

dimensions      [1 -3 0 0 0 0 0];

internalField   nonuniform List<scalar> 
75962
(
1.1539042394806684477
1.1559547329586135067
1.1541012555444689625
1.1514745067516056753
1.1513336888270047087
1.1532505939219237501
1.1548680946331078001
1.1547488606220819296
1.15409493998554602
1.1533819064444459368
1.1524130924060320691
1.1521161847264507205
1.1525337306070062571
1.1531743069570281612
1.1537865982387838226
1.154017998435001191
1.1540857390263741244
1.1541142144243803358
1.1535510482838875479
1.152385338714624341
1.1515567208775492336
1.1518763860851437553
1.15298439679808018
1.1538709148508818902
1.1541355063713489848
1.1541506343234733123
1.1542304806818604046
1.154222577389506732
1.154238025684432678
1.154412051990410637
1.1544942423294701772
1.1543014656982575339
1.154056032398103504
1.1540646419425595326
1.1542751121408658666
1.1544179166525991853
1.1543287840463356542
1.1540222418505321489
1.1535810533300789871
1.1532645678223671926
1.1531852248061127408
1.1532781710074235804
1.1533245959775748624
1.1531804469768027754
1.152825839588602852
1.152303711255851848
1.1517870190849310852
1.1515311400115588736
1.1516679764559292209
1.1520437847981443991
1.1523578373452079138
1.1524400447223264177
1.1523284723164739507
1.1521054573565481238
1.1518236913852399894
1.1515451382740713449
1.151354221066548833
1.1512837425185784568
1.1511696383342184813
1.1508813880649937378
1.1505383732454843582
1.1504294853861158909
1.1506699259562918058
1.1509253679977664575
1.1507148299159219995
1.1500318368416404535
1.1493687143657329575
1.1492096969085103808
1.1496030959635001878
1.1502305981511742328
1.1507224560847764128
1.1508795857267613005
1.1507442835454364527
1.1505190814395220844
1.1503824576361023624
1.1503413211104673852
1.1502550401500166721
1.1500500238372839412
1.14977478178277015
1.1495126809148017433
1.1492920532141090995
1.1490958636465273823
1.1489250529205921048
1.148808066014112006
1.1487741716533188541
1.1488658981252952707
1.1491056398194625654
1.1494443749188310022
1.1497499897846916728
1.1498960647565739102
1.149857391812917351
1.1497079282727611371
1.1495315533772401118
1.1493585915610278203
1.1492113732483901778
1.1491680595264772702
1.1492548178906203393
1.1493990527010247149
1.1494165811974259572
1.1491871122327019794
1.1487585487368732196
1.1483038670286864757
1.1479969783766172942
1.1479409989260356273
1.1481475091005381994
1.1485678293515257931
1.1490646944993243572
1.149457236276744565
1.1496202160697319705
1.1495705599369676619
1.1494604802534336141
1.149457923850874641
1.1496200896611743492
1.1498548512344930472
1.1499933218055549133
1.1499456993005177097
1.1497578173771387799
1.1495499456167939112
1.1494200266357073037
1.1493598697153613042
1.1493101703973656047
1.1492497821003033742
1.1492313957682240844
1.1493230984194311439
1.1495341618674785877
1.1497951924464009377
1.149992300583308813
1.1500456270109717938
1.1499717258983346291
1.1498685925834821742
1.1498446772566381924
1.149932652406470579
1.1500750390416101254
1.1501802525546354072
1.1502016084218416037
1.1501563540805250785
1.1500907104178463847
1.1500340122427752387
1.1499719553106346748
1.1498678064112035635
1.1497045400853287411
1.1495183496100449538
1.1493817299060944404
1.1493445016654302293
1.1493935704945923426
1.1494810980197638361
1.149577707639225288
1.1497162434857763902
1.1499432201257808739
1.1502542467786789349
1.1505660998714712928
1.1507553921274846775
1.1507083025920805675
1.1504003667283622114
1.1498795767785043864
1.1492475202129914802
1.1486231184111685977
1.1481014375793219262
1.1477409727128971006
1.1475595600668422325
1.1475502954800433919
1.1476914250225929148
1.1479541764337630738
1.1482964890031208682
1.1486670249616093287
1.1490100601348200993
1.1492590800117696848
1.1493579332788499414
1.1492731913414633294
1.1490116158477292618
1.1486253841426066202
1.1482185382784528827
1.1479210198352307604
1.1478403461396149421
1.1480200848609551922
1.1484128279444485443
1.1489040078131993461
1.1493500859742107334
1.1496421499200846217
1.149737912138284246
1.1496587825003028449
1.1494593768285454871
1.1491832588267676396
1.1488479526662287444
1.1484612558668632065
1.148059728151215042
1.1477073044642669419
1.1474840088656805825
1.1572934701761763421
1.1572547185902917199
1.1571601822582753272
1.1570557466062645346
1.1569993836882901395
1.1570228627170360269
1.1571139644118675349
1.1572237052922933476
1.1572835845204241245
1.1572496629576078941
1.1571212572718156952
1.1569369628736889677
1.1567537009411887894
1.1566204296676414476
1.1565615961966113634
1.1565683249715839054
1.1566051270497901271
1.156624873952146082
1.1565915312756869238
1.1564984675608331877
1.1563728712303285029
1.1562635217612984295
1.1562154187099598079
1.1562475506311225004
1.1563394197301304356
1.1564377857128076421
1.1564838874545699809
1.1564444037013457134
1.1563271909211374489
1.1561711745106024729
1.1560204847721518018
1.1559024803417865535
1.1558189401560623466
1.1557539904066009839
1.1556912822728597767
1.1556258111180757187
1.1555619943021431251
1.1555032026092302289
1.1554454655329526869
1.1553806972136066999
1.1553064870801670327
1.1552337130391610032
1.1551847042018541512
1.1551826044431157126
1.1552390615469338986
1.1553469517051682125
1.1554792372711939485
1.1555966714969441167
1.1556625260384150167
1.1556553007047978276
1.1555754178707733359
1.1554424422213784851
1.1552873446480576014
1.1551392581072201793
1.1550155306123663923
1.1549175636823809654
1.1548365656202668195
1.1547654120948118717
1.15470799771998478
1.1546811492113022712
1.154705336766135515
1.1547919399906871885
1.1549337424861363388
1.1551032034731034681
1.1552624263558057827
1.1553770202204536321
1.1554290991080622408
1.1554214950770345105
1.1553725756973662886
1.1553068590779964619
1.155247518309221455
1.1552114064124119341
1.1552107338570112294
1.155253349780769323
1.1553435371010289945
1.1554777039212105194
1.1556406387530624436
1.1558063616754883363
1.1559451495855421754
1.1560332601041525269
1.1560644868607805602
1.1560553640140027731
1.1560397650588436491
1.1560547042563049658
1.1561251475644975795
1.1562543464943455529
1.1564200864297780047
1.1565817629109145237
1.1566965291114199577
1.1567335769199920126
1.1566850785388538281
1.1565659656190698801
1.1564077611620167119
1.1562471566679988211
1.1561146988260078139
1.1560279870660183921
1.1559883321791213362
1.1559831763324870391
1.155994109595641417
1.1560056277295434057
1.1560098398335214576
1.156006802336253525
1.1560012538069506238
1.1559971388232395118
1.1559927294766152439
1.1559792761907878855
1.155945337263760031
1.1558843306191719513
1.155799972229301309
1.1557088451760832992
1.1556338588972046022
1.1555977422349241746
1.1556134740863988064
1.1556821463649966653
1.1557930208394899818
1.155929839211877308
1.1560778474899344737
1.1562291903485830691
1.1563818071707236967
1.1565367403867434781
1.1566911624616664778
1.1568370452424372452
1.1569618004413371182
1.1570527015135370075
1.1570996134760827001
1.1570989291919755448
1.1570553182808354098
1.1569808612791414593
1.1568907610130669816
1.156798968013000195
1.1567174541381470831
1.1566539583071233643
1.1566137190561409653
1.1565999690793971055
1.156614226720851013
1.1566547433331069161
1.1567178189116356091
1.1567944901270901248
1.1568758925530981951
1.156951719337007134
1.1570165186931975487
1.1570679918135482467
1.1571088981750752289
1.1571476198979082639
1.1571939086738920466
1.1572572440453980924
1.1573433868965741222
1.1574518888675995321
1.1575778104513525513
1.1577117915849501895
1.1578437542958808226
1.157963924641805642
1.1580659021217414306
1.1581455573763714817
1.1582017376110977924
1.1582360649922329721
1.1582527449173611878
1.1582589392444357923
1.158261575583717784
1.1582666928247897786
1.1582750862735702313
1.1582822992336518908
1.1582819779790993753
1.1582678355866742326
1.1582390604561974001
1.158200998445276797
1.1581630715099928697
1.1581376557867846255
1.1581351612536197049
1.1581589658663125064
1.1582044994442679542
1.1582601216728993787
1.1583092971510877689
1.1583361357392951696
1.1583309815240891982
1.1582922907278574431
1.158226134396222573
1.1581448662177122877
1.1580637980710690726
1.1579958151144238432
1.1579471282005930899
1.1579175421298346649
1.1579026577306699153
1.1578961974596024831
1.1578916008771915624
1.1578833560028671812
1.1578681210780603639
1.1578440794688706905
1.1578121740161320119
1.1577773760276344195
1.1577479420670286903
1.1577338855120662409
1.1577447739702459995
1.1577881991067831002
1.1578676417683460009
1.1579810491103912362
1.1581198753114310129
1.1582700386720008456
1.1584139679671743295
1.158532681036448686
1.1586100001983383745
1.1586355293130881083
1.1586070877756651232
1.158531133281150316
1.1584221739776181526
1.1583001327762731947
1.1581865580317425302
1.1581012442070126589
1.1580595428302706829
1.1580698530230921772
1.1581331403869570273
1.1582432604558352551
1.1583893360792247851
1.1585578083659691107
1.1587343051122047655
1.1589054618462828472
1.1590607819069682627
1.1591937948398833846
1.1593021075520830721
1.1593864198455430259
1.1594489928248119526
1.1594920541822255622
1.1595159980587295134
1.1595197296265882247
1.159501316646613267
1.1594587614059459479
1.1593906407314975571
1.1592981541337163964
1.1591866649872737405
1.1590658636891861821
1.1589493877821470669
1.1588520086363949257
1.1587865051785328774
1.1587613701075081263
1.1587798656891288296
1.1588382901096370148
1.1589256377594550074
1.1590251108366591559
1.1591180215650380703
1.1591879292949807123
1.1592243843632679123
1.1592240577523140743
1.1591909248798013543
1.1591339777346880702
1.1590651292487716972
1.1589963887696090872
1.1589377910438449781
1.1588958348948672494
1.1588723000508536209
1.158864991424285229
1.1588689866747416968
1.1588791064123229457
1.1588910798565557059
1.1589025348061305909
1.1548032917762225402
1.156136322294970542
1.1535749143109703674
1.1529496848328255609
1.1532455575313018681
1.1527803222177830378
1.1528496186748091734
1.1533027719208808204
1.1534406850772653819
1.1532122081477249598
1.1528974775301781275
1.1524354801389791181
1.1519010732848031786
1.1521693243039583532
1.1532136264531376302
1.1540444070914623875
1.1543114848027593577
1.1541880252744878277
1.1533781805623926076
1.1521073406568527187
1.1514878287787524425
1.1520536790674005267
1.1531693981509185676
1.1538803163998061496
1.1539603380430938362
1.153821638400914118
1.1537238634348072619
1.1536867662357666031
1.1538087837591994855
1.1539263753062320994
1.1537742218890909562
1.1535056851362630592
1.1534455463576276379
1.1536447032484573594
1.1538774378984089086
1.1539945021169619732
1.1540269865774062108
1.1539254410609598445
1.1535851642282444196
1.1531656116651329835
1.1530122260194493045
1.1531318408395851982
1.1532023555041139851
1.1530310313168719016
1.1526801952064407164
1.1522926719298718368
1.1519265409115375665
1.1516964595062293419
1.15170530411964811
1.1519196640797471076
1.1521829288657512436
1.1523195064860960457
1.1522447500948238552
1.1519832858858856106
1.151605106313468907
1.1512070281743616018
1.1509454789580222389
1.1508757342427513581
1.1509100281471877913
1.1508285275094476408
1.1506362426096308216
1.1506125045989137323
1.1508642035069094334
1.1510459186526695863
1.1507422064607921719
1.1500343035933344726
1.1494460531760519739
1.1493688917924544945
1.1497816692322582188
1.1503559502919737945
1.1507683235977794745
1.1508880409386796906
1.1507568989131558013
1.1505345985828474564
1.1503642246616028189
1.1502389575925424658
1.1500505440833692639
1.1497700128859600355
1.1494970670575064275
1.1493349425232275429
1.149261767373943588
1.1491799729747174119
1.149046222570434761
1.1488931820014984808
1.1487854573209088649
1.1487849571782051683
1.1489453323235936377
1.1492524466332130206
1.1495905304905367217
1.1498086363507202812
1.1498407833837209768
1.1496975430974922805
1.1494530774735634004
1.14918324235037006
1.148970248721170373
1.1489080163958513836
1.1490446044128586056
1.1492967207851574329
1.1494709313563287179
1.1493889608843708139
1.1489955984628188457
1.1484467676294465299
1.1479850837148595222
1.147817579075868899
1.1480113922095505075
1.1484805347864164293
1.1490377072144912773
1.1494643552591969904
1.1496531241683247693
1.1496240581932475333
1.1495071649067143404
1.1494470955770337284
1.1495054172835201811
1.1496493554067124254
1.1497903849055808312
1.1498370911820399165
1.149782966423491315
1.1496884940850395918
1.1495935566092578828
1.1494828122323232922
1.1493252887780429639
1.1491504415374724779
1.1490579135623719687
1.1491551258718302186
1.1494621337456101262
1.149871292427762981
1.1501930662861648003
1.1502842871729057617
1.1501413036855314687
1.149907636696422264
1.1497583018503496621
1.1497693985881765055
1.1498897834281807118
1.1499952481339348331
1.1500073513245510082
1.1499467650523234052
1.1498865793166606064
1.1498730721892100881
1.1498783745452603178
1.1498317849241495026
1.149690772923213089
1.1494907227766164581
1.1493219465495945197
1.1492547028896884509
1.1492787446170329435
1.149336702706734048
1.1494063002075065594
1.1495265588282999047
1.1497456246955291004
1.1500534339537731299
1.1503666533211636125
1.1505576243312451989
1.1505365810053358455
1.1502856820460771736
1.1498653253706418997
1.1493645209690235287
1.1488702978708853486
1.1484489454419219978
1.1481282289439243005
1.1479103447230072366
1.1477989989819217254
1.1478084616086170477
1.1479550321596219131
1.1482300313193878338
1.1485912459438740729
1.1489653874500189712
1.149259232136943254
1.1493909026144621954
1.1493115748893021344
1.1490369449577388927
1.148643361822868636
1.1482488197750242431
1.1479804264125894608
1.1479277805805658819
1.1481074287422925462
1.1484594151242488724
1.1488765640253031375
1.14923775054834576
1.1494593187428168157
1.1495074736289940809
1.1494011945622353288
1.149182494984876568
1.1488873941303834325
1.1485344649181106202
1.1481320636587406536
1.1477093834741631806
1.1473255633167513956
1.1470590425866260542
1.1469698658682572212
1.1572908491013444987
1.1573178440438389725
1.1572769023752449424
1.1571824603266831488
1.1570796692901075264
1.1570183241085600923
1.1570261543187587705
1.1570886270329474588
1.1571606807864243116
1.157189338911906118
1.157141656747924241
1.1570221513650389422
1.1568679665834600279
1.156727332923593865
1.1566354292379603663
1.1566028656820468434
1.1566152293742544277
1.1566403735912527129
1.1566414337473847063
1.1565916201215904469
1.1564854859881237292
1.1563457891530040111
1.1562154475986035074
1.1561391785380081831
1.1561411195446500422
1.156212245766443214
1.1563140730779357668
1.156391920320368083
1.1564023213249434718
1.1563332625337570114
1.1562043481382158205
1.156049739111571828
1.1559004215666932591
1.1557705864692888742
1.1556596890073083106
1.1555634236758232092
1.1554814199179324063
1.1554147775698333511
1.1553603626286685913
1.1553105519951027969
1.1552573100298069164
1.1551991346016123874
1.1551469663126066045
1.155121042423616462
1.1551407281688705897
1.1552135591174195195
1.1553294455540297214
1.1554630086780868226
1.155581823982488876
1.1556577474145051099
1.1556740002283376612
1.1556290060766478689
1.1555354646646909256
1.1554131264595228767
1.1552815751516123388
1.1551538201715094711
1.1550330795920902283
1.1549181517151545506
1.1548123028297794246
1.1547299008427318601
1.1546925109446803948
1.1547197196092318094
1.1548177776608976597
1.1549717497487133056
1.155146580268629819
1.1552988898787805994
1.1553949247613930496
1.1554220427081476341
1.1553904879393983585
1.1553256061139218769
1.1552570243672941608
1.1552082364523348357
1.1551937864527559441
1.1552208938287999995
1.1552928929162287197
1.155409956093102819
1.1555663900530652732
1.1557467202058764322
1.1559251119058302493
1.1560717551785499868
1.1561642288634526032
1.1561988597876911022
1.1561950867901442663
1.1561887156497536733
1.156216284565797725
1.1563011630017230313
1.1564422760789017097
1.1566143959411308018
1.1567769213632148606
1.1568895247617716482
1.1569268253756159748
1.1568850292312824468
1.1567810264334981163
1.1566454059980089131
1.1565109101072854614
1.156403222168294942
1.1563345229295105554
1.1563026540168068745
1.1562940441414140125
1.1562915145256222882
1.1562820310810753011
1.1562602491365705504
1.156228969551566399
1.1561953240300268941
1.1561653273962757549
1.1561384415271516168
1.1561080968791850321
1.1560669133862788716
1.1560105063830916627
1.1559438512741804228
1.1558805209324376495
1.1558383467677517675
1.1558326537456817817
1.1558696319319499146
1.1559441227154052534
1.156044903058725648
1.156160120453954665
1.1562834618858766067
1.1564158275827243205
1.1565626261746870806
1.1567265650603795191
1.1569023339310033904
1.1570735586228733105
1.1572183348095868016
1.1573144919433733246
1.1573493972462414181
1.1573242435101529502
1.157253846507851236
1.1571613812585588299
1.157070357269449179
1.1569982200809565409
1.156953241135822319
1.1569356754745208082
1.1569401705094286559
1.15695950803065295
1.1569883370535409828
1.1570246506271573139
1.1570661118976144355
1.1571134676386662932
1.1571623677144684539
1.1572133986718613485
1.1572615699494106511
1.1573087295146058384
1.1573548516388099117
1.1574046540970162056
1.1574655947611749429
1.1575432185452363409
1.157642308657842678
1.1577615888096961516
1.1578952837639548967
1.1580336283183141344
1.1581647869596283229
1.158276690083926086
1.1583609384978650336
1.1584137604497275476
1.1584357698430753913
1.1584324670229180221
1.1584122779720587015
1.1583861462631506178
1.1583635763986939171
1.1583507971200259767
1.1583488570866160572
1.1583523496772583083
1.1583533677478823343
1.1583444938411189273
1.1583232308090700702
1.1582947326028951718
1.158269025490688664
1.1582576876711787595
1.1582698214272191262
1.1583073505596377384
1.1583634042930144314
1.1584246043168353602
1.1584741382855754388
1.1584965035778160836
1.1584828813102034939
1.1584327007445323066
1.1583531801719670895
1.158256475055932766
1.1581570525523365855
1.1580680328511994137
1.1579979622107812176
1.1579493418806401372
1.1579204043277191438
1.1579070323866551551
1.1579040766059880418
1.1579066429988482678
1.1579099560011807402
1.1579091857633652118
1.1579011470662197159
1.1578857702219458314
1.1578666717920262919
1.1578515185841729007
1.1578508369604731953
1.1578742547632436821
1.1579278510533481672
1.158011886512275268
1.1581198855180689922
1.1582388336530995421
1.1583513481473362017
1.158439310688307966
1.1584881161590894205
1.1584902356997337503
1.1584463083207214851
1.1583653002972000845
1.1582627635234010732
1.1581567637468006549
1.1580644976297276294
1.1579995316169389152
1.1579700916608757222
1.157979566710950925
1.1580272656593704195
1.1581093114396512345
1.1582199719239500979
1.1583533657795219707
1.1585029050878656864
1.1586614459918602726
1.1588206097871833755
1.1589709994370245294
1.1591036691708804796
1.1592112048948797209
1.1592888570846233698
1.159334316115194996
1.1593472412728442755
1.1593283978330191086
1.1592795586613560133
1.1592044031492048095
1.1591077601119230689
1.1589954452022024345
1.1588742716504780716
1.1587530504974414836
1.1586421165666842548
1.1585525772683957779
1.1584943424726816819
1.1584738754558654428
1.1584930665154591356
1.1585491327601857847
1.1586341006101783524
1.1587358523225101958
1.1588398671527277983
1.1589320877425499656
1.159001631858129544
1.1590426001281042279
1.1590538086022890152
1.1590381879844460222
1.1590010892064650516
1.158949255274331902
1.1588903390433495932
1.1588325830096188884
1.158783598281555749
1.15874885127771865
1.1587309319941156982
1.1587293856953133631
1.1587413761213500862
1.1587624992532468138
1.1528964441179090361
1.1535378291440288034
1.1527845769438862522
1.1526330321299396164
1.1528040316391516829
1.1517111574517637784
1.1509258100531802871
1.1510898461624090583
1.1515344212781883915
1.1522422365481805873
1.1529446557698317388
1.1525954116653840398
1.1516566052450598612
1.1515490820469114208
1.152305668119695925
1.1530883821748163509
1.1536986073986570389
1.1539689467497977748
1.1533938853359688714
1.1524411322816843217
1.1519788854089010322
1.1521653378300353854
1.1527856139557934867
1.1533916286874197343
1.153636977062524771
1.1534395836579267591
1.1530604655382370449
1.1528752170615244044
1.1530751883708729721
1.1533298692973441568
1.1533221511414417648
1.1532896014535831686
1.1534820637852849501
1.153762211121912129
1.1538389556008263881
1.1537449651610738321
1.1537606841234675503
1.1537880287277313407
1.1535192740935589217
1.1530546303069544312
1.1528523946413535839
1.1529651164958367726
1.1530187761502261878
1.1527951017688140567
1.1524685721520511184
1.1522147804895674916
1.1519980482817462342
1.151750190760842063
1.1515937212367863829
1.1517074064947423473
1.1520423029894562017
1.1523264865641273946
1.1523190594464374215
1.151990344653095022
1.1514568113291059337
1.1509094701861164456
1.1505706178337626877
1.150603878894925991
1.1508131706915238901
1.150899101210518527
1.1508163077539712571
1.1507706453902963872
1.1508624033462475644
1.1508641761732087971
1.1505236658876019096
1.1499623520194743875
1.1495814505825099339
1.1496361198177336149
1.1500331865862849501
1.1504885117429173302
1.1507671951109448294
1.1507730304343013472
1.1505359766151384004
1.1502036217624231895
1.1499501904626141524
1.1497943064812956582
1.1496355922335710353
1.149433208474990753
1.1492735506826996517
1.1492131959259941354
1.1492039013438148931
1.1491390006984627536
1.148984665582685416
1.1487989450517301915
1.1486763524361847111
1.1486782949648237651
1.148831477442179505
1.1491290321625169391
1.1494703324676012191
1.1496999655692485831
1.1496929544189720129
1.1494614221614913863
1.1491455172468070245
1.1488883672158145544
1.1487715509765850097
1.1488102807642501801
1.1490202319709779122
1.1493250449180469897
1.1495545536891313976
1.1495065828956230192
1.1490947020979742632
1.1484759106965360953
1.1479626853566149425
1.147805147115004365
1.1480566055060381636
1.1485719328635481951
1.1490991677172066598
1.1494395418077003601
1.1495330724497911934
1.14945509681016933
1.1493388374654269768
1.1492874384877407312
1.1493471504867398547
1.149513401538900581
1.1497232136207402586
1.1498791449180636448
1.1499086232768880311
1.1498107368412782137
1.1496305189942790381
1.1494110692805954432
1.1491827138359045346
1.1489908352059430285
1.1489184026900511881
1.1490610055431029757
1.1494375613619238763
1.1499271663630226126
1.1503183042283091631
1.1504376107399094664
1.1502688950764767828
1.1499620439834910002
1.1497127866494398774
1.1496249245415079976
1.1496602352891331922
1.1497073844191985081
1.1496986724346496267
1.1496662301238063097
1.1496823258168691329
1.1497666367134762311
1.1498484395752108789
1.1498320455504045245
1.1496806897629217037
1.1494572680648529328
1.1492653283384757223
1.1491700034008274223
1.1491504679060731142
1.1491642489565956353
1.1491953633811604618
1.1492930579726261531
1.1494999919142587785
1.1497928405080575232
1.1500773384295874813
1.1502530668319637108
1.1502581588441487259
1.1500880572205030017
1.1497816909946871888
1.1494076904271095518
1.1490275412567088065
1.1486879975796961961
1.1484106863711742719
1.1481989601511946031
1.1480602085953290903
1.1480158971478751084
1.1480958637834590697
1.1483080294172647307
1.1486273609440900145
1.148983956015977359
1.1492791814513880766
1.1494193489681363562
1.1493502189595483642
1.1490889369336698689
1.148726398945970617
1.1483814362487760885
1.1481595508521282856
1.1481198584817562391
1.1482559728840888713
1.1485088737215172205
1.1487952366044573704
1.1490383587888026717
1.1491818698889784134
1.1491960331354671432
1.1490817005575146847
1.1488535857335955281
1.1485396110270442716
1.1481627500154860666
1.1477565965804266135
1.1473540603489364997
1.1470082076761221046
1.1467826501655411509
1.1467203232706284499
1.1572783225795888473
1.1572827961606533265
1.1572324558891642354
1.1571398172278404282
1.1570406787189368991
1.1569768490283507401
1.1569687517344950933
1.1570050289800501986
1.1570528956634194007
1.1570757385471397427
1.1570497384311662081
1.1569766214156289585
1.1568819370428171656
1.1567977265144300247
1.1567441941374134728
1.1567227237969328613
1.1567206723606471286
1.1567184206952578762
1.1566961802651296587
1.1566379301115949918
1.1565381243102486053
1.1564067256772143644
1.156271054185352698
1.1561676062294350409
1.1561243767089803836
1.1561474941912750491
1.1562167460143610853
1.156291175592328635
1.1563262207334636944
1.1562939212238094733
1.1561925307623655002
1.1560430886823074292
1.1558746568421727208
1.1557106454829197961
1.1555644570449297159
1.1554419163124116654
1.1553450956248463299
1.1552733106896191373
1.1552214633151798306
1.1551819080420127062
1.1551485196360169461
1.1551213206750401419
1.1551072823663723899
1.1551174045511511945
1.1551617543065426652
1.1552442438203891495
1.1553563658633441147
1.1554781617935747651
1.1555853584236948084
1.1556577562123102609
1.1556838270497866716
1.1556613252407770265
1.1555973595077977389
1.1555037596176760406
1.155392140766780873
1.1552717157716254626
1.1551482340410181848
1.1550265962275121367
1.1549163529071311274
1.1548351135477414875
1.1548045612658863757
1.1548409890748798645
1.154944244609543702
1.1550910213295169093
1.1552423763947838875
1.1553583464683971904
1.1554128765697184722
1.1554021357511188306
1.1553437001261599448
1.1552680283380241111
1.1552061393208687967
1.1551797544614221813
1.1551983662852840506
1.1552624173386467632
1.1553688427902348845
1.155513449051894348
1.155688758029787655
1.1558794651928629982
1.1560620128724852229
1.1562094333915511335
1.1563025097387962248
1.156341105255092927
1.1563464728226109379
1.1563525962943170811
1.1563928037152335637
1.1564852368571929553
1.1566247862638456834
1.156785891108470965
1.1569335070470103677
1.1570351915414767152
1.1570739834711356586
1.15705098114565752
1.1569831530023573229
1.1568946619396074382
1.1568092177777464791
1.1567428434771995782
1.1567002746833425775
1.1566761418610105316
1.1566589901641244342
1.1566367429084185581
1.1566009636925631554
1.1565501109364704213
1.1564886509811955762
1.1564243283406481222
1.1563621799815941849
1.156303942070262103
1.1562490808474819026
1.156195786141233528
1.1561437329313024591
1.1561004418659865944
1.1560765578592622216
1.1560831852958517452
1.1561240539464763266
1.1561951037953510646
1.1562848365501745551
1.1563803400487184803
1.1564737434608716171
1.1565669167123233674
1.1566701556539116247
1.1567947577439945395
1.1569451415454965471
1.157112935628813899
1.1572769020393631756
1.1574095066543361732
1.1574876665288138522
1.1575013969583494156
1.1574571652624219276
1.1573780799844572975
1.1572937314218796345
1.1572309853759947806
1.157206270124693015
1.1572208293933203826
1.1572644714463831139
1.1573197823686163233
1.1573706993195371773
1.1574058277488934454
1.1574244095523660292
1.1574312598712463984
1.1574362174266241698
1.1574477932433573368
1.1574708015719734622
1.1575089316942561712
1.1575584985853344389
1.1576218755525435888
1.1576953062333217304
1.1577804062817629305
1.157880332581993077
1.1579935434591486221
1.1581185086791925265
1.1582509893579946425
1.1583810122779372165
1.1584966508308216504
1.1585873348318320719
1.1586448457748541596
1.1586656749821073742
1.158651781952686699
1.1586115506131555719
1.1585570561786429078
1.1585016066016573522
1.1584559902664051112
1.1584256080302925973
1.158410553491714845
1.158405270440189927
1.1584019325717753723
1.1583942139583844888
1.1583800286488852294
1.1583640203327614238
1.1583554271927654078
1.1583635959270708327
1.1583942492982692851
1.1584463604613910448
1.1585106561792666291
1.1585725670301372237
1.1586165336169464979
1.1586297342327183113
1.1586059608486267702
1.1585473952098666039
1.1584622752076028096
1.1583616674860992557
1.1582567260468135117
1.1581576024106863265
1.1580718700659324849
1.158003652368372105
1.1579544825857341905
1.157924622464283626
1.1579133628825701852
1.1579180029799907015
1.1579331592019665997
1.1579524051912302163
1.1579694019382713588
1.1579788791927299041
1.157979451630880785
1.1579748570238497241
1.1579728189831701712
1.1579824537304088672
1.1580106821237459158
1.1580596633193374068
1.1581256579055689837
1.1581986378612449951
1.1582643067751787758
1.1583087150605035909
1.1583221013106250741
1.1583012766153664153
1.1582506591362560222
1.1581805337470105766
1.1581030837907946296
1.1580301841647886452
1.1579715791148517123
1.1579323653332007638
1.1579137072383454132
1.1579150685781585128
1.1579353911905692076
1.1579759988129112447
1.1580398629502806074
1.1581297779434680528
1.1582468443832296678
1.1583886533779350625
1.158547820296655706
1.1587123010134259271
1.1588669465391574498
1.1589962686791333013
1.1590883438154957474
1.1591363518319277581
1.1591395824759529454
1.1591017140124300067
1.1590290056696759269
1.1589294620554777548
1.1588121883999606965
1.1586869355435054363
1.1585625263000876028
1.1584473011886782245
1.158348802567730873
1.1582740468519752142
1.1582288603009165406
1.158216746421319554
1.1582380260407889594
1.1582898232549037054
1.1583669759369230601
1.1584622012412666425
1.1585665959352571264
1.1586702210618915476
1.1587631864282115224
1.15883715835841139
1.158886472449186078
1.1589079954500944858
1.1589007646153044462
1.1588667398094323335
1.1588113721164650105
1.1587439158514547533
1.1586764280021317752
1.1586212752677769178
1.1585880281776321787
1.1585805262052606412
1.1585964899030052333
1.1586284797180752548
1.1586664709389873362
1.1502679889853275608
1.1492000912857647243
1.1504720385969042784
1.1523334049654310185
1.1531118993586737531
1.1522259957625198279
1.1517522709170484596
1.1519051483543762959