/*--------------------------------*- C++ -*----------------------------------*\
  =========                 |
  \\      /  F ield         | OpenFOAM: The Open Source CFD Toolbox
   \\    /   O peration     | Website:  https://openfoam.org
    \\  /    A nd           | Version:  12
     \\/     M anipulation  |
\*---------------------------------------------------------------------------*/
FoamFile
{
    format      ascii;
    class       volScalarField;
    location    "0.0072";
    object      T;
}
// * * * * * * * * * * * * * * * * * * * * * * * * * * * * * * * * * * * * * //

dimensions      [0 0 0 1 0 0 0];

internalField   nonuniform List<scalar> 
75962
(
300.19844427068062487
300.22029015926409556
300.11554179145531407
299.98420067192182614
300.0338091416525117
300.22662462135252781
300.34546744004461516
300.26241063337175774
300.12815029998802174
300.01247800236598096
299.90973842678528172
299.94056536303554594
300.10392894853703183
300.27140144032603075
300.32216540771793234
300.20082240237212545
300.02958160149813693
299.96955507998040957
300.02959212902942454
300.13669365002652967
300.24521487406434517
300.33612769527229602
300.3681281133604557
300.30772701410000991
300.20471254181182985
300.16272253839446194
300.2306226716041806
300.36306171400065068
300.51552381396533065
300.64773383153152508
300.69957045754682667
300.64748328407767985
300.53565589322766982
300.42728475565553481
300.34659750004578882
300.29156580776435703
300.26741073354992295
300.28552453605294659
300.33976267103685132
300.41930557142285352
300.49520621606006898
300.54326637289688051
300.55714638408289829
300.5587254367860055
300.5747818497075059
300.60750975256860329
300.64162961968833088
300.66007361562429878
300.64893623842880288
300.59584801515075014
300.5022656194511228
300.3977432455426424
300.32883176134265568
300.3258937351026816
300.38826518325498682
300.49184286253120035
300.60367974004901725
300.69056424326129218
300.7169876457176656
300.67671190335499887
300.61286470887608857
300.59734551530829094
300.67531531087018948
300.81746122469058946
300.94487742134077735
301.00629056903511582
301.00590768888872617
300.97277653007387244
300.92468786410165649
300.86938581793310732
300.82029152212913914
300.79781365922127634
300.81983675184653748
300.88926165019694281
300.985677307302808
301.06937604207519144
301.10200208109949926
301.07829087168818205
301.02937417788660923
301.00099299429518851
301.02765884372780647
301.1192405755996333
301.26104075153079975
301.41849311439443682
301.54756619798837391
301.61433968444111997
301.60783361850855044
301.5412876809986642
301.44484248913090596
301.35739493828862123
301.31436967529452886
301.33045470935678622
301.38675135692869844
301.43793548308099162
301.44291553431628472
301.3956659136356393
301.32291610783607894
301.26765015982635987
301.26159837017621612
301.31546933459992488
301.4154661109787412
301.52623294622441108
301.60398000171369404
301.61986342677238326
301.5766350259152091
301.50939868807341782
301.46051857511804428
301.45499443994594913
301.48928468750199272
301.53746656861608244
301.56791439989643777
301.55867558014904262
301.50621562405103759
301.42538068394634365
301.34276310637267215
301.29037325185009877
301.29316091927961452
301.35575969175181399
301.45868768142656791
301.56404983345095161
301.63661251170918831
301.66289193474125341
301.655172186598179
301.63764789276029887
301.62811294078022684
301.62814593939737051
301.62516064409362571
301.60462846566633743
301.5632769657092922
301.51228004703540364
301.47015798295990407
301.45019275486737342
301.45413994229681975
301.47489569341740889
301.50450542972942003
301.53828711816021269
301.57380816692807457
301.6083164571793418
301.63718798917528829
301.6562527789150181
301.66525251597789747
301.66989157489871332
301.67807394771165264
301.6921547901588383
301.70423298184681471
301.70042897303665086
301.66966893076340739
301.61230230290192367
301.53836418428318211
301.46197085034577867
301.39664984227744071
301.35427607251853033
301.34345459055742822
301.37143979833825824
301.43846785443929548
301.53591970142468881
301.64728376440893953
301.7510744329863428
301.82657537560555738
301.85778827999922669
301.8363833372501972
301.76251627047133752
301.64506850972134089
301.50042858121508971
301.35123715071330253
301.22269541724671171
301.13591618586826826
301.10397564336363985
301.12857883223313138
301.20041229397099869
301.30180939835560139
301.41255928079999649
301.51436834577344825
301.59281346100965493
301.63816974980636587
301.64488577276875958
301.61318046246839231
301.54950207283604868
301.46793743737703153
301.38810471329662732
301.3305220146476131
301.31094491447908013
301.33500100121028709
301.39733757106654366
301.48508785600648707
301.58420538472927319
301.68207132388255332
301.76892055587370578
299.61383078549721404
299.61539957971126569
299.61224762571572455
299.60801897884203981
299.60781918042664529
299.61422492649882088
299.6256337491122963
299.63700627007631283
299.64161026676873689
299.63551187556856803
299.61945676327235333
299.59828238246552701
299.57860236924182118
299.56595490822695638
299.56302940203204344
299.56874224350065106
299.57895990461128122
299.5881151797539701
299.5916664186346452
299.58815824626088897
299.5798487514771864
299.57158552983742084
299.56817601469492729
299.57199596005909825
299.58143241314400029
299.59139467132371237
299.59607217229807929
299.59218079511089172
299.58073455147422237
299.56607586559192669
299.55316578784515968
299.54520107071931534
299.54259103179100521
299.54370358845784494
299.54666231609922988
299.55065398496515172
299.55578923788590373
299.5620344713855161
299.56855173984570229
299.57405376586723378
299.57787639322560835
299.58085123936240279
299.58516520427934893
299.59324812018235207
299.60642816722992166
299.62410330099504563
299.64357518502737321
299.66082045896081354
299.6720359231340467
299.67500023228524242
299.6697923840924318
299.65850202234560129
299.64441271169079073
299.63062298194722644
299.61900454372795366
299.6097669707944533
299.60205569861830099
299.59518404768283517
299.58960596618152294
299.58711728063758528
299.58989224587537592
299.59915744493895318
299.61420135688979371
299.63219356262476367
299.64920989216551561
299.66164775368054052
299.66758918322955196
299.66725422690456071
299.66249439223776108
299.65583441153074773
299.64971127652182759
299.64593673168224086
299.64584720939592444
299.65030902393027645
299.65978025789496542
299.67386457645221753
299.69093030746688555
299.70822251160319638
299.72260250416786675
299.73158076620228485
299.73450951925735808
299.73313795682759064
299.73105239073032635
299.73218111289173748
299.73919855706003545
299.75249576198922341
299.76976683857850503
299.78675000107028836
299.79890584671016995
299.80294185437657006
299.79797118833698732
299.78551384775403221
299.76885837812068303
299.75187715673553157
299.73782238355317986
299.72860482049105713
299.7244195990936646
299.72397640034796495
299.72532435665840467
299.7267861806508904
299.72747229402705216
299.72734632886130157
299.72689668338824731
299.72655723625820201
299.72617415380449302
299.72484540379394957
299.72135636250800417
299.71497089368284605
299.70602589737961807
299.69622852801040835
299.68799232099178198
299.68375788978494256
299.68496802782459554
299.69181457505351318
299.7032189031224334
299.7174808825824357
299.73302424161624913
299.74896583975709063
299.76503862430320169
299.78131852616445485
299.79749718287405358
299.81273776216215765
299.82574094831795719
299.83519983799413922
299.8400740808611431
299.84000280250427295
299.83545990023316108
299.82769117370065715
299.81826138242888646
299.80862301239312728
299.80003037229653273
299.79330719081872303
299.78903974348520478
299.78760972154418596
299.78921135559022559
299.79368584449821356
299.80063073924657147
299.80907185913832791
299.81799743475778541
299.82625852200607142
299.83318974171521631
299.83851542404198653
299.84249701303315305
299.84604530433665559
299.85024111305671113
299.85615668274397194
299.86448580315493473
299.87525459500955094
299.8879946013813651
299.90175107477483607
299.91546378891672475
299.92809690335508321
299.9389607100679882
299.94761631602347052
299.95392230694170621
299.958029363198591
299.96033021035060528
299.96152142143182573
299.96227196097663636
299.96316884015209325
299.96428478388673966
299.96515592898384739
299.96514325783113009
299.96361936235194889
299.96051368826977068
299.95639586447379088
299.95224859737101042
299.94935670147776818
299.94881455369267087
299.95099020321305261
299.95542644815350286
299.96094142869003463
299.96583862342720295
299.96846850092691739
299.96781313132333935
299.963693597585916
299.95672257433000141
299.9481675576453199
299.93962354262231429
299.93245677504199875
299.92734019745677188
299.92427418034145603
299.92281324637332318
299.92230764744198268
299.92206079870720714
299.92147486082529895
299.92017425589210688
299.91793168407286885
299.91479931613167764
299.91125979204014129
299.90815323860533681
299.90652392791486136
299.9073947985026507
299.91159865712864985
299.91954992146327186
299.93109018318608605
299.94538038437548266
299.96098869430772993
299.9761012498518653
299.98873551914931568
299.99718639133931219
300.00032636410537634
299.99786233568812577
299.99038682443426751
299.9793327298845611
299.96671820005724385
299.95475922013116588
299.94553789303114399
299.94071941422390637
299.94127618120569423
299.94741127270333436
299.95857206981395393
299.97367607472187956
299.99131217764272606
300.00994507206434037
300.02811121570522346
300.04463384772776635
300.05878130633550427
300.07027338550881268
300.07918074947292553
300.08575813134973487
300.09027057957848683
300.09280004626833716
300.09325746650785049
300.09144265784493655
300.08712536262555659
300.08011832359409254
300.07050500739302379
300.05881639046475584
300.04605579405892968
300.03365249408113868
300.02317362974883963
300.01599672863460455
300.01306350310403559
300.01476910477413185
300.02076126319735749
300.02990105553993772
300.04042200294634313
300.0503442120838713
300.0579028112827018
300.06194831306220294
300.06207392273864798
300.05865198275461125
300.05260424556968246
300.04518497770902741
300.03769334285419745
300.03123692445473125
300.02655923745749078
300.02389426828239039
300.02303957438010684
300.02348476441557068
300.02465722312939533
300.02606896918598522
300.02740167268291316
300.15878098744900626
300.22394279661904193
300.03305887414501285
300.1149557275209645
300.22810904411039701
300.1748845546341613
300.12826231547313682
300.10262260532084611
300.04309243817215247
299.97086566454476042
299.94803754768514636
299.990439445324796
300.07358565479449908
300.20095068136919281
300.2825634295941768
300.20655659402757465
300.04177800813812382
299.95693369467267075
299.98930399320676088
300.09039021035289352
300.23181118034318615
300.36248530866669171
300.40456336308108121
300.32697225630249704
300.19891925141888578
300.13077437439505957
300.1686355224833278
300.28576410654579831
300.43917233280222945
300.55953277308702809
300.58679615497754867
300.53416868171797205
300.4557866053742714
300.38365757433103909
300.31803914844044812
300.26656283561436567
300.25661876152889818
300.29712104188718058
300.36469308256408794
300.4369212784129104
300.50522608674634739
300.54878975775898198
300.54867891299403482
300.52540120510673205
300.52336218603716134
300.56386212767068855
300.62128503550752612
300.6582984578000719
300.64982137132255957
300.58994805554624463
300.49347966573077429
300.3914722523625187
300.32151197658549791
300.31166442549238127
300.36499026507834742
300.46036708895087486
300.56885000582980183
300.65578336243140711
300.69155044422547007
300.66140515021606916
300.59985539033272062
300.58265075543255307
300.65804843923541512
300.79636805038126113
300.9233245234265155
300.99360919973258888
301.01138744527366953
300.99334192312528558
300.94896151863082423
300.88614970805667781
300.82581506457262321
300.79826575385993692
300.82313194401643841
300.89883781198278712
300.99931383841203569
301.07981786908118238
301.10109038098983092
301.06026045374164823
300.99520406693852692
300.95922697504403232
300.98826463111259955
301.08842722250500401
301.24098414962259085
301.40907038782762584
301.54787054253523593
301.62077333437440529
301.61595496485693957
301.5478739069878884
301.44866586478406134
301.35824827863689279
301.31365080014217028
301.32834178190677221
301.38482001065625582
301.44019206166905178
301.45295501054374654
301.41050359122141344
301.33648364601901903
301.27387410255408895
301.26052982493814625
301.31082820841419334
301.40686313159704923
301.51136584843209221
301.58117154885940181
301.59009944307769047
301.54221999457786296
301.47047984117045871
301.41879618243467576
301.41565191498187914
301.46331132442139733
301.53488037567609581
301.59046729744500226
301.59764396522325569
301.54631235892242103
301.45448341720242524
301.35932547354275357
301.29909482004779875
301.29976533888685708
301.363857491856038
301.46609378208501084
301.56493421742976579
301.62448292641710168
301.63439229155591192
301.61246230342914032
301.58991147598845828
301.58913558160065804
301.60993973649408417
301.63141479956738067
301.62955982860648874
301.59481893781543249
301.53965297176222293
301.48831137267347913
301.45998826842873086
301.46002164441142668
301.48046555661431967
301.51068925514010743
301.54472104425957468
301.58013908915910406
301.61368765165792638
301.6385747525001193
301.64823092306869512
301.64244854027521114
301.63014840846989273
301.62408440870973436
301.6307515784984048
301.64349963138573685
301.64742664542109196
301.63118629915993552
301.5937502027110213
301.54216597648894549
301.48610233493519672
301.43518816741283217
301.39800182393480554
301.38434990710538841
301.40210966852004049
301.45422151008369838
301.53433236077847823
301.62865621270458405
301.72028198286352563
301.79167231605646293
301.82750747838605321
301.81776629525597855
301.75948575089120141
301.65840434268000081
301.52840678696230725
301.39049627431495537
301.26886440531285416
301.18455941983961566
301.15063834257563258
301.16876450973541068
301.2309345260163127
301.32198678196277797
301.42362975915102652
301.51828406269032712
301.59089514933117471
301.62982323669348261
301.62854464622790829
301.58790830426551111
301.51641684410316202
301.43062191923547743
301.35101273333083327
301.29775453821633846
301.28481873202940733
301.31628627408696275
301.38621610405840556
301.48139441913184555
301.58708660449951822
301.69031058281689184
301.78094860575311031
301.84960819988708636
299.61823592984148945
299.61645171840660851
299.61000049769518228
299.60060952483797792
299.59278008686356998
299.59106531684517449
299.59756179122058484
299.60986297613027318
299.62249796363187215
299.62942891165221226
299.62704318688014382
299.61598860079556061
299.60059706026777349
299.58651861350449508
299.57803166790387195
299.57671272696086362
299.58129158649921919
299.58836723732730434
299.5937388168518396
299.59402746615194246
299.58798124054578693
299.57736015880936975
299.56628748432706288
299.55941665561482523
299.5595558467479691
299.56622026723221097
299.57588470470358288
299.58326363220299982
299.5841315384130894
299.57750679539020666
299.56574374534886829
299.55273763707657508
299.5420127624710176
299.53522091839022323
299.53227615913982618
299.53251300687554703
299.53555726597960529
299.54113427562396055
299.54849047419349972
299.55637678322153761
299.56350949665517192
299.56933525785439087
299.57470676060859205
299.58161128077284729
299.59210078502206898
299.60709111472544919
299.62568297382762239
299.64535013643239836
299.66277245635347981
299.67504155404321864
299.68042758242029322
299.67878930559601258
299.67149627655572885
299.66066787630080626
299.64840722704491327
299.63614436756489567
299.62430075861954037
299.6128269857633768
299.60213477960621731
299.59377824953884328
299.59004517720416061
299.59299738856105932
299.60329988734605422
299.61942448995199584
299.63775720966953031
299.65379758404856148
299.6640207792092383
299.66707234707598673
299.66397280865948005
299.65731775025290062
299.65017996487648588
299.6450252695003087
299.64341388629293306
299.64615899771814611
299.65365980357444187
299.66596847894737721
299.68249263463553689
299.70159103830593494
299.72051492501924486
299.73606905150734292
299.74582681197477996
299.74933678900930545
299.74860283340666456
299.74740394548587119
299.74965300184294392
299.75790924482618038
299.77216624493775043
299.7898552279726232
299.8067419950675685
299.81856723279861399
299.82260759340846334
299.81839135255580686
299.8076237449238306
299.79346738822857787
299.77934317367981976
299.76796534476943634
299.76065954510858091
299.75725852154437234
299.75638578019578517
299.75625334072287842
299.75547611768672596
299.75345415191821985
299.75043988107080395
299.74716375958911385
299.74424764827824674
299.74162856621956053
299.73860105464785875
299.73435774066933845
299.728386276187166
299.72118058489445502
299.71415913727611269
299.70923573617938018
299.70809105898246116
299.71146722971872123
299.71888441805992898
299.72918825230544826
299.74112851353856968
299.75400157847911942
299.76786490196502655
299.78325873749736274
299.80045654784476028
299.81889976670044007
299.83688057818858397
299.85209801527747686
299.86222021948850625
299.86590690246498525
299.86326968846321961
299.85585521423678301
299.84610467982741966
299.83650965638742036
299.82893196199802333
299.82426092962765551
299.82254360745548638
299.82321611932115957
299.82552014791616557
299.82886500474194236
299.83301486101237288
299.8376805049944096
299.84291062531633543
299.84819178513515681
299.8535591627417034
299.85846852317240518
299.86310724326602895
299.86751472146067954
299.87220768745112309
299.87803734442627501
299.885635146846937
299.89554583601488957
299.90767701130806699
299.9214366845077393
299.93580862989688285
299.94954962433104129
299.96139234756674341
299.97044611419488547
299.97631098259103055
299.97902609955497155
299.97913362302870155
299.97746521283931997
299.97511196453518778
299.97303293797017432
299.97186008655313572
299.97171939758038661
299.97207497324779979
299.9721334717032164
299.97114962039893271
299.96886505580175708
299.96580494380867776
299.96300190292816978
299.96165383172058228
299.96271916397972745
299.96642722503122513
299.97209139942464162
299.97834108303953826
299.98343540509216609
299.98574248997260838
299.9843048192584547
299.97902273934494133
299.97061965771126779
299.96035288289647269
299.94974301017543894
299.94019903778115577
299.93266877245213209
299.92746494702396376
299.92443485948257376
299.92315837529196187
299.92308900972369656
299.92368707099859648
299.92440285199381833
299.92467280114419736
299.92410945649720588
299.92265930037893895
299.9206711517462054
299.91894667857911827
299.91861347450355879
299.92073811196326005
299.92603009243373435
299.93457934385656927
299.94574779627509997
299.95819198649752479
299.97009016870612186
299.97952824731476085
299.98494704563199775
299.98550874658712928
299.98122690623881681
299.97299522995047028
299.96239556742580135
299.95128899428317482
299.94146451864503433
299.93435710891333201
299.93087339901916266
299.93143489505064281
299.93604060254187971
299.94433970019559865
299.95576945363126242
299.96972570141440428
299.98550211802603371
300.00231715235412366
300.01924783135831376
300.03527005323417143
300.0494223608214952
300.06091619135798965
300.06925051799038329
300.07417916754218368
300.07566735167080196
300.07379859867540972
300.0687590804865863
300.06092668639462318
300.05079780915468746
300.03897058184435309
300.02615096244113602
300.013264788523486
300.00140857477481404
299.99176456784340417
299.98538839085750851
299.98298002575631926
299.98476450626435508
299.99047787367788942
299.99930067203251838
300.00996321597136784
300.02093133209524467
300.0307157361304462
300.03815492779580154
300.04260014128158218
300.04389273018790618
300.04231292259868269
300.03841094278106993
300.03290060613664991
300.02660738198460422
300.02042460867090767
300.01517647636535457
300.01144931002392013
300.00952084245267315
300.00933482101311256
300.01057967452180719
300.01275770125664621
299.91700307691792204
299.98367831573932563
299.99743288376038208
300.09355834789573692
300.17723814038458841
300.07006370142590868
299.93687931164288329
299.86510162197470208
299.8169004150503838
299.82861610120460227
299.91591676846496739
299.98863352022937079
300.05301668492165845
300.15955767084807349
300.21578325899218953
300.12577736435349607
299.98559643158233712
299.9410867181572371
300.00918357929214153
300.15861096645176076
300.32338460394032609
300.40369286919320757
300.36904949553263577
300.25529959057479346
300.13134764580519231
300.05929877684980056
300.07924284139880911
300.1943854321388585
300.36602698794024491
300.50517279571522522
300.54638129932050106
300.51320397055422973
300.45440470950114786
300.38687124103444148
300.31004219611645567
300.25346095169140881
300.26573082600509679
300.33870265249930753
300.41558365486304183
300.46366104326756385
300.49494981456570031
300.5076999534666129
300.48886779036371308
300.45882366258098273
300.46886479910392609
300.53701187527258298
300.62270186365259406
300.66619606915537588
300.64262750586124184
300.56991579753611177
300.47896680526042701
300.39594070566442952
300.3444509256939341
300.34458597526554513
300.39830607674628027
300.48724444911334786
300.58517171285018321
300.6694876716828162
300.70466668731995696
300.67442304140598708
300.61422073827367285
300.59441285082846207
300.66000319742101965
300.78839236366638943
300.91700325190504373
301.00119620490340822
301.03188634495472797
301.01423175909098973
300.95671188253186301
300.87936686641683082
300.81705360593588239
300.80186461413615007
300.84329145232572955
300.92723260156429888
301.0230479151379086
301.08789056905817461
301.08989134177198821
301.03491822584629745
300.96877082542539483
300.94412313820890859
300.99122332729149321
301.1071429733418654
301.2651472328818727
301.42521778183152037
301.5453919713072537
301.59443848293233259
301.56617235541307309
301.4848282202103178
301.39042690785993273
301.32332184207172077
301.30836081782433666
301.34762014351588277
301.41823077519296703
301.47724219504226539
301.48412592647440533
301.42667089423923699
301.33712655882993658
301.26857231132453308
301.26386266154855775
301.32960991837626352
301.43469994964340231
301.53357560582435326
301.58848550322829851
301.58245540615530444
301.5258024411919564
301.45162610163970385
301.39983027785751801
301.39963403744377501
301.45384199565916106
301.53577121078672008
301.60199045995693723
301.61465020296145667
301.56355720669876064
301.47231599438839567
301.38285213740323343
301.3332405657029085
301.3416941632506223
301.40205596452170766
301.4871725055250522
301.5610062550003363
301.5962629679490874
301.58842022250820492
301.5576415751947934
301.53627836129584239
301.5466982162274121
301.5852925510785667
301.62572561944153904
301.63793513090826082
301.60952375930258995
301.55381846497778042
301.49852619756200056
301.46686146551991214
301.46542890325821418
301.48613327621933422
301.51730708010660464
301.55245925649273886
301.58864914274295188
301.62087069562420538
301.64005031780237687
301.63950899142065509
301.62145763768944562
301.59837460977558976
301.58415143857104113
301.58442573525479702
301.59176203022485652
301.59415130767638402
301.58264487654560071
301.55838380373461405
301.52700559888290854
301.49307973812079808
301.45907224774254018
301.43021470433603781
301.41523071953287172
301.42358262705931793
301.46024277034820216
301.52351406608772777
301.60375038078967691
301.68658123847177421
301.75556530787883958
301.79509270992645042
301.79409409255202945
301.74850594946332194
301.66292940475921114
301.54955888162874089
301.42758683957475796
301.31883895449743704
301.24250819156878833
301.21034504958441858
301.22374843638664288
301.27536434372143503
301.3526798009991694
301.4396733541454978
301.51963209034607871
301.57776387661982653
301.60267307657994706
301.58892988524473822
301.53919205039829876
301.46496018271085404
301.38393599087555685
301.31564987546931889
301.27709950713040143
301.27767180654819867
301.31824791759515847
301.39084830500900125
301.48325653731797047
301.58105955059920689
301.67268339560996537
301.75009147901204187
301.80622582069338478
299.61533180772926244
299.6160022093146722
299.61295081654344585
299.60704177248231872
299.60127514536765148
299.59921704315246416
299.60234594985615786
299.60904054023217213
299.61573711048612267
299.61878280887043502
299.61608515632417493
299.60832924642863873
299.59871054615746289
299.5910410486312685
299.58775033190579506
299.58909284031528841
299.59363195854604101
299.59899216987309956
299.60260370328876434
299.60217402205597637
299.59649499415075979
299.58611380795520063
299.57364055251065338
299.56298368827850709
299.55746862952366882
299.5583104256503475
299.5640314055179374
299.57092998989878652
299.57481183863956176
299.57309992411558142
299.56586663563143702
299.5554860026728079
299.54508644931769368
299.53706257547730729
299.53259469219773337
299.53193115320817697
299.53484202691947758
299.54078817082984187
299.54877525688988271
299.55757217271849413
299.5661570335983015
299.57424436727887951
299.5824050308757478
299.59177039006658561
299.60349208153468226
299.61816374412296682
299.63509963790340862
299.65236816148785692
299.66750755492222424
299.67842129146879415
299.68390815822039031
299.68375036100576381
299.67873896378927157
299.67019380383004545
299.6594245872471447
299.64749371074395867
299.63509632183240683
299.62282041823164036
299.61169860850856139
299.60357214870981579
299.60068768657214378
299.60472795717299732
299.61568586259977565
299.63115596945306152
299.64709748937673339
299.65935991770606961
299.66523036417532921
299.66429009126528626
299.6583317063276013
299.65049979413089432
299.64401717910357092
299.64117543379478548
299.64302054597021652
299.64966710099741931
299.66085880710517131
299.67619571694331171
299.69490385660498077
299.71534285275896536
299.73495589796186778
299.75080248298735341
299.76073576430860612
299.76464599103417186
299.76474291305697761
299.76465589097250586
299.76801277581625982
299.7768768933169099
299.79084467081804632
299.80731566086228668
299.82262581942762836
299.83333418756211586
299.83759423905752328
299.83544703440958301
299.82860580073838719
299.81954895473768374
299.8107229886713867
299.80379967072531144
299.79929590116671534
299.79669691640702922
299.79485792714041281
299.79256101004978063
299.78894393184339151
299.7838441219574861
299.77771309559039992
299.77133311992355402
299.76518531706199155
299.75939525321678047
299.75384766416226512
299.74827555389435929
299.74260401160142919
299.73760734533357208
299.73444835714582268
299.73438983464160401
299.73793879523935857
299.74476569639574564
299.75372886508944248
299.76348139239541979
299.77315915421240788
299.78291143040740963
299.79377846487932402
299.80692974505444681
299.82281824275185045
299.84056941200572055
299.8579405193806906
299.87200820136615675
299.88030770077591569
299.88176263549519263
299.87703761562414684
299.86858113326218245
299.85954530281782127
299.85282599312995444
299.85021230529724789
299.85187834523225092
299.85676374771520614
299.86300585884890779
299.86885017577924373
299.87302387376064416
299.87536427966171004
299.87632851833285486
299.87690542062767918
299.87800999179165728
299.88014239054064092
299.88375572605042407
299.88849914575575895
299.89467411642425532
299.90196130717805545
299.91053225384905545
299.92075936318116192
299.93247813472908092
299.9454985071473061
299.95936347778581421
299.97302485326321175
299.98522200600831411
299.99485453390241219
300.00107195737803067
300.00351083734852864
300.00235567579147755
299.99844155822478342
299.99298525574766927
299.98733666524566388
299.98261110342735947
299.97938080025079444
299.97769065031519631
299.97700867979142458
299.97655401687410404
299.97568966758069564
299.97419428707979705
299.97252746405791868
299.97162753816627401
299.97245518938547093
299.97560989442587243
299.9810078866480012
299.98771096899025679
299.99421100881340863
299.99887613198927738
300.00033301714597656
299.99788268913147249
299.99170916004561604
299.98264987756363098
299.97186981602897049
299.96056739839053762
299.94985593809309421
299.94059124150214757
299.93326030884924194
299.92805117919573377
299.92499819336899236
299.92402003875025684
299.92480282122454582
299.92672951009535609
299.92906957284640157
299.93111158856623888
299.9322643353622766
299.93235860203981247
299.93178444424984264
299.93138649428226472
299.93217692085994486
299.93494075844074587
299.9399567534696871
299.94685801149080362
299.95459003718229951
299.96163094888311207
299.96648320344610283
299.96807672423665281
299.96604439343627746
299.96082626348407985
299.9534885957036181
299.94530352087241454
299.93752307446885652
299.93117613969013746
299.9268059882500097
299.92455332764882314
299.92438935578059045
299.9262384520390583
299.93027326221721296
299.93682590118129383
299.94620561743334974
299.95854079364136169
299.97357713435047799
299.99053040140404391
300.00811051121019091
300.02469428182962474
300.03862415959065402
300.04861691441919902
300.05392699677418022
300.05445313546118768
300.05056563437517525
300.04292595109194508
300.03239438593442401
300.01994986235683882
300.00663777954315492
299.99339739954666584
299.98111205574929272
299.97057781747156469
299.96253378204630735
299.95758709879152093
299.95610130238583224
299.95811202419588426
299.96333497051426775
299.97125228590840607
299.98112525492456371
299.99203223053547163
300.00293266775582879
300.01278593755125712
300.0207111975225871
300.02609354561218424
300.02857499824034448
300.02801920822031434
300.02459950210072748
300.01886692736479745
300.01178443645119387
300.00462766849494756
299.99870838606807411
299.99504638580049232
299.99406448851812002
299.99553624930132401
299.99869663474731851
300.0024914888651324
299.61513441371749877
299.51138708348275941
299.74909140520213668
300.05199259358528252
300.18217305265380901
300.08849028907042111
299.99984787554706145
299.93897052550107674