#                 v                   n
  5.23598775598e-10        192198213404
  6.96909970321e-10       18419522695.3
  9.04778684234e-10       14846942027.7
  1.15034650999e-09       11841601663.4
  1.43675504024e-09       9391508997.86
  1.76714586764e-09       7434715118.23
  2.14466058485e-09       5892479608.97
  2.57244078451e-09       4691194393.13
  3.05362805929e-09       3786846272.66
  3.59136400183e-09       3241384834.63
  4.18879020479e-09       3551873756.92
  4.84904826082e-09       7044654318.45
  5.57527976257e-09       23373005691.2
   6.3706263027e-09       89394666269.5
  7.23822947387e-09        335420852028
  8.18123086872e-09   1.19175343893e+12
  9.20277207992e-09   4.08134051762e+12
  1.03059947001e-08   1.34950973269e+13
  1.14940403219e-08   4.24042265621e+13
  1.27700505381e-08    1.2421206836e+14
  1.41371669412e-08   3.31194360857e+14
  1.55985311238e-08   7.79769172317e+14
  1.71572846788e-08   1.55855249445e+15
  1.88165691987e-08   2.51656677436e+15
  2.05795262761e-08    3.1234124921e+15
  2.24492975038e-08   3.02183353186e+15
  2.44290244743e-08   2.72738420105e+15
  2.65218487804e-08    2.0495486626e+15
  2.87309120146e-08    9.4770715838e+14
  3.10593557697e-08   2.30898388084e-66
  3.35103216383e-08   1.26446370551e-90
