# Forces                    
# CofR                      : (0.00000000000000000000e+00 0.00000000000000000000e+00 0.00000000000000000000e+00)
# Time                      forces(pressure viscous)	moments(pressure viscous)
0.0155                      	((7.91334694289497560557e-16 1.51642261230567328312e+04 -2.41456200003522323884e-14) (4.06859337178223756659e-01 -5.42639115797298801636e-03 -3.03543756540114928119e-06)) ((-2.99863865618181790751e-02 6.36304141035375746851e-15 5.72419210895122887450e+00) (1.02241437441202248328e-05 1.79789568629112623405e-05 -3.85879657312663271185e-02))
