/*--------------------------------*- C++ -*----------------------------------*\
  =========                 |
  \\      /  F ield         | OpenFOAM: The Open Source CFD Toolbox
   \\    /   O peration     | Website:  https://openfoam.org
    \\  /    A nd           | Version:  12
     \\/     M anipulation  |
\*---------------------------------------------------------------------------*/
FoamFile
{
    format      ascii;
    class       volScalarField;
    location    "0.0066";
    object      k_0;
}
// * * * * * * * * * * * * * * * * * * * * * * * * * * * * * * * * * * * * * //

dimensions      [0 2 -2 0 0 0 0];

internalField   nonuniform List<scalar> 
75962
(
3.1318472798867406503e-05
5.4205025736814054155e-05
7.2162541405299367712e-05
8.0747848390807385908e-05
9.4473857710476212427e-05
0.00013063931405207085531
0.00016994422753395115088
0.0001903261848651874148
0.00021035538033650720341
0.00024840338817179013478
0.00029534504958017918086
0.00033059129387350412411
0.00034839569044450537571
0.00036127330852607459711
0.00038569984530977186781
0.00045116898621896326651
0.00054702780611228494796
0.00061596257517983427163
0.00065164149047662752422
0.0006676507304138428996
0.00068451367216862824949
0.00072114274254357472495
0.00081623821283082691018
0.00093381451013483426481
0.0010244406618045908894
0.0010903108273725709964
0.0011568267938862285792
0.0012418793133494733082
0.0013368234439044925956
0.0014160309786102529255
0.0014618444942263277356
0.0014802383097770157108
0.0014975035372315295169
0.0015363604129369657237
0.0015855996985156349099
0.0016245138350145893295
0.0016501723746979325008
0.0016742905530740305204
0.0017184031257900110774
0.0018203553203027459783
0.002000278634268098845
0.0022103426012116595724
0.0024146612291960959339
0.0025771145085068491824
0.0026822941597490503572
0.00274060835296550823
0.0027742951790306474846
0.0028026814909790139646
0.0028397089054641162613
0.0028971032668563853445
0.0029817673267039362245
0.0030892017972720510824
0.0032028856344921323787
0.003299665104884527949
0.0033630454843727032414
0.0033967305518474294468
0.0034288239966161243762
0.0034953576449866358665
0.0036832877058939035922
0.0040251491326072797589
0.0043174596174008423102
0.0045090486702856740625
0.0046029793323675745331
0.0046347743543264539531
0.004641866373413183755
0.004648024061322455526
0.0046646214678573300061
0.0047176346838900115252
0.0048647126187924384991
0.0050623349167208189781
0.0052594999040051501962
0.0054330599332876039487
0.0055552941186576372187
0.0056162511811946201276
0.0056371472959896775506
0.0056558729711637277179
0.0057084478708368923544
0.0059079679238346546888
0.006320707723757141086
0.0066296981452953008054
0.0068093342139969002813
0.0068967342319981809334
0.0069379175063409414398
0.0069642707495511727012
0.0069883506909803744245
0.0070141257689554448521
0.007051453298242462038
0.0071266772687401712741
0.0073230306662938268736
0.0076994774278864750935
0.0080296915213616815166
0.0082317145094426662222
0.0083080479023370894243
0.0083272521062785296447
0.0083556266174425672388
0.0084615682806717367609
0.0088488813063906709283
0.009386201956122008222
0.0097847222212528242591
0.010058675798825880005
0.010235998791312310441
0.010339482538174493351
0.010386127940127529851
0.010397898574969271016
0.010400881530864684518
0.010413908251968343258
0.010485234011885641303
0.01073913273818609404
0.010985992183265525998
0.01109129846979579892
0.011107872453242064945
0.011089766310894965187
0.010988519434564655505
0.010849466067778886988
0.010787963667207106644
0.010780227315400440005
0.010812872742121185099
0.01100977377845941893
0.011638841754242330515
0.012271163097361665467
0.012654017883701601521
0.012832866996624113162
0.012928307795533632019
0.013082311266310649861
0.013472526175954162991
0.014219174953921005777
0.014904032761613851196
0.015363989516727094911
0.015565041143298360971
0.015593795067332041557
0.015545541984959956872
0.01533359033736021379
0.015187947232476768991
0.015179170696987393657
0.015299529526547291092
0.015910696912482289594
0.01679766706444459079
0.017280221269164505044
0.017449350992750765899
0.017473418611894310504
0.017470941529882155763
0.017478161791549162024
0.017513594522267542097
0.017524112383629164569
0.017491437208542182091
0.017288374586634701335
0.016786550008147427954
0.016441480163104916362
0.016293689438818946547
0.016269143501564449494
0.016289488519944453349
0.016407622099631903601
0.016600140371515807042
0.016718628222095022196
0.016778449539523371259
0.016802625672108335853
0.016806247740093795129
0.016803005418704830554
0.016784191075012173944
0.01671583410492942165
0.01658347183915672915
0.016473446884566970982
0.016395424295570719397
0.016350063183244077647
0.016329141365654917945
0.016325616105966448549
0.016327967641566187851
0.016341001605192369273
0.016390755027775677499
0.016549464269388601545
0.016765374431213595635
0.016948566582458662877
0.017090739177516925396
0.017188490202171651661
0.017246044765810489979
0.017272891658864114595
0.017283857001465476738
0.017294808513030817537
0.017318340683909128758
0.017386545841869594647
0.017501725194588813039
0.017619444534862051949
0.017732188071300024335
0.017843044208568831221
0.017955681981847410045
0.018078193210462962376
0.018213957454176817052
0.018360945715385438431
0.021754330864210687929
0.021848537134931188958
0.021955893513830676556
0.022073739389554765389
0.022199991999969512224
0.022330047232841866017
0.022458935337622241979
0.022582986492684184454
0.022698355568003841798
0.022800563454453678935
0.02288724465930033064
0.022956190797235084822
0.023007504076464312115
0.023040722053452561413
0.023059419233497246982
0.02306762062187166229
0.023069674293742473137
0.023069121083737969408
0.02306481620976042618
0.023057093541949236215
0.023050008585872756861
0.023044093434273191928
0.023037634066714472031
0.02302653917895751759
0.023002636382872802823
0.022971469922125464097
0.022936463402819934343
0.022900658629456456528
0.022864691500030630972
0.022830693852441394376
0.022797900330140473402
0.022767359315150569737
0.022737971440001628065
0.022711200476900950118
0.022686029121515457335
0.022663693377868856377
0.022642554848614725865
0.02262361644835106031
0.022604960942117977712
0.022587335961919936117
0.022568417318144056577
0.022549069822442768113
0.022527645996970321191
0.022506054475784190855
0.022483426207002693564
0.022461800955019331494
0.022439987068643182933
0.022419212330880445433
0.022397913967158993714
0.022377243350920068832
0.022356183773903314654
0.022336351239889879611
0.022316880841858042356
0.022298838769829840145
0.022280673362725426923
0.022262764662994528192
0.022243604495372625018
0.022223740897236339553
0.022202125840683140795
0.022179493895754427008
0.022155323264837125524
0.022130710380622826278
0.022105624132259599907
0.022081024884344123416
0.022056593145059158467
0.022032747285428644357
0.022008832158588138156
0.021985090964162623539
0.021960948043834190718
0.021936968891029733769
0.021912589618644510298
0.0218884902687087185
0.021863658207968882791
0.021839179806783771964
0.02181437249801824671
0.021790955580751353998
0.021768089032002672228
0.02174653969923456831
0.021724690726109208844
0.021702647253202044658
0.021679282470725359105
0.021655156456527029779
0.021629920340721458388
0.02160432122614824868
0.021578477416835793734
0.021553103712448642287
0.021528347294394258732
0.0215046575493283397
0.021481342841303072838
0.021458578428121235365
0.021435049043448842904
0.021411560724377977361
0.021387029025218200901
0.021362694780979112757
0.021337803574805851159
0.021312885220015766186
0.021287660952690291155
0.021261739274442314346
0.021235496730088416345
0.021208491200703345758
0.021181631176790984006
0.021155175307798829848
0.021129907012219843049
0.021105734773964612144
0.021082662912938178457
0.021059388631098567568
0.021036559909332123303
0.021012613835209244945
0.020989412499240002463
0.020965163239409879276
0.020941384209211322265
0.020916043989204890358
0.020890538463634037575
0.020863431124948889767
0.020837057608785104768
0.020809766858963022612
0.020784258657032740614
0.020757896031211687388
0.020733246205201814188
0.020707285957191116921
0.020682775039044525023
0.020656300464116105625
0.020631606753645594099
0.02060488374895953767
0.020580653175390400955
0.02055499598077390952
0.020531694328743851224
0.020507069672859191273
0.020484187348672775603
0.020459467002229628219
0.020436591991157326831
0.020411608250575329071
0.020388856224614077678
0.020364303201772671753
0.020341999321206557377
0.020317839818166691379
0.020295810638738552567
0.020271200114124313801
0.020248925136994062879
0.020223648722595334581
0.020200821685390973892
0.020175143696916680164
0.020152318841599525107
0.020126827405736333332
0.020104604005650391491
0.020079461667703250166
0.020057152377087768963
0.020032100208514640183
0.020009875060563002414
0.019985441859304203804
0.019964188788041788841
0.019940688367904718659
0.019920177138113476234
0.019897011451298716317
0.019876696745173099562
0.019853456460187532406
0.019833447431637816344
0.019810734170024942025
0.019791693412106417527
0.019769662320335130296
0.019750867698049734411
0.019728335059947810226
0.019708468456200840813
0.019684639567735751076
0.019663895958751634319
0.019639465725090784337
0.019618793639865642064
0.019595129632422214616
0.019575318086255847488
0.019552893712493649159
0.019533929266815693027
0.019511647301069780236
0.019492404193175015548
0.019469369202896272958
0.019449078498446362162
0.019425303809350719791
0.0194045638137807612
0.019380766927318115317
0.019360563091003060027
0.019337827148752591983
0.019318901390275252522
0.01929722495984713404
0.019279046640079296193
0.019257525131989625122
0.019239133502712637419
0.019216906957725779503
0.019198192079798934162
0.019175569063770159239
0.019157013176064951326
0.019134433404533069539
0.019115893573503562469
0.019092848204444103077
0.019073505148162046147
0.01904989410230123123
0.019029865423445788825
0.019006563504078931998
0.018987057695729111367
0.018964591742619441028
0.018946153221010529621
0.018924219373617170992
0.018906108174325794713
0.018884081334352622455
0.018865755501524229809
0.018843455707030182938
0.018824880455108307376
0.018802645245580187905
0.018783971784790274434
0.018762051486554423563
0.018743552379221744414
0.018722111657505202675
0.018704066850138235945
0.018682982652377565919
0.018665685131755406501
0.018644852327860960556
0.018628439120498187925
0.018608320536239494891
0.018592583409975597941
0.018573205987431246761
0.018557634287414023072
0.018538150139024347357
0.018521907457898608568
0.018501336966174720261
0.018484122680348345769
0.018462421903971935194
0.018444509704980661946
0.018422985920987743763
0.01840534556534524635
0.018384728898061364344
0.0183680231895109701
0.018348197357265609575
0.01833279145611308239
0.01831350508905105548
0.018298863232917350619
0.018280322123954795971
0.018265503399296147136
0.01824684499226047335
0.018231752274584865636
0.018212678390816333662
0.018196969748903113473
0.018177640650557141261
0.018161813737854179407
0.018142195509432138684
0.018126697072655503784
0.018107346501568845343
0.018092400031863003357
0.018073806698904786028
0.018059687230286294857
0.01804216047620251645
0.018029161757916245534
0.018012539392917185921
0.018000558785479913587
0.017984249600961055987
0.017972618351136355336
0.017956708731249722277
4.0274655320059882377e-05
6.4784532873779222513e-05
7.9786676116200581444e-05
8.7298074386325553173e-05
0.00010137785638062612363
0.00013591895583762547521
0.00017303627284849610398
0.00019335655548871375311
0.00020825296107937298399
0.00023964289216720893239
0.00029547321792969093038
0.00034522248529724700473
0.0003740401542410722968
0.00039133451147117136919
0.00042018667127095295872
0.00048829841897314021828
0.00057051723669913608026
0.00062893544888702776312
0.00065808667327611140418
0.00067349059104941395165
0.00069647574897017895581
0.00075141789867596913647
0.00089357118676230246849
0.0010408667362485424842
0.0011354891857173197208
0.0011949825728302591703
0.0012520184687092935239
0.001315522266745566566
0.001373987650271322157
0.0014228110576300356804
0.001469466023855917243
0.0015260679948362299799
0.0015837520297473572581
0.0016264737725627518607
0.0016531077402140940263
0.0016753067369034957933
0.0017044166066131768381
0.0017467656524050361941
0.0018144004142071799238
0.0019284559020357162299
0.0021007354465830681105
0.0023136199827631545416
0.0025231694934505452012
0.0026856636251586835269
0.0027843509238962820679
0.0028312555086996370711
0.0028560665066024487797
0.0028879805888898405983
0.0029440136196054104804
0.0030272101813518092345
0.003131814535045970762
0.0032456491768946276084
0.0033528433650750096018
0.0034374066303543291193
0.003490658308162661403
0.0035185557552835267266
0.0035451727210226570246
0.0036002990251866148937
0.0037550394996516303463
0.0041488450610848654279
0.0045397220596769564602
0.0048063189840046203691
0.0049442630516029302187
0.004993208438499766727
0.005003162716988616282
0.0050057289444915336815
0.0050114959161513331076
0.0050293740283876130909
0.0050832090183172504855
0.0052417052378985595079
0.0054592849098421851115
0.0056434149353049994913
0.0057710591264246479185
0.0058362026148640845299
0.0058580646161564943822
0.0058721143919750256809
0.0059073539452261904573
0.0060368318304544173539
0.0064194138831240666124
0.0068065858856638464941
0.0070625797943903662404
0.0072092739856868199091
0.0072856688888886956407
0.0073258864960421736859
0.0073495366107639405542
0.0073682305904614947209
0.0073952760341447244807
0.0074530368638015586161
0.0076124194621672173003
0.0080217573120305689371
0.0084310398158989469097
0.0086954386590390418676
0.0088096633273148806237
0.008837793948308032832
0.0088561047308140534301
0.0089130787717848561358
0.009135535889750603239
0.0096259558037045129392
0.010040463778178932222
0.010339780384696562604
0.01053370949365592911
0.01064275234594723625
0.010690642731961413556
0.010705978387089368914
0.010717415612864175309
0.01074766316424060654
0.010856456324893291529
0.011160395138556085046
0.011427337071742356064
0.01156345724498160886
0.011599661787840413393
0.011595510836690237771
0.011548016982415190354
0.011427017853129191674
0.011357090978302689099
0.011341511508063506497
0.011358676667959078516
0.011487476059124904562
0.012015489791566859659
0.012760333720095671031
0.013222155709582050429
0.013441254763090127247
0.013578980069750513568
0.013829839715777680204
0.014372286169945375223
0.015048810520053008608
0.015667171516815837223
0.016090203146133800344
0.016274842918297775796
0.016298692534819220201
0.0162436920583040878
0.016011419270291999545
0.015852604165490533777
0.015840929628076157176
0.015960715794294685899
0.016586469009179333894
0.017484411536739675325
0.017948680710697221402
0.018129195963412277764
0.01823842062363803182
0.018396874049706836429
0.018585214598786075485
0.018722001958660600823
0.018764649632821258501
0.018746044624523078986
0.018579042398306318956
0.018050263884891525057
0.017623618813610096578
0.017436524755295522426
0.017400516824766662505
0.01741867504110986703
0.017533034856646204785
0.017709708670468882891
0.017809049483820119791
0.01785472396727567912
0.017868081223411075298
0.017868276775025355302
0.017858201169960494226
0.017813393404931526093
0.017680647948305778377
0.017536611638706647159
0.017430550046036295819
0.017361341518560991642
0.017324200072019572266
0.017309803676887305229
0.017308284908446103234
0.017311650384136779285
0.017329679932890400956
0.017398648003980957122
0.017583829216428339265
0.017767414366869061643
0.017901690817725027932
0.017984175195509488621
0.018024141383965221197
0.01804357891780246359
0.01806830217587559323
0.01811626645002487393
0.018190277916020927002
0.0182849238186124953
0.018389835543630089071
0.018494563555751311612
0.018593617050197325247
0.01868841056357731234
0.018783994379380240802
0.018892061871264215211
0.01901771420155217579
0.019165371911678698302
0.019327968888304382367
0.019495557998613501083
0.022810795777318468303
0.02290188670197809348
0.02300589614829770535
0.023123371897424919302
0.023250846007189247822
0.023385741680283893273
0.023524080284355333714
0.023660636506780075017
0.023790764467548689703
0.023911563368521536466
0.024018964894139693128
0.024110763831988967637
0.024184058104972035869
0.024239673811482034121
0.024277218360953884552
0.024298650971811441845
0.024309878160072823094
0.02431330157121450869
0.024313726103582136706
0.024312056793130032428
0.024307092443034066659
0.024301677193769077867
0.02429574656328408952
0.0242879547365655174
0.024273101794005210591
0.024241878686739576354
0.024204176561800266887
0.024164564051699862629
0.024124994296437232699
0.024086348505487797933
0.024049334529766663165
0.02401405819575227335
0.023980711426023235827
0.023949310852618786033
0.023920198207870894264
0.023893307193881604261
0.023868804731013420345
0.02384626011728413833
0.023825507878572568105
0.023805719994370221071
0.023786308774619908946
0.023766224100114155537
0.023745123280996847243
0.023722572711685187274
0.023699016031701391344
0.023674670135325908554
0.023650307761505881543
0.023626104465665313803
0.023602309411392918131
0.023578770667607919231
0.023555592705519226571
0.023533179432233489875
0.023511952156596294117
0.023492193604993279188
0.023473513910315092074
0.023455234872002721919
0.02343649260096285214
0.023416789642621997636
0.023395691491071752416
0.023373251783642398638
0.023349307249625656652
0.023324350228795618506
0.023298528233139593341
0.023272644647132023632
0.023246787714883001413
0.02322161758634715828
0.023196699716757300525
0.02317227938483116742
0.023147590757301571285
0.023122814907552517727
0.023097559910806638589
0.023072143233090619541
0.023046340909646825107
0.023020269732752486613
0.02299402220953512474
0.022968035561759827384
0.022942781907050797952
0.022918497983418363584
0.022894806254668827877
0.022871444476183271088
0.022847430824001459249
0.02282284725643668466
0.022796986687912836056
0.022770678421724283025
0.022743566391861490955
0.022716937373885304208
0.022690364732275699472
0.022664734173884957397
0.022639280785517981731
0.022614189934686761835
0.022588861373093425955
0.022563323693629681183
0.022537367046068734755
0.022511185898496058333
0.022484640848579096062
0.02245830767096787875
0.022431457895546090542
0.022405076479991719446
0.022377571495130803292
0.022350498375058220485
0.022322352603412538852
0.022295224897197235547
0.022268066571159823852
0.022242623251190394434
0.022217277690226883147
0.022193275941501808962
0.022168172199438455211
0.022143975496897234934
0.022118054327200355191
0.022093567992017407176
0.022067559269826276386
0.022042892325174475582
0.022016242222532841216
0.021990119669364958238
0.021961802711722534093
0.021934663461281141833
0.021906002241842966599
0.021879572614958247428
0.021851591850614082713
0.021825812180657298139
0.021797940410641192949
0.021772239927613061539
0.021744043078606178215
0.02171833198599792264
0.021690132742818220984
0.021665020659996470781
0.021637942718375189483
0.021613837835286118377
0.021587587478828190735
0.021563568240282934146
0.021536856815696572842
0.021512547907924669394
0.02148568057440804549
0.021461762848352949201
0.021435663609504610611
0.021412487439436786452
0.021386903597442250696
0.021364128505063584296
0.021338281583873179581
0.021315445831007633071
0.021289058340122592877
0.021265674322918284161
0.021238731801752785966
0.021215155192851095634
0.021188244274725012012
0.021165196266684740967
0.02113859477567035447
0.021115429111786716831
0.021088776163028351285
0.02106548826009312439
0.021039140173627544211
0.021016742028192127167
0.020991336518640418135
0.020969839533166820256
0.020945089470740561183
0.020923973610365048659
0.020899414805914784399
0.020878886192130820948
0.020855026269812140111
0.020835551838337146996
0.020812189359350960483
0.020792614544663481913
0.02076835156545520783
0.020747425935002575259
0.020721888059302504687
0.020700187458252434364
0.020674325664061157098
0.020653004594411109723
0.020628001908177779483
0.020607590384174652443
0.020583678808592506537
0.020563927387088794252
0.0205399917692730416
0.020519788069606453157
0.02049491391510777083
0.020473630497305665005
0.020447883322736108702
0.020426194777964236382
0.020400641010958137783
0.020379824268237138607
0.020355776445306630884
0.020336551387844518241
0.020313752474157474592
0.02029535573554061903
0.020272637730908687342
0.020254082370326630114
0.020230802014756878865
0.020211721376013774137
0.02018772115757442101
0.020168335576649824153
0.020143885318036496707
0.020124155659244084143
0.02009910927924852056
0.020078543133878124644
0.020052863417891385323
0.020031728893786432399
0.020006410755299186555
0.01998607955114029347
0.019961897695160980143
0.019942861644873761257
0.019919345903098871486
0.019900549274589410254
0.019876789504011508486
0.019857559827850763956
0.019833296562234172672
0.019813739624586115817
0.019789512396645676795
0.019769988010188463412
0.019746151507931519742
0.019727033406438148483
0.019703772785064486983
0.019685055634524769447
0.019662029852388924339
0.019643797153789280957
0.019620900322983650388
0.01960322350884035475
0.019580794894911761339
0.019563806022882084673
0.019542138328823593918
0.019525407993721752287
0.019503919759601764938
0.019486921420557079543
0.019464679212803159131
0.019446818226268924867
0.019423529092200166046
0.019405052922674664861
0.019381739230189713036
0.019363531956987443949
0.019341194365445756043
0.019324046011294327557
0.01930257605711106772
0.019286606102669780205
0.01926563224006828598
0.019250116236164689643
0.019229439377901204333
0.019213641844479115162
0.019192858927816865144
0.019176789279631619584
0.019155763812786361783
0.019139239970044037015
0.01911795682836445881
0.019101262942945371887
0.01907962461759208847
0.019063376767114378896
0.019042045592899268375
0.019026305486334639527
0.019005763879784799003
0.018990639039665038745
0.018971172906249958445
0.018956983939199402445
0.018938447632485720662
0.018925468986150228295
0.018907275943704664189
0.018894986611960835204
0.018877131961067841748
3.6275828008658180164e-05
5.8256742475560179266e-05
7.8508250416499251231e-05
8.9377700414569044162e-05
0.00010362903397750857122
0.00013995490597996622785
0.00018799909797332305821
0.00021746918792640019115
0.00024093469185800311938
0.00027599035090597684797
0.00031901236948670747993
0.00035319609010232410479
0.0003720897964420114435
0.00038746877283631856598
0.00041782384823913735084
0.00050015376232115545379
0.00061308358541669564102
0.00068794594556307762587
0.00072260756010433444246
0.0007368142520186674602
0.00075275017921564400802
0.00078822733252834694014
0.00089251619702841961199
0.0010682991904513725392
0.0012006711655158926015
0.0012730057463827516243
0.0013182918677681089697
0.0013759108104600182611
0.0014506985695421149071
0.0015164861829036592814
0.0015542489457393432201
0.0015754090217991317813
0.0016118496451457892723
0.0016854543161680878797
0.0017665492649986550347
0.0018290624277191604424
0.0018661679799724226105
0.0018887293432917437886
0.0019182897170384777437
0.0019817115850078864669
0.0021447843467943695367
0.0023956353461233857206
0.0026364134722858170029
0.0028295649372693538331
0.002962312965417572639
0.0030436483789922784589
0.0030874920946223284764
0.0031112033003057645159
0.0031392505754447830833
0.0032008777255520151454
0.0033097746629239350666
0.0034330719651441280252
0.003544052494439213323
0.003621927116751563324
0.0036628867381835101581
0.0036831621117266281906
0.003707873355840630384
0.0037649290224753516332
0.0039399099283375753344
0.0043504035823461106522
0.0047153757246299020378
0.0049535681808498760806
0.0050723787370593725193
0.0051152838170095875706
0.0051304586697994416719
0.0051502451433072899897
0.0051948785287964276483
0.0053121278470030204935
0.0054904349239568456947
0.0056798835447974252086
0.0058629314626717958861
0.0060105613602717241142
0.0060988740068918592674
0.0061318757844754118863
0.006138726669555834986
0.0061491420943028231652
0.0061965611380679882017
0.0064073054634087639111
0.0069430732348856249656
0.0073727271691122293548
0.0076151883804042403911
0.007720201879462958508
0.007752236114386842035
0.007759536424762572375
0.0077633082847232406584
0.0077721289024482520871
0.0077994887928074510194
0.0078905311166798230288
0.0081972581232142485014
0.0086811657822450181282
0.0090344679043985517269
0.009217316777449554091
0.0092664054847958129968
0.009263697268979482341
0.0092517292810856618934
0.0092658544717037893274
0.0093857133155561562471
0.009803463806043142062
0.010236319463367057198
0.010518774130093328303
0.01068599285358623821
0.010770490127546508696
0.010807232417969454136
0.010834400470270399985
0.01088893604133261625
0.011040124369168968083
0.011404033101447679302
0.011738511683959269513
0.011947668788885550464
0.012031600204133168636
0.012042448607367656904
0.012023233423662568059
0.011928259647537641647
0.011826034846604662268
0.011791157550784005237
0.011795624768406731686
0.01186598794740997484
0.012202327159079942587
0.013089604218495023633
0.013851870809155997916
0.014305757659041799107
0.014507922584319958223
0.014592584921901012585
0.01470425921119921861
0.014986101732189028093
0.015716553126554740072
0.016462913003496008196
0.016936607421220589015
0.017123244858598615087
0.01713673765119211323
0.017041113545026978504
0.016711835747719745032
0.016526845906379535739
0.016518684023990141962
0.016674736950570125116
0.017448448367743354948
0.018535340800005767337
0.019110861914370103759
0.019307803860909793225
0.01936405949076307198
0.019456747579077803001
0.019676603648863082163
0.019871460980618389086
0.019945081289278229764
0.019935684007218526514
0.019794874668839342047
0.019256762341398114824
0.018714899680042512004
0.018446719294210978807
0.01836178354713667582
0.018357211510923159697
0.018383525405743190301
0.018489456634314505035
0.018621681074294543778
0.018724245764781460855
0.018798423171718332131
0.018844853258350134639
0.018860105938785398649
0.018858672231909730937
0.018836935944512387536
0.018742864879979965337
0.018580664037188020232
0.018468311013784034086
0.018406369915474989768
0.018379349742019501085
0.018372675442330899109
0.018372550100900841147
0.018375706044935158356
0.01838865741382292654
0.018430394585706406235
0.018536569942214808915
0.018653293428204709148
0.018761812576699656019
0.018861537237292395203
0.018958437928512820309
0.019059816671273457217
0.019172609659088783729
0.019298101357912975096
0.019428601436593195828
0.019552918819929151345
0.019659807951835608225
0.019747178656847282074
0.019820894683706079958
0.019892708682324559966
0.019975932302346392777
0.02007863278230835602
0.020202052296253471264
0.020341627376308360486
0.020487217182495021106
0.02408147681849818339
0.024167435090828047473
0.024267237768909578899
0.024379347650141037357
0.024500830707492114724
0.024627931300102660211
0.024756594712130049196
0.024883333897436618609
0.025004421137015453436
0.025117498198556752892
0.025220183114514724276
0.025311042008330713465
0.025389411575936254167
0.025454658361245073583
0.025506973676494307246
0.02554661820065239064
0.025576487245030185558
0.025597587665632415277
0.025611174756251135071
0.025619143527351284639
0.025622576732596307608
0.025623239097079739124
0.025621306439700373275
0.025617422336651131387
0.025613022192481189887
0.025606359550106566614
0.025592046217202801123
0.025555492478995876782
0.025504514029641031647
0.025455817383165279394
0.025407545626849104003
0.025362745474197988943
0.02531929965562504381
0.02528017338447456977
0.025242767522691621912
0.025209755688880487734
0.025178111011282092863
0.025150565264070400689
0.025123692495760026333
0.025099867518570052882
0.025075284911237762098
0.02505227657204806696
0.025027287813637204977
0.025002976768227377219
0.024976010445320891151
0.024949660477308899242
0.024921244815633854242
0.024894501791873767382
0.024866628898468027403
0.024840897799775451399
0.024814371178975665883
0.024790655921743579015
0.024767047839933119951
0.024746579042677279564
0.024725642115608736926
0.024706236891820314988
0.024684728211640118156
0.024663478211723280364
0.024639586035381941947
0.024615835124656981758
0.024589598216145723553
0.024563825144920673621
0.024536148029782160057
0.024509661808301583946
0.024482000379914770072
0.024456254348673770599
0.024429599745156026919
0.024404791194204959737
0.024378494917053891711
0.024353407726337143735
0.024326346510293118952
0.024300236382157044956
0.024272057771738745485
0.024244842873473795852
0.024216011656668281343
0.024188975098592219171
0.024161253701375680347
0.024135753566613796922
0.024109415849694032508
0.024084498626794077769
0.024057975779149268214
0.024032218178112914331
0.02400440583946291187
0.023977410487567733799
0.023948830035185577486
0.02392186258049067149
0.023893846251028454802
0.023867535480535873732
0.023839366678542809469
0.023812681140928212281
0.023783663680977968485
0.023756750583090239376
0.023727224612945459897
0.023700080978303419282
0.023670155544304488648
0.023642718941646812675
0.02361302037427466527
0.02358551464059721603
0.023555858379079794296
0.023528073496000587866
0.023498502763025171797
0.023471664906752297969
0.023443380194722123616
0.023418377697426065454
0.023391009777315653617
0.023366427013071393304
0.023338520183228777388
0.023313037997464640394
0.023284300403102614618
0.023258534045734087503
0.023229934814715795521
0.023204705577631875441
0.023175964491555803293
0.023150033282595971346
0.02311999779727859361
0.023092833743300639898
0.023062445309309315133
0.0230355522058073095
0.023005527345417678409
0.022979115419116676738
0.022948714320181973214
0.022922355103587685465
0.022891822073005121951
0.022865514708329631038
0.022835366247954083652
0.022809607854597447468
0.022780453463488309351
0.022755822351514767149
0.022726996829461772881
0.022702322393213125729
0.022672752833129368455
0.022647402952017500061
0.022617866015580925798
0.022593086690414366374
0.022564578734979190422
0.022541011389136788451
0.022513334923528707798