/*--------------------------------*- C++ -*----------------------------------*\
  =========                 |
  \\      /  F ield         | OpenFOAM: The Open Source CFD Toolbox
   \\    /   O peration     | Website:  https://openfoam.org
    \\  /    A nd           | Version:  12
     \\/     M anipulation  |
\*---------------------------------------------------------------------------*/
FoamFile
{
    format      ascii;
    class       volScalarField;
    location    "0.0066";
    object      nut;
}
// * * * * * * * * * * * * * * * * * * * * * * * * * * * * * * * * * * * * * //

dimensions      [0 2 -1 0 0 0 0];

internalField   nonuniform List<scalar> 
75962
(
4.6357447644672972786e-07
6.0930978295483170499e-07
7.0276048791977475443e-07
7.4288393179308400071e-07
8.0285315845754696203e-07
9.4322570547427057564e-07
1.0752817329689535069e-06
1.137268161371969984e-06
1.1946792798922988973e-06
1.2972166626138332688e-06
1.4135512965658127591e-06
1.4946148652534177325e-06
1.5333534469188152928e-06
1.5603393084867504336e-06
1.6109988742493115001e-06
1.7408341869052468176e-06
1.9156406625636019976e-06
2.031545438181229712e-06
2.0882510841277359464e-06
2.1123244522387390497e-06
2.1372962845895877922e-06
2.1920622640636660236e-06
2.3302335048628552386e-06
2.4908074003361887461e-06
2.607224940922271121e-06
2.6879400658233847313e-06
2.7667424988900151245e-06
2.8646022157926866282e-06
2.9700522811658585394e-06
3.0547543555702315557e-06
3.1017361998858452764e-06
3.119074474147678785e-06
3.1349999786319782442e-06
3.1731267706349690061e-06
3.2213395013303170232e-06
3.2584091997176677478e-06
3.2817909750647353901e-06
3.303361035719168457e-06
3.3441589797066423761e-06
3.4392786290870073564e-06
3.6026211204285050628e-06
3.7844529961016161061e-06
3.9528835308890280568e-06
4.081036265747038297e-06
4.1607401112996355281e-06
4.2028829077646250742e-06
4.2257227635393657328e-06
4.2443274975808616004e-06
4.2692672508893129505e-06
4.309142501550401028e-06
4.3685581018939123404e-06
4.4434386649748503853e-06
4.5213284314925680031e-06
4.586003522130328382e-06
4.626705368000943689e-06
4.6466307518991796467e-06
4.6652496343438319332e-06
4.7068994913896569085e-06
4.8280003341476004949e-06
5.043583324956487759e-06
5.2200841587066894645e-06
5.3311605672214742204e-06
5.3828239781333525252e-06
5.3977197942246081731e-06
5.3981283674981715454e-06
5.3979552485781212722e-06
5.4037815845406085552e-06
5.4304847498960392903e-06
5.5104451623993031169e-06
5.6173610606374841791e-06
5.7217775439081857233e-06
5.8114695628822081984e-06
5.8725089875316620263e-06
5.9006276372538355267e-06
5.907519846286029446e-06
5.9131940312219561263e-06
5.9363805175201137844e-06
6.0345713709517515355e-06
6.2374670189212402303e-06
6.383906211868737069e-06
6.4655180471260318369e-06
6.502480652298579656e-06
6.5173905031282742666e-06
6.5252346105678735318e-06
6.5319610331008535545e-06
6.5394368978529654915e-06
6.5522248517164977241e-06
6.5824190965595919919e-06
6.6675307558098236119e-06
6.8319661266934245019e-06
6.9722505484870336842e-06
7.0547157331196601164e-06
7.0825595603557474974e-06
7.0858408958731958872e-06
7.09293347188372585e-06
7.1325781718316548757e-06
7.288381250170840538e-06
7.5013501537577469919e-06
7.6538373711661654479e-06
7.7550320444936262997e-06
7.8177990049922805872e-06
7.8518723054799373004e-06
7.8641739936978603023e-06
7.8631946390809882971e-06
7.8588551699987422146e-06
7.8582753113893629587e-06
7.8795049035583821244e-06
7.9685515466685059551e-06
8.0542111036007403763e-06
8.0872700280324207858e-06
8.0877683662245625245e-06
8.0756212659266936196e-06
8.0332475585432305527e-06
7.9766440679936889457e-06
7.9483902122074549519e-06
7.9399799650458730379e-06
7.9463750558113979445e-06
8.0124280300649851838e-06
8.231939166846598312e-06
8.4470976078483520788e-06
8.5722234849875912014e-06
8.626786011771884509e-06
8.6527980763052060744e-06
8.6979842866746214544e-06
8.8201393619494862448e-06
9.0548625569994180127e-06
9.2641482599773250311e-06
9.3998135713984802753e-06
9.4548235616060350361e-06
9.4571008596052129742e-06
9.4360135545540321697e-06
9.3651015590659438052e-06
9.3138379029565730868e-06
9.3045783365585470849e-06
9.3346167579897885644e-06
9.511842989491592633e-06
9.7669427633082579916e-06
9.899800461060383647e-06
9.9414864948869696498e-06
9.9415167381470957069e-06
9.9339084328749307937e-06
9.929032871388751333e-06
9.9321735319640829236e-06
9.9283020708537316829e-06
9.9122461552407991562e-06
9.8480483654550764861e-06
9.6974466710825104313e-06
9.590329871136097804e-06
9.5402996874393358528e-06
9.5263965424338650138e-06
9.5256715180259127879e-06
9.5533399384747860083e-06
9.6026024744482570887e-06
9.6302041426820975519e-06
9.6407805726544366318e-06
9.6410643420951636637e-06
9.6354285834960209364e-06
9.6278245244677053177e-06
9.6157875764875201311e-06
9.5896167706905970866e-06
9.5449437675936455068e-06
9.506577806440863628e-06
9.4773985756401854985e-06
9.4576591280646871249e-06
9.4450108635467465418e-06
9.4374210465079546017e-06
9.4315435896274225799e-06
9.4287378099445724662e-06
9.4364532841974109131e-06
9.4752953300237367659e-06
9.5303044827865759703e-06
9.5756225934867063635e-06
9.609075223413602427e-06
9.6298738240106936115e-06
9.6393267916910709583e-06
9.6401586802678365581e-06
9.6365390865454236694e-06
9.6329014929110335242e-06
9.6327425553848634025e-06
9.6449112628619451318e-06
9.6700562771509476935e-06
9.6957695972062797596e-06
9.7199778715314902929e-06
9.7435404981434138176e-06
9.7674609817600442445e-06
9.793922905957703649e-06
9.8238046396785244917e-06
9.8565136437408167438e-06
1.044208528255201912e-05
1.0457393247931356551e-05
1.0475759253270522028e-05
1.0496525154644589301e-05
1.0519177901320852058e-05
1.0542614270907390783e-05
1.0565656454357286249e-05
1.0587446225693702962e-05
1.0607096475334447226e-05
1.0623582764104383226e-05
1.063638223512975567e-05
1.0645010335408631191e-05
1.0649517731800897929e-05
1.0649817540205899918e-05
1.06467510850659794e-05
1.0641258483573555165e-05
1.0634349876295992338e-05
1.0626846592003275557e-05
1.0618491389722752946e-05
1.0609348743570120623e-05
1.0600356178011777398e-05
1.0591635731233657922e-05
1.0582796544499607864e-05
1.0572904975071812267e-05
1.0560087951550639957e-05
1.05456086238030329e-05
1.0530256705407863908e-05
1.0514729570040354982e-05
1.0499173233850181357e-05
1.0484078298509054064e-05
1.0469270185605868717e-05
1.0454989580545982783e-05
1.0440982809283381932e-05
1.0427584715520080396e-05
1.0414561566205458762e-05
1.0402198501045692002e-05
1.0390121578339921925e-05
1.0378562981146538719e-05
1.0367084004812306521e-05
1.035585597525584153e-05
1.034434430462232018e-05
1.0332744380041308769e-05
1.0320675677594613631e-05
1.0308573277510517149e-05
1.0296237575779081661e-05
1.0284136660141451888e-05
1.0271999904093318196e-05
1.0260110093464836761e-05
1.0248110016808787814e-05
1.0236262034938608078e-05
1.022433235555258676e-05
1.0212690186736562319e-05
1.0201139283124155473e-05
1.0189925907986053613e-05
1.0178698141817405835e-05
1.0167544122239685996e-05
1.0156118938970638699e-05
1.0144545739114944945e-05
1.0132582657858063289e-05
1.0120394701968830209e-05
1.0107861423507832422e-05
1.0095232861726335e-05
1.0082503038132466461e-05
1.006989217524529399e-05
1.0057328365486928451e-05
1.0044907376465873869e-05
1.0032480363002962181e-05
1.0020103605110560087e-05
1.0007646932422053758e-05
9.9952397942448346289e-06
9.9827529119867259617e-06
9.9703394118941567677e-06
9.9577656204744671888e-06
9.9452769680107689461e-06
9.9327178408457159363e-06
9.920482132360251704e-06
9.9083823405201220302e-06
9.8965961291455770892e-06
9.8847572016475921216e-06
9.8728887469739129738e-06
9.8607323503076340249e-06
9.8484119488095705331e-06
9.8358452175619961305e-06
9.8232000237760956385e-06
9.81050356325201076e-06
9.7979203317596267573e-06
9.7854859408893193537e-06
9.7733049897909291686e-06
9.7612217371934040922e-06
9.7492761379196466755e-06
9.7371679375263307885e-06
9.7250787434891233454e-06
9.7127611670517544003e-06
9.7004966336964936835e-06
9.6881147249188478802e-06
9.6757360995365709552e-06
9.663298236375484875e-06
9.6507113360848526109e-06
9.6380596137090801052e-06
9.6252413157508157494e-06
9.6124615136511281152e-06
9.5997791667516087531e-06
9.5873733990845606319e-06
9.575225461662730607e-06
9.5633382077168640849e-06
9.5514165928012294146e-06
9.5396078301289378222e-06
9.527557139707082466e-06
9.51568691153753967e-06
9.5035910108289980795e-06
9.4916133602977575663e-06
9.4792926567840590801e-06
9.4669433084480151245e-06
9.4542375080012791777e-06
9.4417032042884493773e-06
9.4289660445934735502e-06
9.4166393523302854618e-06
9.4041275480713344367e-06
9.3920139982904511856e-06
9.3796146314074975745e-06
9.367554356340026045e-06
9.3550587095507785644e-06
9.3429742703958940949e-06
9.330437099005331716e-06
9.3184706828888941304e-06
9.3061893190379672445e-06
9.2944504345690715636e-06
9.2824231589089567675e-06
9.2708018959034335074e-06
9.2587756525803339947e-06
9.2471770628308751254e-06
9.2351098129602239865e-06
9.2235546074922907439e-06
9.2115990130744844228e-06
9.2001595642959108377e-06
9.1883092212142731501e-06
9.1769507046648406953e-06
9.1650187045863733856e-06
9.1536250611459192924e-06
9.1415624193325273556e-06
9.1300620499383591122e-06
9.1179251917931142046e-06
9.1064406599478882771e-06
9.0943612050968585344e-06
9.0830282517565666465e-06
9.0710445950685403591e-06
9.0597091664156723713e-06
9.0477627618293806998e-06
9.0364628129423817484e-06
9.0246721977623118785e-06
9.0136075103574918543e-06
9.0020435048008169292e-06
8.9911623924782783641e-06
8.979690541938505801e-06
8.9688707330208686025e-06
8.957399775857814535e-06
8.9466672112568441022e-06
8.9353346054270078202e-06
8.9248407432951678663e-06
8.9136831841549213508e-06
8.9032654025491276677e-06
8.8920143247313109111e-06
8.8813718898734648111e-06
8.8698430590751121288e-06
8.8590150760087408102e-06
8.8473621214904408762e-06
8.8365616737803668061e-06
8.8250950742099516512e-06
8.8145045552751482329e-06
8.8033358802269707214e-06
8.7929567250952361113e-06
8.781841371950064947e-06
8.7714197272470444442e-06
8.7601537713535580277e-06
8.7495125216592227018e-06
8.73809418713838106e-06
8.727364498720356883e-06
8.7159536124770734509e-06
8.7053574328287203812e-06
8.694199778533227946e-06
8.6839072840088554555e-06
8.6730057420561765854e-06
8.6628996212848096374e-06
8.6520514974148947948e-06
8.6419153546959330791e-06
8.6309261830401354172e-06
8.6207338650489676366e-06
8.6096721504450775963e-06
8.5995318599012558124e-06
8.5884969343389911745e-06
8.578377347235459054e-06
8.5672552921092648567e-06
8.5569715390685967217e-06
8.5457380803676913318e-06
8.5353148771791168811e-06
8.5241649160391480138e-06
8.5138733152792402912e-06
8.5029253997311985037e-06
8.492888292817492589e-06
8.4820756219385455847e-06
8.4721277816081430134e-06
8.4613111101940057543e-06
8.4513322455803919039e-06
8.4404722479945773315e-06
8.4304550628863876273e-06
8.4196272190160813292e-06
8.4096044517834953876e-06
8.3988624100621662647e-06
8.3888926544808488362e-06
8.3782710248000063423e-06
8.3684155721554402333e-06
8.357886695727729807e-06
8.3482123276418818836e-06
8.337755025316332755e-06
8.3282947245535464891e-06
8.3180153543235583552e-06
8.3087247940604210927e-06
8.2986308017217812031e-06
8.2893967285258513764e-06
8.2792982796790611048e-06
8.2699325281968280664e-06
8.2596082304665788612e-06
8.2500398658045464922e-06
8.2394756219941820818e-06
8.2297612233091916017e-06
8.2192459954203503641e-06
8.2096018222958543921e-06
8.1992997481773466091e-06
8.189876522806433277e-06
8.1797652163547831844e-06
8.1706482632807630632e-06
8.160675895446353303e-06
8.1517479680319735499e-06
8.1419616398963298482e-06
8.1330131339957100888e-06
8.1232182419074221559e-06
8.1142247248418428244e-06
8.1043524815999015161e-06
8.095235457506856248e-06
8.0853194002324025225e-06
8.0761884679792637394e-06
8.0662206292900098212e-06
8.0571753731729226687e-06
8.0472810714381807975e-06
8.0383727115630522226e-06
8.028661542979235663e-06
8.019951012152524419e-06
8.0104909397558499135e-06
8.002042742706032494e-06
7.9927966873637908005e-06
7.9845873084340246391e-06
7.9754245295113752314e-06
7.9673057586450298461e-06
7.9582457803869745592e-06
5.388727026406557138e-07
6.8355651521463330348e-07
7.5822140423131922545e-07
7.9251249959190774172e-07
8.5327535262523271349e-07
9.8717284726411389481e-07
1.1132968154358426926e-06
1.1761551239153692447e-06
1.2196759073593263076e-06
1.3072566241700706137e-06
1.4505446051795877597e-06
1.5669542971125320416e-06
1.6300363599014325042e-06
1.6661448961900068953e-06
1.7251576191281790767e-06
1.8582433591008251945e-06
2.0073127394684739937e-06
2.1062738647203262559e-06
2.153154260331097637e-06
2.1767039338580494868e-06
2.2119103994300022876e-06
2.2956438797604934143e-06
2.5013648853607833988e-06
2.6980616274644915666e-06
2.8163123889632878795e-06
2.8872391671220629076e-06
2.9532696899158643379e-06
3.0251310757559059854e-06
3.0895062342631419877e-06
3.141752219637288248e-06
3.1906145418062107394e-06
3.2492088649600298138e-06
3.3077711847531240844e-06
3.3498062794379487556e-06
3.3748092265457497606e-06
3.3950329082285134432e-06
3.4219921054123331685e-06
3.4617727012077365366e-06
3.5255810845694985357e-06
3.6320097543664016081e-06
3.7880146572805395377e-06
3.9725609584449827493e-06
4.1458274140794219352e-06
4.2744701312249741462e-06
4.3494265333013089163e-06
4.3829352824224558584e-06
4.3990473666160129909e-06
4.4204445875999298442e-06
4.4599590938463377652e-06
4.5193382090172905724e-06
4.5935293489453102525e-06
4.6730164798327038407e-06
4.7462941239416708261e-06
4.8025042540151946559e-06
4.8362731223474625337e-06
4.8522212241871881549e-06
4.8671218374469232457e-06
4.9013038942225959428e-06
5.0016640435499818974e-06
5.2534112946329437403e-06
5.4918031795171740443e-06
5.6471227871634056497e-06
5.7238311656387810231e-06
5.7482198041881392805e-06
5.749996344554078427e-06
5.7474857750018738391e-06
5.7467892551086449606e-06
5.7529823058159463011e-06
5.7795499455943330686e-06
5.8646471064224036041e-06
5.9810140536948542053e-06
6.0769174533635032315e-06
6.1411101972474420316e-06
6.1714813918641125799e-06
6.1787746327117993919e-06
6.1818684416455181206e-06
6.1960128220176824272e-06
6.2588900371328034164e-06
6.4493108737658543433e-06
6.6365983824544132408e-06
6.7557749432399110984e-06
6.8209921486467590986e-06
6.8523664787650371709e-06
6.8665258204403591829e-06
6.8728377654638819988e-06
6.8767884476367816641e-06
6.8845866134491821517e-06
6.9065410740522665796e-06
6.9748671102738256733e-06
7.1546797852667138614e-06
7.3300671298500034976e-06
7.4391911649123074158e-06
7.4828665408306701022e-06
7.4896575693872712742e-06
7.4921905991661119674e-06
7.5109261128014026624e-06
7.5983544787879712457e-06
7.7941135938949429504e-06
7.954828371002884308e-06
8.0671054923852511623e-06
8.1369116886017889739e-06
8.1733602059838193678e-06
8.1861125545678211084e-06
8.1863135331169368608e-06
8.1849812026138691099e-06
8.1907746244699498211e-06
8.2262058297188192421e-06
8.3345707754183539915e-06
8.427984693333720695e-06
8.4723138588219017441e-06
8.4797774045213363783e-06
8.472414201057326059e-06
8.4492847124458884787e-06
8.3990872732580194426e-06
8.3674392008361202298e-06
8.3558405757482299606e-06
8.3562954075752504662e-06
8.3974187744169019696e-06
8.5815738778827363681e-06
8.8377083988735716236e-06
8.990345255527499587e-06
9.0584501067539082667e-06
9.0983894296433211852e-06
9.1754241870971902837e-06
9.3468213617814657231e-06
9.5576461867421832043e-06
9.7454535943671609616e-06
9.86958599612577586e-06
9.9194218933849391632e-06
9.9199110108191702325e-06
9.8964130424900385283e-06
9.8187316895208970742e-06
9.7629031317748206099e-06
9.7524166774627572233e-06
9.7821279979040328973e-06
9.9643049522171951352e-06
1.0223754521050822759e-05
1.0351856904090624365e-05
1.0396769367479493152e-05
1.0420802933239633011e-05
1.0458643933291407425e-05
1.0504747884784722704e-05
1.0536098239246675348e-05
1.0540854357746211968e-05
1.0528385019692211249e-05
1.0474412700399669051e-05
1.0317406032811474886e-05
1.0187362452522628464e-05
1.012587376060051799e-05
1.0108274557909633116e-05
1.0106462175288884227e-05
1.0132377539484339066e-05
1.0176287168029910765e-05
1.019778429818290619e-05
1.0203820262837154481e-05
1.0200583627429469645e-05
1.0193572310495710619e-05
1.0183650387731293656e-05
1.0163874239856843752e-05
1.0118993422122428533e-05
1.0070650481641243152e-05
1.0033125427903464544e-05
1.0006181360011662956e-05
9.9884880533476595119e-06
9.9773770070572489381e-06
9.970002804301927277e-06
9.9640426006774952464e-06
9.9622798733575830489e-06
9.9750520552454428766e-06
1.0020930028228898937e-05
1.0066167171947881426e-05
1.0097174399213954232e-05
1.0113436777949286256e-05
1.0117675984084454949e-05
1.0116113933328850426e-05
1.0116003690992799531e-05
1.0122369085814761247e-05
1.0135963284882690738e-05
1.0155226928592799441e-05
1.0177234515009649926e-05
1.019907410767755149e-05
1.021923788905783799e-05
1.0238131190640639104e-05
1.025714341783627718e-05
1.0279454613722571626e-05
1.0306411954270000295e-05
1.0339152099806959002e-05
1.0375701333106478075e-05
1.0413349748763120294e-05
1.0978300528109328024e-05
1.0992555473283337764e-05
1.1009830081634353334e-05
1.1030228487525885881e-05
1.1052898280312538419e-05
1.1077208190792885379e-05
1.110220457100747924e-05
1.1126651660588295832e-05
1.1149464930965645709e-05
1.1169982450300375951e-05
1.1187278530016696144e-05
1.1200869544139049184e-05
1.1210110553210296357e-05
1.1215219860998122705e-05
1.1216127179617689969e-05
1.1213298876374256017e-05
1.120810906732277658e-05
1.1201120093274192336e-05
1.1193444193821147579e-05
1.1185297160132672622e-05
1.1176399575488925301e-05
1.1167401781736587061e-05
1.1158291085094788195e-05
1.114875945154603414e-05
1.1137619338623367489e-05
1.1122734766093911757e-05
1.1106364981869205731e-05
1.1089565744194911518e-05
1.1072786351266904564e-05
1.1056229727852398122e-05
1.1040058903242614031e-05
1.1024298270700628731e-05
1.1008991109532596325e-05
1.0994139743278521557e-05
1.0979821564607424454e-05
1.0966021409909855439e-05
1.095277904013860484e-05
1.0939997960052055768e-05
1.0927642386013898551e-05
1.0915523481695551991e-05
1.0903506170688924106e-05
1.0891348104047987195e-05
1.0878968361652022507e-05
1.0866264904952165196e-05
1.085333717095241387e-05
1.0840233956244212226e-05
1.0827132590906961287e-05
1.0814074594035087806e-05
1.0801117991423540566e-05
1.0788228293226351275e-05
1.0775428848087244212e-05
1.0762811593121729347e-05
1.0750473420335001913e-05
1.0738481109870990165e-05
1.0726748524382964331e-05
1.0715123087740910425e-05
1.070340821226336501e-05
1.0691489216520903973e-05
1.0679264152291627468e-05
1.0666741843273663785e-05
1.0653882699583883313e-05
1.0640797951789655488e-05
1.06275221719961467e-05
1.0614240221618500128e-05
1.0600973594333473006e-05
1.0587873530315798659e-05
1.0574841189541358424e-05
1.0561932607306026924e-05
1.0548973863653918627e-05
1.0536006961613003413e-05
1.0522943121171320579e-05
1.0509853998499281186e-05
1.0496686681661325299e-05
1.0483465209163180033e-05
1.0470208763496029121e-05
1.0457017193841182495e-05
1.044400045531555274e-05
1.0431216024723824243e-05
1.0418580671238276671e-05
1.0406036024119158268e-05
1.0393357785521931491e-05
1.0380562270637548055e-05
1.0367485597000275713e-05
1.0354313728271993233e-05
1.0340964489476800781e-05
1.0327731119299321264e-05
1.0314518222701636691e-05
1.0301529495866057644e-05
1.0288593072212195639e-05
1.0275751559875767778e-05
1.0262868001128881882e-05
1.0249947403331859897e-05
1.0236940780001766379e-05
1.0223891720689881328e-05
1.021076860536425558e-05
1.0197703239733423169e-05
1.0184530659118922583e-05
1.0171474905297991977e-05
1.0158173651225551983e-05
1.0144978691402249335e-05
1.0131547311511265375e-05
1.0118353480829827371e-05
1.0105160119605732851e-05
1.009236500548618096e-05
1.0079602445496580157e-05
1.0067156269040607199e-05
1.0054471475422768555e-05
1.004200410425514349e-05
1.0029156752423277053e-05
1.001664607917470639e-05
1.0003802224695504112e-05
9.9912747304779908337e-06
9.9783097750773072388e-06
9.9654744573437527706e-06
9.9521494710757895064e-06
9.9390970735036687908e-06
9.9257048575587425741e-06
9.9128247526001374409e-06
9.8996018845529343234e-06
9.8868884104437066042e-06
9.8737126318618261505e-06
9.8610399616564841177e-06
9.8478116144636098923e-06
9.8351543691086093637e-06
9.8219405057792235215e-06
9.809432797816925069e-06
9.7964885579897258416e-06
9.784228010653292821e-06
9.7714937872763097418e-06
9.7592773094656695471e-06
9.7464628190984274521e-06
9.7342017358014413527e-06
9.721369753427730966e-06
9.7092118025595706884e-06
9.6965670867023934725e-06
9.6845913357101439588e-06
9.6720806129955437432e-06
9.660216190319475342e-06
9.6476686987274019647e-06
9.635813422136932103e-06
9.6231659041733499731e-06
9.6112064688430024937e-06
9.5984510292167911003e-06
9.586463722629059967e-06
9.5737305419214033497e-06
9.5618782662694577231e-06
9.54923218351554697e-06
9.5373712049492813549e-06
9.5247320355899862948e-06
9.5128617825757474285e-06
9.500309331208099461e-06
9.4886572495544971214e-06
9.4763345638394574314e-06
9.4649021827088847101e-06
9.4527438457319362615e-06
9.441414091131269262e-06
9.4293165253220887178e-06
9.4181380361216889848e-06
9.4062188080200521029e-06
9.3953000215596258133e-06
9.3835161052459287152e-06
9.3725969706829047209e-06
9.3606308797505877601e-06
9.3494247961409881689e-06
9.3371860183791828103e-06
9.3258176032610319881e-06
9.3135177658081844424e-06
9.3022474909345862566e-06
9.2901564444048796113e-06
9.2791087523713343784e-06
9.2672839557742445589e-06
9.2564068669496714576e-06
9.2445988051374685529e-06
9.2336404156610090067e-06
9.2216398116502363137e-06
9.2104543325396346216e-06
9.1982711902941952748e-06
9.1870070560787931845e-06
9.17488032261535208e-06
9.1638261089862687377e-06
9.1520539565029599668e-06
9.1413753862736226851e-06
9.1299035385225976806e-06
9.1194311216967498317e-06
9.1079976509122515487e-06
9.0975088804391295749e-06
9.085968075337722455e-06
9.0753793817764590339e-06
9.0636947484127804809e-06
9.0530548033285414592e-06
9.0412868770535594661e-06
9.0305870953485547706e-06
9.0187029471249631295e-06
9.0078319281893950385e-06
8.9958217014034944851e-06
8.9848379194669971629e-06
8.972923180066832497e-06
8.9621340158755165094e-06
8.9504891351563599302e-06
8.9400060099419650597e-06
8.9285273135715765815e-06
8.9181150109287083419e-06
8.9065998352722871293e-06
8.8961090636883063775e-06
8.8845004080586553562e-06
8.8739552834754766204e-06
8.8623736740908468849e-06
8.8518536242476769009e-06
8.8403762198993282481e-06
8.8299620623513873558e-06
8.8186278225364150217e-06
8.8083170731110269677e-06
8.7970490877623420262e-06
8.7868610091323641535e-06
8.7756376315647745902e-06
8.7655903520110234225e-06
8.7544899247094282884e-06
8.7446151196300616373e-06
8.7337049696418049571e-06
8.7239079671255211979e-06
8.7130578969374437685e-06
8.7032199127768412064e-06
8.6922191155806101306e-06
8.6822038818534107472e-06
8.6709830310732925258e-06
8.6608418036103070026e-06
8.6496264034470854941e-06
8.6395558278011146586e-06
8.6285703223103329485e-06
8.6187497450686203511e-06
8.6079735342399215801e-06
8.5984331699552016574e-06
8.587787192448401757e-06
8.5783677337802059131e-06
8.5678087058118532036e-06
8.558346022832709777e-06
8.5477819097322380103e-06
8.5382752715598428595e-06
8.5276727113110960461e-06
8.5180787682016072655e-06
8.5074323517764422788e-06
8.4978136743037396925e-06
8.4871014531062176134e-06
8.4775954534750290671e-06
8.4669667906574724956e-06
8.4575890280096008403e-06
8.447152321377418758e-06
8.4379266978630527714e-06
8.4277440440215043712e-06
8.4187404024190824552e-06
8.4087777344939732888e-06
8.4000558930196226134e-06
8.390183648307035597e-06
8.3816289574307673341e-06
8.3718475599161375802e-06
5.2505689907555469576e-07
6.6496433635141776945e-07
7.7153989337963065878e-07
8.2273981553749723512e-07
8.8519362237281060371e-07
1.0277048212236528451e-06
1.1904586912101044548e-06
1.2796689133562129273e-06
1.3459920633692449718e-06
1.4394692494571054464e-06
1.5465462367904699327e-06
1.6262743074452903785e-06
1.6681192267622490081e-06
1.7010225754409608439e-06
1.7650243857261461884e-06
1.9294203636718639609e-06
2.1348783356436196376e-06
2.2601398560706742268e-06
2.3149200425164060499e-06
2.3359723086511583585e-06
2.3593990110242036787e-06
2.4125217566015059653e-06
2.5649253450562630328e-06
2.8043476148199593543e-06
2.9712431940623274519e-06
3.0575129004273600425e-06
3.1092854862810854498e-06
3.1742307651739091367e-06
3.2570752381446701342e-06
3.327866667598773771e-06
3.3667902013662757095e-06
3.3872798241915813076e-06
3.4237521762231807885e-06
3.4985350814396085474e-06
3.5792473394879818823e-06
3.6395747271465618662e-06
3.6738266581642970908e-06
3.6934183031791890586e-06
3.7195549597599229344e-06
3.7777326338427075293e-06
3.9269750521594721376e-06
4.147406345158129115e-06
4.3479892310283731969e-06
4.501517573912725562e-06
4.6028412468259766757e-06
4.6624512078679406532e-06
4.6927177288070867872e-06
4.7074623375635796132e-06
4.7253150967402822471e-06
4.7680381367164435282e-06
4.8450274116476310153e-06
4.9310211356965270513e-06
5.0066731484101683618e-06
5.0579579720333063e-06
5.0830157094170455611e-06
5.0935389784346585168e-06
5.1070031207182965051e-06
5.1424398162804539885e-06
5.2564687329721736589e-06
5.519483743890045546e-06
5.74267793763100312e-06
5.88211655728360421e-06
5.9482949324200801793e-06
5.9693476878777603848e-06
5.9740707006168527199e-06
5.9814072994159841597e-06
6.003023148397860336e-06
6.0659899413057956905e-06
6.1626331746817390603e-06
6.2636991212413251325e-06
6.3594529403497939254e-06
6.4346491755461206373e-06
6.4773700160009576674e-06
6.4904401249794004892e-06
6.4895595046299343181e-06
6.4905178884372668186e-06
6.5108322148982171958e-06
6.6155012793378658781e-06
6.8815207372434070287e-06
7.0867276412747233339e-06
7.1975976797955554411e-06
7.2421933531102394466e-06
7.2522418805633472985e-06
7.2506408402889589409e-06
7.247366578486036769e-06
7.2464309070561711744e-06
7.2540716376594880551e-06
7.2910331468363085678e-06
7.4257536646498129341e-06
7.6366107147878376041e-06
7.785326738709496004e-06
7.8584953931033447257e-06
7.8740437792233795367e-06
7.8674494259290717757e-06
7.8568991509661331826e-06
7.8573763723186273127e-06
7.902243917581719656e-06
8.0701618010442312842e-06
8.2409424043379867191e-06
8.3482822789681566001e-06
8.4086949754111224147e-06
8.4361154069158541462e-06
8.4446646393039992391e-06
8.4493806222067549782e-06
8.4646669186257973548e-06
8.5170619485977864946e-06
8.6500994102902618497e-06
8.7701020525237335289e-06
8.8419255353438496175e-06
8.8669091112525050594e-06
8.864809967676469808e-06
8.8516473441407759115e-06
8.810615016118519626e-06
8.7665993054467882515e-06
8.7475036057201490525e-06
8.7430448449614548356e-06
8.762818520290414177e-06
8.8793361754836916942e-06
9.1897290621551171907e-06
9.447456939488734981e-06
9.5947177045203904341e-06
9.6558055111781294726e-06
9.677261262235159169e-06
9.7073693841540984996e-06
9.7927814953760046707e-06
1.0021195295870627322e-05
1.0249574749535002814e-05
1.0389141532823902673e-05
1.0439271422657215441e-05
1.0436252607058876476e-05
1.0400090677399059796e-05
1.0292110258306263231e-05
1.0227579092463012021e-05
1.0217821399170635678e-05
1.0258468539960609507e-05
1.0485524150725703484e-05
1.0800151519759538206e-05
1.0959482061415602534e-05
1.1008460318137628433e-05
1.1016875743575104161e-05
1.1035450626483990274e-05
1.1089811735730554913e-05
1.1136950323353484376e-05
1.1149928500957615861e-05
1.1139624116873146823e-05
1.1092777066346685017e-05
1.0933805398951468432e-05
1.0771106436646819916e-05
1.0685969046412498691e-05
1.0653785936597274462e-05
1.0645016855933963501e-05
1.0645188662395246653e-05
1.0668299477408207731e-05
1.0698979456394331516e-05
1.0720991215312957853e-05
1.073478573521258043e-05
1.0740612879249865347e-05
1.0737531471939700496e-05
1.0729684613333419202e-05
1.0716098028720273438e-05
1.0682006896607673286e-05
1.0628276578931808991e-05
1.0588670141147114319e-05
1.0563500669288934319e-05
1.0548377409678260137e-05
1.0539121852522480936e-05
1.0531764593115193411e-05
1.0525347774350687441e-05
1.0521723665346017373e-05
1.052628384547994927e-05
1.0549164874872794605e-05
1.0574986737914930296e-05
1.0598349509398044232e-05
1.0619111567022294576e-05
1.063896878216644426e-05
1.0659969657216393992e-05
1.0684035857504931222e-05
1.0711495473247204712e-05
1.074018705516854711e-05
1.0767016809456635341e-05
1.0788917278619103524e-05
1.0805362305403742358e-05
1.0817996648216682179e-05
1.083004594698874334e-05
1.0845128887106660938e-05
1.0865406103888620559e-05
1.0891165648569974312e-05
1.0921126102173553195e-05
1.095252822110943533e-05
1.1573259780990373806e-05
1.1585837581247735063e-05
1.1601667413583495247e-05
1.1620356236297046634e-05
1.1641180601658844107e-05
1.1663230129434846294e-05
1.168553531946005078e-05
1.170727322109368679e-05
1.1727574896648223886e-05
1.1745903014635526897e-05
1.1761721289596107924e-05
1.1774717636914250224e-05
1.1784759471163287054e-05
1.1791717552747987946e-05
1.1795650320094912353e-05
1.1796629495748003579e-05
1.1795334311740669341e-05
1.1792008396333660141e-05
1.1786951616317132318e-05
1.1780606801548646872e-05
1.1773226332063958197e-05
1.1765214829922241777e-05
1.1756614812782821246e-05
1.1747565512968270699e-05
1.1738400791728921969e-05
1.172872413650919251e-05
1.1717309956309538595e-05
1.1700829789019097433e-05
1.1681035707424427549e-05
1.1661772956439889234e-05
1.1642619095832392457e-05
1.1624271914311158616e-05
1.1606245605502754807e-05
1.1589218862207059703e-05
1.1572595480302034663e-05
1.1556988799813005281e-05
1.1541706217025678616e-05
1.1527375855190551211e-05
1.1513214307036760025e-05
1.1499766761414924611e-05
1.148616120197228244e-05
1.1472930663513371252e-05
1.1459259312351779899e-05
1.1445753463641116722e-05
1.1431648131589279292e-05
1.1417690497644704422e-05
1.1403266274961836404e-05
1.1389231332535749072e-05
1.1374945548111303287e-05
1.1361157513890346926e-05
1.1347195303608617709e-05
1.1333883508224923585e-05
1.1320605357765420828e-05
1.1308056407833561035e-05
1.1295415391020027164e-05
1.1283141057624712826e-05
1.1270403369771898964e-05
1.1257739560904264582e-05