/*--------------------------------*- C++ -*----------------------------------*\
  =========                 |
  \\      /  F ield         | OpenFOAM: The Open Source CFD Toolbox
   \\    /   O peration     | Website:  https://openfoam.org
    \\  /    A nd           | Version:  12
     \\/     M anipulation  |
\*---------------------------------------------------------------------------*/
FoamFile
{
    format      ascii;
    class       volScalarField;
    location    "0.0066";
    object      pMean;
}
// * * * * * * * * * * * * * * * * * * * * * * * * * * * * * * * * * * * * * //

dimensions      [1 -1 -2 0 0 0 0];

internalField   nonuniform List<scalar> 
75962
(
98804.913697196563589
98805.29730882482545
98805.007572274873382
98804.847171040120884
98804.83220983708452
98804.78186008609191
98804.640845877744141
98804.416474610858131
98804.152953939788858
98803.851098893559538
98803.505522414430743
98803.102904631407
98802.622554175453843
98802.098582605001866
98801.58691541654116
98801.109731201737304
98800.654074479854899
98800.202052772598108
98799.740552223869599
98799.248080394463614
98798.703438498472678
98798.123731317056809
98797.553932201248244
98797.011917770345462
98796.480046019234578
98795.94296709029004
98795.399574212657171
98794.856070042500505
98794.318685528924107
98793.794189065898536
98793.287620093862643
98792.796528439779649
98792.315784719990916
98791.838187210523756
98791.355784808358294
98790.86958265316207
98790.391559988172958
98789.934613366684061
98789.498458966700127
98789.070150110172108
98788.630691635393305
98788.172103224875173
98787.707073407873395
98787.257213845892693
98786.826277389220195
98786.407184326220886
98785.999767034561955
98785.609543222919456
98785.235386004584143
98784.869852478572284
98784.51134331569483
98784.160920198715758
98783.814875588403083
98783.464243181922939
98783.104308815440163
98782.737406377447769
98782.364997569384286
98781.986753900782787
98781.610288861702429
98781.254612759090378
98780.932309527954203
98780.635153266848647
98780.338939692534041
98780.02891746131354
98779.712392619869206
98779.411219605375663
98779.139707409311086
98778.889163941945299
98778.636498690117151
98778.366797834823956
98778.086692693424993
98777.815102796666906
98777.56274618441239
98777.321579646610189
98777.077449706674088
98776.826591901000938
98776.576323547618813
98776.337533093537786
98776.114154353563208
98775.899684273143066
98775.684431233908981
98775.463334555257461
98775.239874258055352
98775.019783650626778
98774.80328982345236
98774.582781461984268
98774.347304708513548
98774.09442987422517
98773.834551148407627
98773.582190666216775
98773.343763053460862
98773.112260331603466
98772.872834093606798
98772.613326932900236
98772.335975134934415
98772.052633790182881
98771.774656806795974
98771.503271806417615
98771.229583123043994
98770.945620739119477
98770.652204275349504
98770.358338697260479
98770.072364266074146
98769.797809917057748
98769.533043960866053
98769.273814566477085
98769.016374786646338
98768.757092133237165
98768.49234434653772
98768.220169861087925
98767.941397106536897
98767.659223856244353
98767.376841431439971
98767.09682794008404
98766.820499344685231
98766.550491384812631
98766.289546125713969
98766.038683317412506
98765.79684451725916
98765.562402732568444
98765.333558404847281
98765.107367402364616
98764.878863109857775
98764.641654287319398
98764.390770768965012
98764.126118822183344
98763.853766202664701
98763.582945404676138
98763.321437351507484
98763.072141760087106
98762.833117508882424
98762.600195625884226
98762.371336687545408
98762.146912408657954
98761.926774692416075
98761.708670281397644
98761.489788428501924
98761.270142533598118
98761.053635903517716
98760.844418888489599
98760.643198597157607
98760.445875472403714
98760.246870671457145
98760.044011278412654
98759.840031740808627
98759.640149975821259
98759.448744698471273
98759.267235044811969
98759.093112364105764
98758.921830944280373
98758.748830168580753
98758.571289172206889
98758.389073043974349
98758.204876798045007
98758.022865629885928
98757.846585210529156
98757.678349933936261
98757.520209075009916
98757.374931216952973
98757.245527937659062
98757.133635789941764
98757.03787846994237
98756.953080605409923
98756.872226429390139
98756.789089993137168
98756.700451870870893
98756.60624657801236
98756.507894267153461
98756.406580203693011
98756.302347901422763
98756.194755497199367
98756.084096110949758
98755.971505881316261
98755.858028890739661
98755.744420527436887
98755.631440879194997
98755.520864144782536
98755.416482189073577
98755.322759381160722
98755.241875824765884
98755.171465813182294
98755.104698645765893
98755.032424371369416
98754.947144296602346
98754.846621126416721
98754.735210953105707
98754.621030539041385
98754.511917060328415
98749.573731183423661
98749.444996614533011
98749.324174490684527
98749.210624712970457
98749.102366277991678
98748.997387303417781
98748.894425433958531
98748.793199541891227
98748.693921906495234
98748.596577771997545
98748.500652869581245
98748.405437688561506
98748.310214058641577
98748.214297252779943
98748.116774869151413
98748.016729854731238
98747.913581196742598
98747.807804335083347
98747.701125919644255
98747.596031811597641
98747.494907901520492
98747.3990762578469
98747.308400378795341
98747.221527308836812
98747.136770599579904
98747.053107718878891
98746.970479139548843
98746.889295505461632
98746.809801763971336
98746.731908305926481
98746.65542974548589
98746.580282386872568
98746.506379452752299
98746.433360134440591
98746.360282453053514
98746.28541407371813
98746.206513311422896
98746.121636118827155
98746.030111987784039
98745.933169210940832
98745.833931600704091
98745.736683322305907
98745.645913582367939
98745.565268243022729
98745.496770114157698
98745.440683453067322
98745.396003421134083
98745.361247442880995
98745.334907624128391
98745.315486361505464
98745.3012062455673
98745.289600181335118
98745.27741606226482
98745.261052389978431
98745.237314401616459
98745.204397373701795
98745.162601945470669
98745.11428163900564
98745.063030715085915
98745.012449297471903
98744.965171278890921
98744.922446210810449
98744.88428730457963
98744.850016538839554
98744.818559864361305
98744.788676975484123
98744.759082354037673
98744.728664178488543
98744.696763069718145
98744.663619638784439
98744.630514994190889
98744.599401310799294
98744.572152381762862
98744.549601607359364
98744.530999040274764
98744.513996701061842
98744.495391261254554
98744.472290869511198
98744.44319978945714
98744.408560593205038
98744.370637714018812
98744.332805264857598
98744.298298721361789
98744.269241425863584
98744.246113958273781
98744.227886044318439
98744.212647467298666
98744.198375590494834
98744.183613518296625
98744.167943995373207
98744.15190056800202
98744.136567541441764
98744.123024666783749
98744.112046827955055
98744.10410183420754
98744.099477305033361
98744.09859596187016
98744.10217068620841
98744.111068062687991
98744.125814300554339
98744.146265183459036
98744.171293412640807
98744.198840464581735
98744.226308044671896
98744.251052052539308
98744.270843062084168
98744.284140208153985
98744.290189336883486
98744.288997905299766
98744.281267399681383
98744.268464915745426
98744.25278372959292
98744.236832538997987
98744.2230916639528
98744.213410282769473
98744.208622232603375
98744.208425486416672
98744.211679644009564
98744.217033747729147
98744.223552151423064
98744.230955296516186
98744.239513026564964
98744.24976011380204
98744.261907001811778
98744.275566562311724
98744.289620022449526
98744.302556577371433
98744.312933780791354
98744.319891268358333
98744.323459995430312
98744.324403790393262
98744.32384140107024
98744.322709161162493
98744.321341996721458
98744.319365328803542
98744.315926385752391
98744.310143493508804
98744.301502618443919
98744.290057161910227
98744.276453337050043
98744.261733611128875
98744.247024105090532
98744.23323153736419
98744.220908358998713
98744.210266484355088
98744.201291696881526
98744.19387829930929
98744.187889124616049
98744.183198747152346
98744.17966885525675
98744.177073833619943
98744.175027923396556
98744.172988142396207
98744.170222931337776
98744.16585303460306
98744.158945741568459
98744.148695285592112
98744.134577704637195
98744.116543425334385
98744.095145703642629
98744.071532802699949
98744.047323231454357
98744.024291690569953
98744.004043600696605
98743.987655154909589
98743.975461549853208
98743.967063451302238
98743.961563483782811
98743.957843259428046
98743.954884013946867
98743.952113940686104
98743.949565238101059
98743.947879665109213
98743.948129704920575
98743.951515480453963
98743.958973592423717
98743.970900953980163
98743.987062664557016
98744.00663417080068
98744.028405140037648
98744.051008891008678
98744.073164624758647
98744.093884596150019
98744.11249320510251
98744.128578814663342
98744.1419570803846
98744.152662872686051
98744.16091666041757
98744.167151935296715
98744.171958434657427
98744.1760533478664
98744.180263018482947
98744.185417971326387
98744.192241705866763
98744.201220366798225
98744.21259971211839
98744.226409660623176
98744.242461549089057
98744.260353926947573
98744.27956613052811
98744.299503130416269
98744.319578046081006
98744.339339310216019
98744.358553894999204
98744.377272379104397
98744.395879404662992
98744.415084631909849
98744.4356825772702
98744.458411766536301
98744.483758829679573
98744.511823820328573
98744.542285655406886
98744.574465622368734
98744.607442295367946
98744.640239860702422
98744.672049867003807
98744.702400219975971
98744.731379026343348
98744.759676441011834
98744.788597697974183
98744.819891578285024
98744.855649464283488
98744.898063444852596
98744.949138840442174
98745.010325875133276
98745.082424734035158
98745.165546398566221
98745.25917231751373
98745.362284793765866
98745.473576762946323
98745.591701870915131
98745.715622902745963
98745.844935936082038
98745.979911449787323
98746.12143565392762
98746.270843031612458
98746.429769097929238
98746.59991764073493
98746.782869883216335
98746.979998961949605
98747.192400773434201
98747.420883155209594
98747.666011807246832
98747.9281838672905
98748.207791184599046
98748.505347954953322
98748.821452830146882
98749.156739322264912
98749.511844606211525
98749.887240132331499
98750.283126774171251
98750.699501821727608
98751.136237633530982
98751.593198557602591
98805.793585868013906
98805.908029344471288
98804.851008067271323
98804.881444680941058
98804.99526226951275
98804.882498430815758
98804.667332085315138
98804.458443292649463
98804.234353844047291
98803.949711635534186
98803.586047934295493
98803.155610799687565
98802.669218080744031
98802.147268210726907
98801.622712265147129
98801.131034236008418
98800.681806216263794
98800.250753209838877
98799.800375642065774
98799.308521302416921
98798.778739313856931
98798.223137528024381
98797.664357738496619
98797.118134953881963
98796.583849651797209
98796.048597402696032
98795.498309373433585
98794.939146218384849
98794.392795821127947
98793.869814286881592
98793.36488454521168
98792.870399639083189
98792.37946701310284
98791.890974078865838
98791.403626854313188
98790.918856111355126
98790.4443038575846
98789.985631099902093
98789.546396267382079
98789.118851079969318
98788.682091022608802
98788.222187252686126
98787.751521943937405
98787.298268431623001
98786.874648616983905
98786.466472601663554
98786.060905093036126
98785.660223172715632
98785.27165007237636
98784.896416759933345
98784.531986784480978
98784.175875778862974
98783.821177223173436
98783.4617032425449
98783.096247108725947
98782.729906447799294
98782.36394462781027
98781.994668995233951
98781.625787312339526
98781.272627420141362
98780.950724559283117
98780.655840776409605
98780.366632934470545
98780.064981316550984
98779.751700298918877
98779.446132481200038
98779.165204767254181
98778.905719618225703
98778.650022840200108
98778.385414052434498
98778.115285856416449
98777.851538405317115
98777.600517549959477
98777.359277446463238
98777.1207502985053
98776.881045817455743
98776.64141814604227
98776.406643236681703
98776.181041607036605
98775.96260183902632
98775.745063920461689
98775.522693698832882
98775.296195365997846
98775.069411603879416
98774.844924186152639
98774.618007613811642
98774.380438596665044
98774.128835904062726
98773.867406362682232
98773.604874978380394
98773.349825019366108
98773.100476347768563
98772.845450925015029
98772.574411004316062
98772.287671708094422
98771.996011811075732
98771.710949845000869
98771.434389897520305
98771.159113929708838
98770.878490233342745
98770.592322561322362
98770.307281522458652
98770.029938255072921
98769.76338751403091
98769.506268442186411
98769.254779008566402
98769.005606608334347
98768.754591633623932
98768.496509700184106
98768.228479598517879
98767.95304844326165
98767.676426208185148
98767.405063308717217
98767.139909174788045
98766.879448706444236
98766.62234629613522
98766.36972435991629
98766.123263257381041
98765.883195404399885
98765.648961967846844
98765.419437123884563
98765.193020355305634
98764.965520139827277
98764.731238100968767
98764.485231282727909
98764.22660159014049
98763.959963509914814
98763.693027286470169
98763.432548781347577
98763.181621589887072
98762.939296622105758
98762.702932379834238
98762.470603232563008
98762.241118884601747
98762.013125241835951
98761.78454977835645
98761.554203961000894
98761.324059665465029
98761.098807451024186
98760.882516040524933
98760.676433884509606
98760.477362502322649
98760.279945617119665
98760.08098537827027
98759.881027993760654
98759.682434220667346
98759.487571095582098
98759.297758068263647
98759.112987403466832
98758.931906887912191
98758.752445396443363
98758.571872242420795
98758.388288938687765
98758.202071555439034
98758.016386053961469
98757.835139710921794
98757.661778108013095
98757.499088890341227
98757.349250530154677
98757.213847227889346
98757.09354708432511
98756.987303881149273
98756.89166007383028
98756.801463102106936
98756.712146561956615
98756.621345754261711
98756.528605674000573
98756.434471040018252
98756.339162490548915
98756.241836001325282
98756.141237916352111
98756.036877657010336
98755.929030501865782
98755.818339469624334
98755.706138084628037
98755.594638520487933
98755.486955820364528
98755.387135913304519
98755.298900096124271
98755.223388204045477
98755.157614743628073
98755.094712349848123
98755.026215786288958
98754.94582039337547
98754.852166251599556
98754.748977949144319
98754.642647918008151
98754.538990016837488
98754.440411076764576
98749.797287240886362
98749.656472355563892
98749.519587639690144
98749.388729223443079
98749.264664100672235
98749.146884569345275
98749.034426399768563
98748.926436423178529
98748.822086182350176
98748.720429900669842
98748.620290842532995
98748.520446867696592
98748.420177307241829
98748.319475329539273
98748.218888619056088
98748.118655260594096
98748.018313857523026
98747.916757323328056
98747.812967381774797
98747.706944496705546
98747.600105625257129
98747.494951012864476
98747.394191935061826
98747.299475977997645
98747.210867534930003
98747.127347549569095
98747.047514126970782
98746.970006300150999
98746.893749710841803
98746.818067302534473
98746.742715234257048
98746.66772072497406
98746.593301607601461
98746.519722365424968
98746.446885959303472
98746.373905521671986
98746.29902509888052
98746.220019450993277
98746.134975319058867
98746.043195475882385
98745.94574099984311
98745.845410843612626
98745.746233065336128
98745.652594495739322
98745.568272974836873
98745.495713545984472
98745.435929115337785
98745.388758022832917
98745.353238930372754
98745.327928800325026
98745.310971382335993
98745.299978376162471
98745.291898893410689
98745.282974499568809
98745.26923649093078
98745.247539234143915
98745.216610195304384
98745.177454685996054
98745.132948554950417
98745.086678603955079
98745.041768360839342
98745.000176763613126
98744.962414475317928
98744.928010550996987
98744.896026181668276
98744.865504829256679
98744.835630256697186
98744.80573152123543
98744.775180325246765
98744.743598095272318
98744.711232091503916
98744.679181272571441
98744.649131023135851
98744.622634987899801
98744.600334177855984
98744.581354276902857
98744.563417179189855
98744.543610734006506
98744.519412325156736
98744.489592305821134
98744.454655707784696
98744.416677109649754
98744.378535089301295
98744.342899645678699
98744.311420433063176
98744.28444576979382
98744.261191390120075
98744.240264366409974
98744.220418440250796
98744.201101024373202
98744.182639238875709
98744.165957514574984
98744.152038770189392
98744.141569395331317
98744.134847892215475
98744.131918760409462
98744.132863889928558
98744.137977653706912
98744.147758800769225
98744.162690254641348
98744.182842675843858
98744.207535112407641
98744.235288339812541
98744.26406251345179
98744.291648891346995
98744.31605374890205
98744.335759571491508
98744.349832542109652
98744.357842533136136
98744.359744650850189
98744.355857568603824
98744.347108829926583
98744.335237644292647
98744.322638061625184
98744.311902147062938
98744.305139355070423
98744.303402984529384
98744.306534320188803
98744.313440428231843
98744.3227417836315
98744.333408757753205
98744.345149166794727
98744.358307966991561
98744.373411675755051
98744.390668924053898
98744.409529321972514
98744.42874468282389
98744.446673553538858
98744.462048216330004
98744.474297185632167
98744.483867846516659
98744.491905585848144
98744.499689618809498
98744.508098865742795
98744.517217860906385
98744.526191355005722
98744.533604101801757
98744.538101593163447
98744.538857558189193
98744.535891381645342
98744.529986851979629
98744.522418789754738
98744.514571387902834
98744.507571497902973
98744.50210957886884
98744.498417876879103
98744.496349534514593
98744.495608199868002
98744.495946777766221
98744.497221764686401
98744.49939740652917
98744.502498993519112
98744.506495715118945
98744.511192044112249
98744.516148892536876
98744.520599336523446
98744.523497537506046
98744.523735906128422
98744.520433250523638
98744.513234199344879
98744.502487884165021
98744.489271053273114
98744.475220182372141
98744.46219403827854
98744.451833691826323
98744.445247796116746
98744.442806101695169
98744.444174289950752
98744.448473301788908
98744.454639573799795
98744.46183704379655
98744.469767862203298
98744.478760483281803
98744.489664545108099
98744.503617484282586
98744.521737106450018
98744.544803120661527
98744.572966645195265
98744.605684269816265
98744.641867866448592
98744.680120920049376
98744.718928109679837
98744.756870791592519
98744.792812759653316
98744.826001690104022
98744.856105282669887
98744.883142265025526
98744.907382798439357
98744.929343132927897
98744.949707885069074
98744.96926458652888
98744.988896566574113
98745.009570859678206
98745.032227878065896
98745.057649865499116
98745.08637944527436
98745.11864520504605
98745.154393134638667
98745.193262781234807
98745.234660364018055
98745.277794985464425
98745.321821931225713
98745.365929872379638
98745.409494960331358
98745.452185898669995
98745.49412763073633
98745.535871925239917
98745.578267791730468
98745.622305934593896
98745.668940982825006
98745.718866790281027
98745.772421171568567
98745.829520700208377
98745.889708480070112
98745.952297316151089
98746.016537437972147
98746.081775298182038
98746.147623265293078
98746.214000879772357
98746.281271026324248
98746.350348667896469
98746.422636387040257
98746.499853635337786
98746.583800848573446
98746.67616376033402
98746.778286222164752
98746.89095539705886
98747.014331532540382
98747.147989691366092
98747.291043318749871
98747.442332003687625
98747.600684748060303
98747.765202866357868
98747.935572141970624
98748.112172698718496
98748.296007469398319
98748.488571856883937
98748.69161342883308
98748.906903059149045
98749.136020967038348
98749.380250456961221
98749.640541655971901
98749.917497252565227
98750.211479575693374
98750.522772178490413
98750.851711587703903
98751.198767703652265
98751.564566634231596
98751.949792385072215
98752.355079946559272
98752.780904988670954
98753.227480643225135
98753.694729766837554
98754.182425155493547
98754.690302304094075
98802.578201154436101
98804.138668444182258
98804.149547404056648
98804.144497805216815
98804.236579545293353
98804.268840048185666
98804.264645880321041
98804.226449317488004
98804.097268484387314
98803.833256123005413
98803.466558422180242
98803.05673386149283
98802.613363779935753
98802.123140590570983
98801.608636335979099
98801.114205566380406
98800.665876999875763
98800.237376616671099
98799.783756874356186
98799.291117229397059
98798.773893868739833
98798.240103041403927
98797.693541997243301
98797.144776386820013
98796.6072154144058
98796.072160696377978
98795.523147065818193
98794.967828112916322
98794.432507873803843
98793.928428721279488
98793.440068978175987
98792.947855183854699
98792.44783104317321
98791.949429481566767
98791.460199043911416
98790.97630080577801
98790.497404779584031
98790.03148145970772
98789.588711366668576
98789.16180392896058
98788.726183353428496
98788.264864519267576
98787.795650879328605
98787.354219027300132
98786.949965896259528
98786.557348354865098
98786.15273329912452
98785.740790493087843
98785.340344933894812
98784.960037474127603
98784.594619917392265
98784.233175497618504
98783.866915158112533
98783.496120796073228
98783.127824028444593
98782.766254280999419
98782.409052809685818
98782.049284027292742
98781.6878918549628
98781.337796945881564
98781.015714971974376
98780.722346679613111
98780.438753356822417
98780.143683100133785
98779.83470594479877
98779.528153246923466
98779.241143762337742
98778.975994194101077
98778.722017363324994
98778.468154456510092
98778.210613319999538
98777.951574032107601
98777.695780776775791
98777.448269030603115
98777.211348150478443
98776.978701044557965
98776.744999989619828
98776.510542501549935
98776.281277060479624
98776.060484168454423
98775.843204687378602
98775.621106693201
98775.390671961955377
98775.156307233075495
98774.922158097077045
98774.687504588597221
98774.44778639471042
98774.194932508646161
98773.925791465910152
98773.646351124596549
98773.367397555164644
98773.094527301815106
98772.822879963903688
98772.544075542289647
98772.254221976239933
98771.958908567452454
98771.667056031816173
98771.383600547065726
98771.106267529321485
98770.831610354798613
98770.558838467884925
98770.290115734926076
98770.028029970038915
98769.772587254497921
98769.52158356992004
98769.27296951028984
98769.025153710099403
98768.776193397978204
98768.523011254175799
98768.26361433416605
98768.000220033354708
98767.738081181116286
98767.481927426531911
98767.231704650024767
98766.984231130089029
98766.737136587267742
98766.490863639643067
98766.247267246682895
98766.007386141791358
98765.771183837408898
98765.537704839778598
98765.305630265836953
98765.072265296563273
98764.834270659644972
98764.588966707218788
98764.335905848158291
98764.078034466743702
98763.820122589400853
98763.565879066329217
98763.317570207014796
98763.075684496201575
98762.838947619922692
98762.604832790326327
98762.370765250379918
98762.134474881575443
98761.894357796627446
98761.651254054464516
98761.409398591364152
98761.174219670414459
98760.950258670418407
98760.739203444099985
98760.538840297420393
98760.344347606951487
98760.151646484460798
98759.958382029741188
98759.763434187756502
98759.566672704924713
98759.368821798998397
98759.171849322883645
98758.977918648539344
98758.787689391392632
98758.599995043798117
98758.412904807759332
98758.225877369113732
98758.040288227071869
98757.858579230160103
98757.683298087547882
98757.516637602937408
98757.360488839287427
98757.216170308121946
98757.08401252994372
98756.96341992788075
98756.852934468624881
98756.74975255006575
98756.651433451625053
98756.556447092283634
98756.464019021717831
98756.373531454795739
98756.283875290901051
98756.193152217660099
98756.099204516445752
98756.000283840869088
98755.895961032772902
98755.787420374821522
98755.677140689527732
98755.568596619094023
98755.465730162730324
98755.372160686092684
98755.290001491564908
98755.218638221704168
98755.154583883238956
98755.091879930536379
98755.024158841653843
98754.947327335743466
98754.860827047363273
98754.766860353061929
98754.668936171248788
98754.570025844295742
98754.471676884029876
98749.891554620407987
98749.74569480853097
98749.600313440387254
98749.457770129229175
98749.320402315875981
98749.190064902417362
98749.067678398670978
98748.95308609395579
98748.844936410736409
98748.740854498639237
98748.638120898933266
98748.534547106450191
98748.429217431694269
98748.322962997393915
98748.217677162858308
98748.114928891169257
98748.014943805814255
98747.916017208975973
98747.815379169624066
98747.711300860843039
98747.604208091070177
98747.496646998304641
98747.392139824980404
98747.293721611713408
98747.202927867765538
98747.119459325098433
98747.041667650802992
98746.9673403732304
98746.894472947096801
98746.821745298831956
98746.748482998198597
98746.674611267706496
98746.600474918726832
98746.526509806077229
98746.452884625541628
98746.379108397828531
98746.303776675835252
98746.224906210394693
98746.140742097690236
98746.050577809859533
98745.955204567217152
98745.856899583624909
98745.759139433226665
98745.665917995283962
98745.580935688762111
98745.506969287103857
98745.445564374735113
98745.396989126005792
98745.360517571607488
98745.334689641036675
98745.317522891185945
98745.306488185480703
98745.298333404469304
98745.289245073712664
98745.275512335196254
98745.254531714133918
98745.225615200572065
98745.190161430218723
98745.150939838946215
98745.111022396420594
98745.07275850676524
98745.037290013118763
98745.004540609908872
98744.97371562232729
98744.943873154144967
98744.914332581436611
98744.884667390360846
98744.854578424245119
98744.823723802386667
98744.791921561511117
98744.759478921114351
98744.727338740718551
98744.696840831180452
98744.669233855893253
98744.644946230968344
98744.623284617642639
98744.602525765236351
98744.580353969533462
98744.554721120672184
98744.524616494367365
98744.490428768316633
98744.453693600793486
98744.41647516937519
98744.380633938664687
98744.347288311546436
98744.316733072177158
98744.2886054609844
98744.262345168506727
98744.237695947609609
98744.214989763291669
98744.195106501239934
98744.179051399652963
98744.167551125006867
98744.160845530001097
98744.158819174088421
98744.161290468560765
98744.168196437516599
98744.179653418585076
98744.19583755939675
98744.216663899904233
98744.241514415945858
98744.269136891292874
98744.297757550360984
98744.325430030876305
98744.3505403734016
98744.372087765761535
98744.389672862089355
98744.403273637188249
98744.412956142026815
98744.418652263469994
98744.420256908342708
98744.417952554591466
98744.412660263595171
98744.406196967436699
98744.400886381510645
98744.39886857655074
98744.401437822481967
98744.408695861377055
98744.419731747999322
98744.433218229838531
98744.448129059572238
98744.464079295474221
98744.481312988616992
98744.500278061779682
98744.521141359728063
98744.543383779877331
98744.565911251978832
98744.587468763289507
98744.607155268662609
98744.624861930657062
98744.641259309704765
98744.657657539020875
98744.675318152934778
98744.694833173562074
98744.715769240472582
98744.736733848083531
98744.755814666263177
98744.771241153677693
98744.781959211453795
98744.787963097653119
98744.790243644776638
98744.790426688297885
98744.790260498644784
98744.791145575974951
98744.793830669630552
98744.798356489016442
98744.804233885835856
98744.810792174350354
98744.817536769725848
98744.824298971128883
98744.83126602244738
98744.838914429070428
98744.847816340829013
98744.858337411715183
98744.870423451662646
98744.883479163050652
98744.896401034638984
98744.907841566106072
98744.916604505036958
98744.921992678020615
98744.924028970795916
98744.92353146255482
98744.921908382559195
98744.920799239975167
98744.92173190509493
98744.925838605951867
98744.933654627864598
98744.945057741831988
98744.959450289577944
98744.976081692497246
98744.994398120514234
98745.014318225919851
98745.036328262154711
98745.061344744157395
98745.090463443862973
98745.124668516727979
98745.16454929910833
98745.210081942597753
98745.260557030618656
98745.314702883071732
98745.370867655641632
98745.427293420158094
98745.482349041994894
98745.534778739238391
98745.583836406745831
98745.629252534723491
98745.671161441714503
98745.710029816822498
98745.746587055997225
98745.781785324827069
98745.816733666229993
98745.852619573721313
98745.890599449820002
98745.931719233194599
98745.976773937130929
98746.026240811828757
98746.08026868115121
98746.138661196979228
98746.200917422960629
98746.266252887231531
98746.333672123291763
98746.402122015075292
98746.470679010380991
98746.538700536373653
98746.605928927994682
98746.672488340569544
98746.738835919823032
98746.805752961969119
98746.874264978105202
98746.945401120916358
98747.020056882596691
98747.098895021277713
98747.182257480657427
98747.27018173543911
98747.362435004892177
98747.458597991833813
98747.558178447332466
98747.660746566485614
98747.76603765055188
98747.874044278098154
98747.985136312810937
98748.100158941277186
98748.220248039549915
98748.346690618403954
98748.480767682689475
98748.623602930441848
98748.775985455271439
98748.938277264373028
98749.110354750606348
98749.291692288068589
98749.481504633280565
98749.678953665003064
98749.883375127727049
98750.094472917116946
98750.312533163887565
98750.53854968478845
98750.774057508431724
98751.020838414813625
98751.280653227353469
98751.555033318232745
98751.845122681115754
98752.151685689314036
98752.4752047262009
98752.815969577874057
98753.17421678523533
98753.550246196013177
98753.944461019957089
98754.357428330942639
98754.789826607084251
98755.242284976993687
98755.715260069729993
98756.20892699509568
98756.723142472255859
98757.257573188937386
98757.811908161718748
98758.386029527508072
98804.163609245297266
98805.073937127483077
98804.801857860613381
98804.642824266644311
98804.604096843919251
98804.526180148459389
98804.377505059412215
98804.237517799818306