/*--------------------------------*- C++ -*----------------------------------*\
  =========                 |
  \\      /  F ield         | OpenFOAM: The Open Source CFD Toolbox
   \\    /   O peration     | Website:  https://openfoam.org
    \\  /    A nd           | Version:  12
     \\/     M anipulation  |
\*---------------------------------------------------------------------------*/
FoamFile
{
    format      ascii;
    class       volScalarField;
    location    "0.0066";
    object      T;
}
// * * * * * * * * * * * * * * * * * * * * * * * * * * * * * * * * * * * * * //

dimensions      [0 0 0 1 0 0 0];

internalField   nonuniform List<scalar> 
75962
(
299.88091234882807612
299.94219123570388774
300.0875549849934032
300.28064609916236805
300.19675293088482704
300.01019773555498205
299.90306861194062549
299.90039907434220368
300.01863954315507499
300.17983453110900882
300.30504514216471534
300.40722702859085302
300.47508675104342046
300.41555941576274336
300.24665230558940721
300.07876601411140882
299.97649631706786977
299.9624385444951713
300.02758209786236421
300.16450391860206537
300.32531809336569495
300.42295706114720133
300.44041766871970367
300.43281856612077263
300.4388244775180965
300.45787118109404901
300.4992747833769613
300.55509634341592573
300.58533653992776635
300.55032271359692686
300.4491892738104184
300.32334806744864864
300.22900050669011307
300.20801051660799885
300.26469079029504883
300.36644204199268415
300.46368261457911331
300.53698280679327581
300.58447238813528202
300.61693515342835781
300.64661561922355304
300.67081531430034147
300.68975236793022532
300.72936416852849106
300.81219233634453758
300.91243646691918912
300.9765280829356584
300.97731940828435881
300.92436829295485268
300.8360243557288527
300.74048127051975143
300.68489018947690283
300.7105931003819137
300.81353752572294979
300.94999155903627752
301.06926855166346968
301.14469601682964139
301.16573220031415303
301.1351122078144158
301.08259646762888906
301.06618331363176821
301.13448019071819317
301.28044212385970013
301.43412558715607474
301.51917603707715898
301.50402151450720112
301.41574837814658849
301.3130753055063451
301.24157684298529603
301.20837426318053076
301.20266839886699017
301.22398199436605637
301.27723434094923505
301.34449947252886659
301.38576548120852294
301.36792385190545929
301.2982854214497479
301.22673395679419173
301.21113175428877184
301.28022719079729086
301.40651675907292883
301.5238434752461103
301.57031954032402155
301.52796001451315533
301.42793474778676455
301.32950486273028901
301.27950618056360099
301.28382193773006748
301.31527905854835581
301.34022227820724993
301.33737405444003343
301.30554912549604296
301.25964817875393464
301.21952306672886834
301.20067823753902303
301.21734355613335765
301.27680141832718164
301.37200602113352943
301.475531897426265
301.54708344714111945
301.55928244813395622
301.51528479871836907
301.44368106521977779
301.37610658096474481
301.32976542188526992
301.30342160993865264
301.28750074542688253
301.27472652672980757
301.26399451537167806
301.25712124150823001
301.25691861914026504
301.26510436724851161
301.28319482044662436
301.30830751407688695
301.33184691655543475
301.34546483196544386
301.34651225589249179
301.33876851397781138
301.32850168990194106
301.32065009853135962
301.31694254967442248
301.31848302178707399
301.32357080311822983
301.32539631890102783
301.31158030185139296
301.27030009683625167
301.19991285868769637
301.11480677084159652
301.04112832880309725
301.00583025662797354
301.02427169071950175
301.09324871903129406
301.19521625250433772
301.30776687701569472
301.41180987502241351
301.49123424748387379
301.53169143331768964
301.51945813311152733
301.45062417761624829
301.33451703081675532
301.19477790657953165
301.05967249280593023
300.95072060060942931
300.88131798345267498
300.8580194551036584
300.88247353035421838
300.95034241737766934
301.04909758773442263
301.15871528613388364
301.25604375083838704
301.32062752084789281
301.33877698216826957
301.30831652079154992
301.23774489516972608
301.14593614811889211
301.05596310633967505
300.98804861295934643
300.95446203999097179
300.95798105404168155
300.9953784322757997
301.06113725832494765
301.14804362973825391
301.2462683033767803
301.34138903634413964
301.4161714258763709
301.45389634673574619
301.44445838814471017
301.3865964892548277
301.2859913234429996
301.15110456344530121
300.98987881196848093
300.80920112401980759
300.61669249517592561
300.42100705654030435
300.22979548538256722
300.04792638281315931
299.87678339869842148
299.71651637817950586
299.56986769487724587
299.44360939253436982
299.34643259266437099
299.28367881789802141
299.25285413301594417
299.24264955079900119
299.23649476686847493
299.22069636672142678
299.19023599673676017
299.15041549828737288
299.19243267001115782
299.18240707667280276
299.17189617015867498
299.16528978150319062
299.16397511860338909
299.16668864778034731
299.17138216461631828
299.17690082428327969
299.18337260136587474
299.19170843489962408
299.20243542793639335
299.21517333647210535
299.22875786489902339
299.24243594677892588
299.25564485424348504
299.26784522338328998
299.27734531495963211
299.28164172629925588
299.27886440093874398
299.26928777238236989
299.25539057000241883
299.24113401747081298
299.23050983275277304
299.22556655354350141
299.22556648494253295
299.22820407957425459
299.23151572094502626
299.23487152875628681
299.23871773578844113
299.24356383050661634
299.24928672077328429
299.25538360698976703
299.26186437697964493
299.26991437658534778
299.28158444592611431
299.29857382428559731
299.32087475646306984
299.34616811923103796
299.37028091725994727
299.38851718395756052
299.39729075545113801
299.39525178417602547
299.38346165460899329
299.36476921012149432
299.34283219150051991
299.32103627869105367
299.30156512749931608
299.2851309808435758
299.27160978423097504
299.26122833449989002
299.25527034836829898
299.25593123781538907
299.26517985687308965
299.28325823556099294
299.30778277899554496
299.33404386338611403
299.35658488394466303
299.37119005239321723
299.37629432822279796
299.37305027326215168
299.36436746110479135
299.35335731605914589
299.34267841497558038
299.33400491248653452
299.32842158652573517
299.3266070386116553
299.32875150558442101
299.3343922362947751
299.34191740897330192
299.34873519930408747
299.35228872094882036
299.35134125875123345
299.34704504349474519
299.34278997842829995
299.34290960877251564
299.35077933365880654
299.36720052775007161
299.38991309361477988
299.41429730226911943
299.43515913883078383
299.44865572039094559
299.45354041949451585
299.45132124670845997
299.4455611403852231
299.44036013370634919
299.43890801721516937
299.44252247050684446
299.45073372786498567
299.46142840384129613
299.47191684510949017
299.48012006195995127
299.48513134958062665
299.48705813796362918
299.48643776397386773
299.48363301064733832
299.47851886717512571
299.47055626105753845
299.45957675023271349
299.44619937357452955
299.43208375558111811
299.41965473174718682
299.41154745482367616
299.40983544854259435
299.41541517797554661
299.4278167570334972
299.44561951047398907
299.46684397724555993
299.48925015151422713
299.51047880202509077
299.52817928664910596
299.54023652286605284
299.54519484849140554
299.54274037781414108
299.5340947482789602
299.52181559783196008
299.50910445855447506
299.49870732336205492
299.49196247552930572
299.4884998888719565
299.48667935828484588
299.48444789196406646
299.4805466483248324
299.47502803121943771
299.46932669374751868
299.46547910770266299
299.46516112204074034
299.46888248309250002
299.47587774140146166
299.48434147158445739
299.49235412700437564
299.49873380079850449
299.5032223693918354
299.50648118960077682
299.50979387470619031
299.51428505094770571
299.52027171583620202
299.52716869227117513
299.53364823361488334
299.53833113494994222
299.54023619284225788
299.53930938913811133
299.5362656418525944
299.53231994660603732
299.52858340296251072
299.52582216231695611
299.52426529559170376
299.52375168323260368
299.52411744093910784
299.52529962807761876
299.5275613503497425
299.53148885728080586
299.5377931473379931
299.54705689638649346
299.55952092866010616
299.57508628562220565
299.59338224520899985
299.61375363498535762
299.63514312252476657
299.6561949230261348
299.67539902752776015
299.69129437384481207
299.70278959336621938
299.70957258724922667
299.71230887352049876
299.71255274893206888
299.7123723167856042
299.71372796618123857
299.71790609258363247
299.72515886757696535
299.73464474004089197
299.74463471663113978
299.75312444788374933
299.75851752295341157
299.76015040110223708
299.75846808102807017
299.75484626366392149
299.75114053328337604
299.7491986315639565
299.75032574697377186
299.75506144105980866
299.76312361936993511
299.77364603899627582
299.78544976578319847
299.7973912846142639
299.80860477023423982
299.81862933988810482
299.82728821870631464
299.8344767592785729
299.83996507682326182
299.84338792031735466
299.84440132310174931
299.84279039318761306
299.83859623096338964
299.83218945267839217
299.82424234870114788
299.81560748824750817
299.807194704761514
299.79971644934204278
299.79378060030722963
299.78962299213867482
299.78705925111910346
299.78560740130518525
299.78455882955665857
299.78299635108140819
299.78012044569175032
299.77543373216178679
299.76878753412165679
299.76053992673359971
299.75147801890409482
299.74281482237927321
299.7356953897668177
299.73121492641939767
299.73006582198559045
299.73239216646356908
299.737805924405734
299.74525131681082257
299.75326942361726879
299.76009867952967625
299.76396134067766752
299.7633780719012293
299.75740012901451337
299.74580045266492334
299.72905777600368538
299.7083156765876879
299.68530899489161357
299.66203704876244274
299.64061824943928514
299.62270369832276629
299.60933711669594004
299.6007473375316863
299.59643533641093427
299.59529539268419285
299.59577706588413548
299.59615073404711438
299.59485257477552977
299.59078765368064978
299.58337181282018946
299.57279196861895798
299.55984384818140143
299.54559712497058399
299.53110066441860226
299.51699245494586421
299.5035776283880864
299.49094980637437402
299.47888657233926324
299.46710383067181738
299.45552243268997472
299.44426202401047021
299.4337400749964786
299.42472799081809853
299.41803394754799683
299.41422251562499923
299.41358976253007995
299.41600347401708859
300.04859193896896841
300.13260948951483442
300.14892607726716278
300.19532151175718582
300.17320699683671137
300.02817809704362162
299.86242993087103059
299.83348788459812795
299.98551113966016146
300.20557618652838983
300.38786611308336205
300.50176400579738356
300.54946062823637476
300.51006084144063379
300.3684286218023658
300.17716442171371227
300.0315212012104098
300.00599828600888941
300.08557571718853296
300.20856840640681185
300.33321120831755024
300.42630214308400127
300.46479121938148182
300.45222898769105768
300.42186650971859763
300.4271893348347362
300.48093191726246687
300.53718680528260165
300.55304381923963319
300.51239292732947206
300.42088098966894449
300.30931787180713854
300.22352690905182726
300.20099303199691576
300.24839952688301992
300.34079919543063397
300.44071447731147373
300.5197467100402946
300.56502120627658314
300.59057862997241273
300.61730149699440062
300.64119418645236692
300.65243897119626126
300.67768322970556483
300.75677867643202035
300.8804251301770023
300.98191156763215304
301.00669973290536063
300.95201575319600806
300.84981434792956634
300.74815606656738964
300.69842451821187979
300.73302969337720469
300.8394970752210611
300.96924862934781686
301.07645004167864045
301.1396389522589061
301.1544903242423743
301.12459889665905166
301.07319557321585535
301.05011922569656235
301.10674346793996392
301.24847841718042218
301.41511270409654344
301.52717083016403876
301.53696126975233938
301.46103985116832291
301.35194900978444821
301.25783096561275443
301.20131334861690675
301.18715028198948858
301.21623055745811826
301.28119820265834505
301.35187700415269774
301.38653925140249612
301.3644326947647869
301.29580086314069831
301.22269800134989737
301.19852480653975135
301.25304229196370898
301.37058288742747436
301.49117833947394729
301.54992737194578467
301.51538369268354245
301.41194100297076375
301.30058207932921732
301.23610198469975785
301.24074970644073801
301.29749151403365204
301.36042124772194484
301.38786854321068631
301.36730972232425074
301.31499232953416367
301.25665961875927223
301.21708335910648202
301.21442096796960186
301.25915901826101617
301.34418658365217425
301.43970960758122146
301.50361629426095078
301.50841523303523672
301.45932642370996746
301.38554082238914589
301.32067802376650434
301.28141649584438255
301.26522788467633518
301.26047777351629975
301.25924235781718608
301.25822575044895757
301.25515784481063974
301.24974122169737711
301.24734359655275284
301.25472796039599643
301.27571972749126417
301.30225905713967904
301.32195645011773877
301.32558522720188421
301.31404823106657886
301.29467176458786071
301.2765184651291861
301.26491401609990817
301.26287198370675924
301.26916692539890619
301.27692956202639607
301.27397520023384914
301.24723646414207678
301.19277775750737192
301.12234663981837457
301.05783653131885558
301.02273093940237914
301.03102939221258794
301.08237078689114696
301.16487088497933655
301.26187364154543502
301.35702396173996931
301.43496752678447592
301.48034406047429457
301.47888598203201127
301.42411855660913034
301.32215004518968726
301.19176312143616769
301.05837401217235083
300.94560038788512202
300.87114322711124714
300.84611955735147149
300.87348380319912167
300.94637575370336435
301.04670127418154379
301.15147063073152367
301.23805033813653154
301.29065479769639069
301.30148082444935653
301.27026630634964022
301.20463921352376246
301.11980635610376567
301.03623699402498914
300.97340572903726752
300.94509552923148021
300.95628909442905297
301.00422577811593783
301.08163815389656293
301.17845773218783734
301.28299353044997133
301.3803288173008923
301.45394295534640605
301.48812507836197483
301.47288762813525409
301.4066849773987542
301.29527415142297286
301.14828058993350623
300.97589526281132066
300.78747755928685592
300.59212154419424223
300.39781476008778327
300.21040764876795492
300.03296522578665417
299.8662520489652934
299.71059011354572021
299.56872972448360315
299.44695562479387263
299.35286480294456624
299.29070286321268668
299.25686025719471672
299.24030820911855244
299.22748313406225407
299.20805444067792678
299.17917371497350132
299.14578394610214218
299.11634269831012034
299.18882291189834177
299.19129709518750815
299.18770572611333591
299.18125295072024983
299.17524685936757578
299.17156193521168461
299.17059181098323961
299.1723384313953602
299.1771979526369023
299.18579261416431336
299.19831256519387352
299.21400302627449719
299.2305261570314201
299.2455350267096037
299.25758126674958248
299.26721101877723186
299.27561189329344415
299.28365968518130558
299.29008665020245417
299.29243022756969594
299.28888748115258522
299.27941621724312427
299.26602681138621165
299.25226899667893576
299.2413312607849889
299.23470900106013914
299.23240743123409402
299.23372493454559162
299.23775581449478977
299.24373737066287049
299.25088625290834443
299.25829054784543359
299.26526756259016793
299.27212181358447651
299.28046710351298998
299.29257548400414635
299.3102035540413226
299.33337386035123018
299.35979584034561185
299.38544449697053551
299.40589994541852548
299.41769525858126144
299.41917110254934187
299.41065897344486757
299.39427760880772666
299.37306115750232038
299.35008887279576584
299.32775393165979949
299.30758562941741729
299.29066413091567256
299.27824181633752687
299.27209105155975521
299.27429235927559148
299.28613097818924871
299.30676978873134431
299.33267605197505645
299.35843608265940929
299.3786321082301356
299.38981940745111388
299.39152831703171387
299.38593074552028384
299.37657390863193996
299.36676524301947211
299.35863164788275981
299.35308791249116211
299.35038029590680253
299.35045152075105079
299.35330141409156113
299.35846818192840146
299.3646518366956002
299.36978201435948677
299.37182413668921299
299.36999623798919856
299.36564610798410513
299.36204896043034296
299.36313925354113508
299.37178269048314405
299.3883349872893973
299.41036736606491786
299.43354515076424605
299.45322476098647257
299.46618178415059219
299.47171331580955211
299.47145784339738839
299.46851961056330538
299.4660845813831429
299.4663962342313539
299.47017945939654737
299.47648881894622264
299.48336231972803034
299.48882868189394912
299.49171201128888242
299.49187355281105738
299.48986377617467269
299.48632636537780627
299.48152940005007849
299.47519049874659913
299.46688268835322333
299.45661066722931309
299.44520967131802536
299.43447868717441906
299.42661794989254531
299.42360163968925235
299.4264493169303023
299.43503081910961328
299.44837445369893203
299.46507513778334442
299.48367249180142835
299.50281585064584533
299.52120548670887956
299.53729505569350522
299.54925443874464008
299.5553608152652032
299.55471429647673176
299.54782513567670321
299.53679754503116328
299.52466470878363225
299.51426936210464191
299.50720268931979717
299.50324069363989565
299.50075341466487089
299.49779942653606213
299.4931013010703964
299.48700272781229614
299.48098540859621153
299.47723077089307253
299.47709429371315082
299.48084336888740609
299.48699539856642104
299.4935749077831133
299.49836445730704781
299.50062649792982938
299.50081380062107428
299.50046016779776892
299.50152996032664987
299.5055131051835815
299.51275505871507221
299.52226548613009527
299.53218405569276683
299.54041539990561205
299.5453866891183452
299.5466188470024349
299.54468141306944062
299.54096374911125622
299.53701234005757215
299.53398574957401479
299.53245884904077911
299.532379756141097
299.53337541741035466
299.5350693393015149
299.53734092391300692
299.54045393173424827
299.54513310820715333
299.55223794484106747
299.5625249826811114
299.57643186533891821
299.59389908178161477
299.61429285963475877
299.63636582459560032
299.65842626343084021
299.67853152590959098
299.69499958931328365
299.70670921642005169
299.71355323822791661
299.71649189238195277
299.71732768071746023
299.71812472666891836
299.72069839444355921
299.72601645622074784
299.73401146720289034
299.7435306831277444
299.75274761792564959
299.75973134462191183
299.76312529172804489
299.76267095433900067
299.75920387925651767
299.75446680007098621
299.75058502835679519
299.74951957293046689
299.75259293725372345
299.7602337464703055
299.7720168766312554
299.78683244498540716
299.80321429962850743
299.81966671088326848
299.8349303552270726
299.84815957913821194
299.85888838054199823
299.86695312497721488
299.87227264072606658
299.87477139763166178
299.874433778770765
299.87126782985387763
299.8654508935217109
299.85749533143922463
299.84820209756753684
299.83852690700047106
299.82941547314351283
299.82168675466130026
299.81585152728416688
299.81215079581738792
299.81042481529692623
299.81010624631159089
299.81037939332168207
299.81026398913269304
299.8088679014855984
299.80552290049780595
299.79992338766072635
299.79223995934438562
299.78319825574817514
299.77376245162594159
299.76502696523073155
299.7579874489310896
299.75335769990613244
299.75140564699921697
299.75182257865992597
299.75390508522440314
299.75655785711671797
299.75842538892516131
299.75811863282950753
299.75440025528234855
299.746522075064604
299.73430803498274599
299.71829778710377923
299.69950644417053809
299.67939466859576214
299.65960084292805732
299.64179663839263412
299.62733258604487219
299.61711377652812871
299.61126128152369574
299.60915375845991093
299.60954440909574714
299.61082116010652499
299.61130650838970269
299.60948283723121222
299.60435659137510811
299.59556670085231644
299.58338170268024214
299.56869275674705477
299.55274663714715189
299.53680589633387399
299.52174058891995401
299.50780790464051506
299.49488670316696926
299.48264000824815412
299.47059951066768235
299.45852089379911831
299.44657390476601222
299.43523872996547652
299.42533487746374021
299.41792196570969509
299.41383612840786554
299.4134027916670675
299.416386929051896
299.85923266129333342
299.90797843849145465
300.33663476966540884
300.55605118447783752
300.32569721253469197
299.91829680069849928
299.6672983401679744
299.71464091288856935
300.02637846929167154
300.37502133579823749
300.55946988125015196
300.5751651380403473
300.54389711806817331
300.50490948685870762
300.40598723017296834
300.23584718505418323
300.09096003787129803
300.06959240180299275
300.1558721703821675
300.25965906836586328
300.3443233731746318
300.41219579340412338
300.4466642356912871
300.42437127043484679
300.37891960755138143
300.38513352459835914
300.45368226945521428
300.51895286727187795
300.53350565098236302
300.49274519087049384
300.41154304437441169
300.31574542594381683
300.23531106270297641
300.20334702663399185
300.24622906472296791
300.35258153031770689
300.47112445078693099
300.54954353379781651
300.57396367399655901
300.57394995258277959
300.58620666456988602
300.60577553681872587
300.61278602284295403
300.63115934541377783
300.71237852380255617
300.856116331397061
300.98321186484417922
301.01584456448091487
300.94995993166145354
300.84021806255799447
300.7508054638054773
300.72864326948308644
300.78481894470940006
300.89374656691632026
301.00862728794095347
301.09252051367707281
301.13429276226167985
301.13373828455200965
301.10071524529428189
301.05783862835579612
301.04809356958787703
301.11242033994938083
301.25415367975369918
301.42287538679664749
301.53650883639676294
301.54574730725340714
301.46024644399005865
301.33329423537918501
301.22149875982620415
301.16329734442700783
301.17492262313879792
301.24438602884259808
301.33286351632102651
301.39397414896797045
301.397763733669251
301.34603521020909511
301.26440633905997402
301.19212652090652682
301.17429138080893836
301.23530185184523589
301.36062575682433362
301.48808968674063635
301.5481970897943711
301.50689339469954575
301.3917654394534793
301.26714461936614953
301.20323413309478155
301.23287425868807077
301.3280305767086702
301.42314052942725766
301.46299397314027146
301.43186275449141931
301.35476441331957176
301.27297777934495571
301.22161588307290003
301.21769812645311504
301.26258161368059518
301.33693979716349531
301.40737990346309516
301.44111177800488122
301.42327446826487858
301.36712171532002458
301.30070798525878217
301.25252368382490431
301.23247304427707149
301.23373175563091309
301.24144529287201522
301.24563101900088213
301.24364020898070748
301.23644219834454816
301.22667735827371871
301.22159721626769624
301.2293737816158341
301.25147687593789669
301.27943792966829051
301.29934749558162821
301.30116644806560089
301.28577936043529917
301.26344965029170453
301.24366199541975675
301.23216988934439087
301.22979631127407174
301.23396237729406266
301.23692386487516615
301.22921982465879864
301.20361244940579581
301.15977818383305475
301.10678461948765516
301.05947496279907227
301.03211757706293383
301.03509985419435679
301.07170714569878101
301.13781682292852793
301.22242604777756014
301.31088837036361383
301.38696329300091747
301.43344819233027465
301.43672098851300234
301.39060669576815599
301.29985700770714629
301.17938164686927394
301.05120436510719628
300.93934556879668207
300.86457429804966068
300.84085743878836183
300.87167982137117406
300.94749791602714595
301.04670793818701213
301.14391267655213369
301.21762768060767712
301.25559968478580686
301.25466235950426608
301.2184927639798957
301.15561408607669591
301.08055704184926071
301.01107825927954309
300.9644242929228426
300.95278046904536495
300.98000541257880514
301.04140327949380662
301.12643300738818652
301.22181036668376919
301.31425877704441518
301.39145871856754866
301.44224916928726543
301.4576522256033968
301.43172735796719053
301.36311339925379116
301.25478604709547881
301.11213255779540532
300.94223616238133445
300.75291363187278648
300.55170653740424314
300.34705603396082552
300.14689136099894995
299.95765034572946206
299.78437117015556623
299.63069973201629637
299.50003378203530247
299.39529095274383508
299.31874227552702905
299.26958625555261051
299.24175034127716799
299.22559865850377037
299.21240882490332069
299.19674670512682724
299.17808068199229865
299.15874921664794783
299.14194301670158893
299.18255023019997907
299.19347940371955019
299.1997666135896452
299.20112082911435891
299.19829354884933537
299.1930363971516158
299.18778967379108735
299.185351656061016
299.18825456850709088
299.198090711281111
299.21458861930608464
299.23505008894551338
299.25507053707769956
299.27041597288621233
299.27930301387402778
299.28319485168435676
299.28544713914493514
299.28982955027811386
299.29686578367562788
299.30381509383948924
299.30694438988950878
299.3033468717986807
299.2928079913171473
299.27781428550275677
299.26227451211195785
299.24990716697283233
299.24296087653078757
299.24183480521566025
299.24548362465333184
299.25229158756650349
299.2607266590895847
299.26948384991771945
299.2777487955913216
299.28576033744934648
299.29492431935216246
299.3071493627182349
299.32388135883178393
299.3452163934384771
299.3695471791704108
299.39383689882390627
299.41449531813481144
299.42831150507737448
299.4331782718386421
299.42857791210883533
299.41569755237338768
299.39689061779938584
299.37504119166084138
299.35287463797180862
299.3324817518165446
299.31546624450470517
299.30348917866518832
299.29848369520891538
299.30215656686806369
299.31495463663247847
299.33512321325270022
299.35861699669544578
299.38019509608693625
299.39533645231307446
299.40190387395534799
299.40052901370899008
299.39410685318352989
299.38618500540417244
299.37958314323969944
299.37554560267778925
299.37414437329709926
299.37483750568219421
299.37726784346602926
299.3811772544279961
299.38615925375682991
299.39124346909864016
299.39491542410547709
299.39582692359999783
299.39368966530020089
299.38984186883931216
299.38706793749997814
299.38847917748245209
299.39615483972352195
299.41034107897951344
299.42899735148239415
299.44857937210133514
299.46556184698607694
299.47767758916546654
299.48456502043904948
299.48756003675805459
299.48873070440572519
299.49007302961422283
299.4926821348299768
299.49640045255137011
299.50010687882428329
299.50247770500487832
299.50266840669934254
299.50055895918956139
299.49666468723393109
299.49174796579791291
299.48629830813223407
299.48031257065099453
299.47341569959763774
299.46531411415566026
299.45639287019992025
299.44799168441335269
299.44205197053054235
299.44040727130465029
299.44404575735518392
299.45269756236200465
299.46499670747959954
299.47910495611336046
299.49340050525569268
299.50702193028354259
299.51997029870409506
299.53253155581603551
299.54449384451777405
299.55472346619762902
299.56143206938065759
299.56304088809650921
299.55914678732943912
299.55095776055111401
299.54094622221822419
299.53179351096940763
299.52522626314453191
299.52134076565840815
299.5187803751471165
299.51579057742992518
299.51123146588946611
299.50526305520372716
299.49939774495726397
299.49545151548477406
299.49472409837437681
299.49686136658516489
299.50055419178539751
299.50328857768283797
299.50366623576462644
299.50065562681908204
299.49594837658321467
299.49178748045784459
299.49065108948673242
299.49427941048548973
299.50295148477158591
299.51535655226126664
299.52901820515751297
299.54113317073279177
299.54944395077990293
299.55297222778733612
299.55215024871307605
299.5486222384944881
299.54440855594469895
299.54130378293257309
299.54028637596525186
299.54134384824595827
299.54381836306515652
299.54683648401521623
299.54971444007588843
299.55232757357157425
299.55525253443772726
299.55957845077955426
299.56656841253732182
299.57724188904057883
299.59203575058205615
299.61055132944807156
299.63156655286957175
299.65324918191441839
299.67350684843768249
299.69049004246699042
299.70314561076634163
299.71132964392688791
299.71589181715495442
299.71837141425231721
299.72063863505866266
299.7242593475822332
299.73000971279168425
299.73761149288372962
299.74595007883687003
299.75339934358089522
299.75833418470801917
299.75968689456090033
299.75736849193970102
299.75243896414843903
299.74673402548012291
299.74241958302457078
299.74156608663628276
299.74568226486979938
299.7553155781016585
299.77001191332630015
299.78855335078588951
299.80931504197911863
299.83053710999155328
299.85056038243823195
299.86797051645146439
299.88188076324792064
299.89190374837659192
299.8979405750311571
299.90007354353775781
299.89843469192197745
299.89339030419233723
299.8855247883515176
299.87564374050174365
299.86477892308010951
299.85405139125043661
299.84448514864027402
299.83695082455415104
299.83188574626132095
299.82927407473835046
299.8287335834111218
299.8295289538627344
299.83080795335820312
299.83170015729069746
299.83146784029315768
299.82949741466433125
299.82546788979590247
299.81944422142140638
299.8116345363991968
299.80257545472090897
299.79304984503261267
299.78376766601331838
299.7753254526684259
299.76816246156562329
299.76248229769629461
299.75811450335220343
299.75447286653428591
299.75072442658239424
299.74596794219092999
299.73939712469120877
299.73047601358092606
299.71904603465361561
299.70534317810205494
299.69003058158972408
299.6740745660094376
299.65860631138286863
299.6447719994080785
299.63365321545882125
299.62595182987291764
299.6218461450427526
299.62082422042237795
299.62182754390909167
299.62335819096955447
299.62380505801542085
299.62173237124284242
299.61613135289064758
299.6066719542741339
299.59370524768269206
299.57817126943365338
299.56139526130084505
299.54474169174460485
299.52928222638337274
299.51544390925693051
299.50291898336968188
299.49109508422208137
299.47934033377373453
299.46718615781429662
299.45472054583257204
299.44262479697783874
299.43192293275211568
299.42381745072395915
299.41933160153303106
299.41884120313977746
299.42193361522595296
299.42759831259638759
300.08991877882255039
300.10124937711702842
300.29209039234194734
300.43057155596909524
300.40358544544051256
300.18092818809418532
299.8870484375352703
299.74594444786907843