/*--------------------------------*- C++ -*----------------------------------*\
  =========                 |
  \\      /  F ield         | OpenFOAM: The Open Source CFD Toolbox
   \\    /   O peration     | Website:  https://openfoam.org
    \\  /    A nd           | Version:  12
     \\/     M anipulation  |
\*---------------------------------------------------------------------------*/
FoamFile
{
    format      ascii;
    class       volScalarField;
    location    "0.00516";
    object      k_0;
}
// * * * * * * * * * * * * * * * * * * * * * * * * * * * * * * * * * * * * * //

dimensions      [0 2 -2 0 0 0 0];

internalField   nonuniform List<scalar> 
75962
(
3.5047937151478257762e-05
5.7909430088018805588e-05
8.6415384988302107396e-05
0.00010362246473748313452
0.00011015539546706295117
0.00011866090028714930643
0.00013980939748992320809
0.00018669683032115821355
0.00022297385796228493806
0.00024398869865011448216
0.0002677295942751839377
0.00031062838756787538403
0.00036365485729095988572
0.00041168474133357210948
0.0004511078699398265719
0.00048912933591315030813
0.00053992007908635979672
0.00060847941549796642248
0.00067764962510239183571
0.00072412918537870382078
0.00074782414223040661206
0.00077583027456538608286
0.00082981942390958558006
0.00090314186230059365947
0.00097548387169035409225
0.0010283276712021800943
0.0010600210889063637915
0.0010920018469334066488
0.0011561180465997663962
0.0012703037979220550054
0.0014158697860086081818
0.0015528289897362443708
0.0016538828283679722717
0.0017252185541226890738
0.0017870823621817795261
0.0018449813450576431437
0.0018885211742476317245
0.0019125200916889862832
0.001929036816203600008
0.0019585325332737617623
0.0020332576450650600812
0.0022025378272177045628
0.002359714052528712018
0.0024558512432688583971
0.00250357901626329293
0.0025635681153032461276
0.0027196301808620287031
0.0031601276475102437619
0.0035985998689722405869
0.0038283373433188150163
0.003894046817196308418
0.0038952129901851885105
0.0038747482828358948033
0.0038523155239409108755
0.0038483246680379636778
0.0038525598796988426084
0.0038823318672193251472
0.0040094361578653890665
0.0042554760658453745156
0.0044092437719453255601
0.0044577443063146728747
0.0044570864591053525536
0.0044541770049818137089
0.0044840340609551060033
0.0046389541129889556859
0.0049149344551192627323
0.0051381198285506612597
0.0053237154887733418099
0.0054762524352442434536
0.0055827876745796912311
0.0056382801378056937938
0.0056690013792029146297
0.005722852480081044857
0.005880896728247659265
0.0064256195614089961499
0.0071496177582849847545
0.0075650328548714368404
0.0077025539444689154062
0.0077084341022950666339
0.0076831582270805495044
0.0076801069491881828258
0.0077381012028533971078
0.0080433341946689659169
0.0086322670882970249651
0.0090105511711023097282
0.0091630786144513542285
0.0091823892056742857648
0.009169720794001320549
0.0091687580913228910323
0.0092292364658052763321
0.0093801128414160422214
0.0094245808029981958248
0.0094040177231451797801
0.0092743923551522420429
0.0091635951339919981262
0.0091549904573412811681
0.0092113525894684297052
0.0094561194428575672671
0.0097049711425198238041
0.0098237684097733264654
0.0098652378204244894205
0.0098753828523880336776
0.0098758908550683824346
0.0098734707388094915259
0.009862747736358808831
0.0098314128668959815255
0.0097986641182049513676
0.0097805829158262858058
0.0097754212202048589714
0.0097771632332643299002
0.0097891620004276532624
0.0098380501916460576239
0.0099802749642924036555
0.010114775833615724521
0.010207231273523274112
0.010289662528246512271
0.010391634291754726568
0.010522453676721761281
0.010667466188570113098
0.010800599224231247422
0.010899112696385529833
0.010957498197253546374
0.010987166188073473061
0.011011702872304657275
0.011056746215274620287
0.011165373327329846526
0.011370079117638914185
0.011587119289958085211
0.011782365081132372894
0.011936843615427853577
0.012053423357573691752
0.012150344983867262388
0.012250433580142459922
0.012368721605005133721
0.012506083716446361742
0.012651890916589386693
0.012786845503361156384
0.012895657778598584517
0.012973790666533710839
0.013029262951600397227
0.0130811861485208656
0.013152782813506173898
0.013261464061283936844
0.013414243997058246036
0.013604552550236417852
0.013815202731618982795
0.014023546477901509613
0.014208451228468079938
0.01435689214652174743
0.014465209126833465311
0.014540630245180959437
0.014595792925615559688
0.014647323151851857764
0.014710574962205624772
0.014796867522725746374
0.014909956755443331405
0.01504774809343268141
0.015203078526008868485
0.015363938363292460945
0.015519531544518128108
0.015659602852657557304
0.015777966926843339096
0.015874809163932503131
0.01595324104608649568
0.016021878411680283427
0.016090307627063451384
0.016166871269920248672
0.01625874701696121416
0.016370649323307596978
0.016503290968899315266
0.016653836361954749146
0.016817047526409834024
0.016987533942821628902
0.017158460533720457097
0.017321527599457358509
0.017471219573089100119
0.017603070246997566672
0.017713605897965476604
0.017802984727467906223
0.017872077409072324727
0.017922593167462735203
0.017956760989283834101
0.017977577277388401972
0.017988415722295248572
0.017991935356786070005
0.017991429724382331651
0.017988679834042602818
0.017985576617330696625
0.017192653111268940691
0.017174951725996954327
0.017157162352607290695
0.017139001680514142495
0.017120399842590647982
0.017101777452410298758
0.017083464527294266871
0.017065440457781817091
0.017047513534115064926
0.017029867165059654061
0.017012841870109408904
0.016996471273953747683
0.01698020438813159852
0.016963441548750225057
0.016945744978672683256
0.016926958037258632572
0.016907021491592448548
0.01688644537906492174
0.016866128412186084939
0.016847032872728644193
0.01682927208595499935
0.016812483544165694738
0.016795912398788880038
0.016779356813804366388
0.016762572489937729164
0.01674593038991306973
0.016729474642101810344
0.016713718880440497222
0.01669825097752131518
0.016682862656973895116
0.016666477736535949272
0.016649210112629500569
0.016630806445999915533
0.01661230616660220108
0.016593544168014649071
0.016575201145774366013
0.016556610204358997857
0.016538305156346445879
0.016519608012805150898
0.016501163292464416515
0.016482328060501826722
0.016463874522717754367
0.016445117656188661115
0.016426871016656970081
0.016408279935651040593
0.016390420981532920208
0.016372483098743558644
0.016355620873066686188
0.016338757523870185706
0.01632296854570229952
0.016306958277020413423
0.016291445416940969482
0.016274761647427821859
0.016257774057272165319
0.016239283876899691939
0.016220677563327703247
0.016200869908508067074
0.0161814066448010066
0.01616143637531170657
0.016142552336938332386
0.016123450436723540252
0.016105222498837515333
0.016086407327877319529
0.016068404245631232041
0.016049760193550859089
0.016031856369961103997
0.016013032961836197454
0.015994919449797560113
0.015976126419871672368
0.015958402009407113981
0.01594003106605164713
0.015922396086077639926
0.015903549444702857335
0.015885285896824561519
0.01586601771337708619
0.015847890494419959728
0.015829169005252947955
0.015811836890512714904
0.015794014376613787348
0.015777538901975331903
0.015760280870130538577
0.015743826545010070755
0.015725985448696366137
0.015708705021659320061
0.015690254528780991916
0.015672797246080377026
0.015654426243434976102
0.015636824492470727949
0.015618020444881374614
0.015599850714797025564
0.015580834701878281193
0.015562782419100112952
0.015544197281654639764
0.015526531878248274118
0.015508277235043619116
0.015490776507861528377
0.015472441975985733176
0.015454679667663208387
0.015436117105112060616
0.015418598579474305718
0.015400872277410960001
0.015384503443988754509
0.015367508724314214719
0.015351066697841515493
0.015333054813350654663
0.01531527461834632925
0.015296008597058258563
0.01527752488148644873
0.015258027621150077949
0.015239602367123867427
0.015220180829027219957
0.015201779412895521926
0.015182506555445139662
0.015164430836297509986
0.015145637256475479732
0.015127942049355065299
0.015109465299353910459
0.015092096873353362876
0.015074145297220569936
0.015057332263336531061
0.015039869281901778811
0.015023323170420167447
0.015005987611089019809
0.014989389998347212724
0.014972087133228298428
0.014955649142842444149
0.014938973379970887576
0.014923330479386596667
0.014907226528131159449
0.014891506225795207718
0.014874854019718839263
0.014858358282419235896
0.014841317809749390508
0.014824641595635788469
0.014807835052618064514
0.014791481629838966125
0.014774985642801750224
0.014758618034108175743
0.014741554244107571425
0.014724549392864128353
0.014707042585423138817
0.014690475360925376105
0.01467401031412836343
0.01465893960490636562
0.014643754286242347679
0.014629500549063038234
0.014614365844617045395
0.01459948648531752928
0.014583277631877217609
0.014567292729204353932
0.014550303331765285925
0.014533859752281609937
0.014517127676985359594
0.014501111838465490303
0.014485386119319204959
0.014470045815789464583
0.014454798490411396861
0.014439536018919120822
0.01442402298272650249
0.014408881299728330816
0.014393139365765313109
0.014378120961822834362
0.014361956889704440704
0.01434639194497529073
0.014329766790015957892
0.014313516027878468717
0.014297054953958197171
0.014280927889788200269
0.014265217521005253004
0.014249842683808387062
0.014234500733757076557
0.014219421261175500815
0.014203947169268942366
0.014188515787934927875
0.014172856746011855758
0.014156781504435082472
0.014140977334740062812
0.014124673642277861887
0.014109175684890101071
0.014093678894308460728
0.014079162534827291062
0.014064633995329704069
0.014051209746052806607
0.014036598350526586013
0.014022969781269224374
0.014007808963928463156
0.013993512256953038325
0.013978559572478831477
0.01396479506669001322
0.013950492079565033482
0.013937629549196523318
0.013923290810821045346
0.013910536177164832539
0.013895638722247746072
0.013882372707889410746
0.013866720239470366194
0.013852999845039933383
0.013836835417128007936
0.013823088366937857571
0.013807296565818997711
0.013794508497134379266
0.013780034523034662489
0.013768913711239642514
0.013756058837585986507
0.013745778003065573999
0.013732854245649801783
0.013721770814420953741
0.013707344047195396675
0.01369503836713657427
0.013680016994446080741
0.013667435050107090699
0.013652399556170473349
0.013640117461208585425
0.013625003974392511236
0.013613156283148452122
0.013598262223074589899
0.013586777712006148019
0.013571999875159669949
0.013560881653779052053
0.013546197236780856479
0.013535688530722206346
0.013521460776548357638
0.013511316625171965189
0.013497455226770703127
0.013487407239692021307
0.013473883153598369133
0.013463866096629469732
0.0134502231888892574
0.01344002377154247807
0.013425982795313293888
0.01341578809490018287
0.013401983229860194372
0.013392171674866667347
0.013378702047776353315
0.013368952052995288632
0.013355335395775463914
0.013345774783556094492
0.013331945862202602276
0.013322403354623521543
0.013308454483531908033
0.013298742471495872408
0.013284588932971692909
0.013275325802532654193
0.013261579848551946492
0.01325260514071007617
0.013239147719878458648
0.013230204899415929504
0.013216549687357163553
0.013207444314438642266
0.013193832608269328091
0.013184765976452595196
0.013170997347531748431
0.013161846942142813033
0.013148337312381712036
3.0878436957392345623e-05
4.9038836328690126151e-05
7.6834334869787122217e-05
0.00010351722435427054543
0.00012421687078738912684
0.00014512919475723502359
0.00016793817549482647914
0.00018906931562757414104
0.00021417971006503709304
0.00025231682039676597146
0.0003009906260470405462
0.00034778177717094101509
0.00038673582801875786442
0.00042768957854302905352
0.00047901389948566490927
0.00053718769339371609355
0.00059679349873300127118
0.00065784978410323357786
0.00071257396277202658154
0.0007478947563047314397
0.00076929293940795038815
0.00080251265922719802054
0.00086713430984362664927
0.00095488918979286935285
0.001039540240742170378
0.0010986798542900356058
0.0011296623141825610712
0.0011498648742554744458
0.0011852452963252949492
0.0012711414233142590176
0.0014239315211541604331
0.0015820437013629464439
0.0017126944250896009546
0.0018060932541238089531
0.0018695107661466326895
0.0019118310822932428703
0.0019383401656556380633
0.0019565669625990155488
0.0019821294990786568826
0.0020366223754416821687
0.0021698337095786852241
0.002351701533722889547
0.0025133356758916727131
0.0026158197074898728064
0.0026637475685997434073
0.0027109951054903641716
0.0028258958429967797298
0.0031837073953641030315
0.0036374776078552371363
0.0039062913401327961638
0.0040024128445533121642
0.004012387261984385646
0.0040026136351018377912
0.0039902179477311590719
0.0039895002874978224144
0.0039963221618294422766
0.0040295806842663177069
0.0041552171135373384969
0.0043817206318602008527
0.0045348432192984927669
0.004596499507528639325
0.0046050053915390170428
0.0046053713925364881537
0.0046225861284735951864
0.0047233997801792056148
0.0050098171862154603287
0.0053074761574209037771
0.0055685434182466981429
0.005784315049298153176
0.0059332003539572250941
0.0060088423827830226426
0.0060430109677501132534
0.0060923665653053165475
0.0062305679176610393941
0.006689750007805139731
0.0072946840603215741886
0.0076546290342257069378
0.007781266722123244238
0.007791455770449425694
0.0077838797497220054561
0.007799023341378911664
0.0079351756464480349001
0.0084873040781627290957
0.0091864981593492781031
0.0095824860532096045596
0.0097225217068244110946
0.0097325254986496186754
0.0097161664116616509868
0.0097211056772619711813
0.0098194081505090149292
0.010025553677003260292
0.010085734776555010245
0.010064263939014606031
0.0099194405167022520198
0.0097854227640976274016
0.0097727214364808009939
0.0098333678594970247433
0.010106115384367874918
0.010385097637270464949
0.010509605432295902189
0.010547610471508683458
0.010553117071438980479
0.010552133835554510996
0.010541677346645652452
0.010497248966390246294
0.010421027581433310594
0.010374471450211869214
0.010358826785346835972
0.010360336915830686833
0.0103814015909537323
0.010461916410232493732
0.010543284718352084403
0.010587270441914171243
0.010625370764338747109
0.010694288600611641729
0.010810713614158019152
0.010967633727503485475
0.011135693508180990671
0.011280854486938912684
0.011380575324021084682
0.011434478753254128866
0.011462290478936742674
0.011496093286186247207
0.011567282872328792445
0.011695028149042149823
0.011863529202710136265
0.012049817780926095484
0.012227985233298781578
0.012382198020073608216
0.012511058128450838756
0.012625910792888135961
0.012743872091062187143
0.01287827491021564276
0.013032021910725366184
0.013198535348331569272
0.013361975003902295048
0.013503172502676661498
0.013609362116587503388
0.013678954842870296241
0.01372278814479340088
0.013762675654180749757
0.013822247324236399194
0.013921569800093475805
0.014071071384072339136
0.014268322294861869245
0.014499124098294853547
0.014738974915062088775
0.014961479014657436473
0.015144857539991854467
0.015275814141855163439
0.015355608078833130753
0.015396000508062047257
0.015417753744914906855
0.015444848476410671934
0.015503433642065994613
0.015617384941519388275
0.015765593587951907267
0.015935016749891249555
0.016110384179951774131
0.016279551518511545943
0.016431522824721201542
0.016560042143063981313
0.016665517024057927009
0.016752142576179882699
0.016830020670078726236
0.016909042546472852209
0.016997932205910618736
0.01710375823740169568
0.017230730431619978998
0.017378580894079849462
0.017543418794451273723
0.017720297090923292638
0.017903513898748456973
0.018085764756921335339
0.018258203787627162035
0.018415920539477929896
0.018554934811076694012
0.018671889384394780437
0.018767414622212895414
0.018841741517788546806
0.018896259846528873361
0.018933101806276813467
0.01895525762107172843
0.018966755509805560687
0.018970082872622671261
0.018969238656224539363
0.018965918978853454901
0.018962095784124281123
0.018956551318132064399
0.018115094008504532136
0.018096889261695753293
0.018078370497040523179
0.018059551493681800377
0.018040568084115141817
0.018021541058781967437
0.018002491440076942575
0.01798348899571229273
0.017964604756048375284
0.017945845594728213057
0.017927208642215648748
0.017908774432196530868
0.017890600424247355554
0.017872533583498748794
0.017854206523422760933
0.017835186295561102771
0.017815198104817790703
0.017794276754089781434
0.017773057081626172926
0.017752339869091547653
0.017732804123599059387
0.017714265229951280112
0.017696457448053100336
0.017678784088551478121
0.017661197451345686527
0.017643288798310924337
0.017625384224722515786
0.017607590858539277218
0.017590624723471382646
0.017574140257241292751
0.017557844387239097961
0.017540679998684732127
0.017522613021197862293
0.017503465415765112612
0.017484066080553736788
0.017464511801429400545
0.017445499730614370815
0.017426639553581958764
0.017408182166468205015
0.017389411130102394587
0.017370593735943511138
0.01735128805913220898
0.017331993824086996958
0.017312301149621903834
0.017292701051988147026
0.017272897353891914635
0.017253774051793058925
0.017235124599122429723
0.017217654918268262415
0.017200557408661117098
0.017184160382753593116
0.017167478533362735826
0.017150822305432130571
0.01713322214534493057
0.01711513374646359345
0.017095774860950315593
0.017075885304025425343
0.017054967601511542702
0.017034217584024919506
0.017013418872122279546
0.016993409330990767031
0.01697334560854009064
0.016953650094997045616
0.016933697559974380392
0.016914247651644759296
0.016894561021770549553
0.016875153202835477956
0.016855351206296720346
0.016836026745103201824
0.01681678326838610335
0.016798149129069381985
0.016779293425267710616
0.016760467875929295489
0.016741066192715446659
0.016721704969040247779
0.016702080047644219524
0.016682829847348343982
0.016663592863386981341
0.016644896375475982941
0.016626306315354871107
0.016608139473895083826
0.016589866891928491122
0.016571620586506220774
0.016553013610577708287
0.016534345378695660539
0.016515514916752741664
0.016496945390991300806
0.016478227164447949854
0.016459363909176436686
0.016439791152253739603
0.016419898429223058617
0.016399749695725381743
0.016379935386507220307
0.016360373435445975387
0.01634121851916988874
0.016322295540667716013
0.01630366032483672456
0.016285028739037317458
0.016266274122558259385
0.016247186126095939512
0.016228202800921954357
0.016209592011431659536
0.016191696023363056495
0.016174018134429778148
0.016156109610970473961
0.0161373849063114784
0.016117951581970636765
0.016097906701586794237
0.01607784034119487393
0.016057718582478477248
0.016037973135482101739
0.016018211393654877006
0.015998715351284317765
0.015979297291411023729
0.015960264396892426958
0.015941434189470492233
0.015922763166839777604
0.015903980514846993016
0.015885168671669197549
0.015866478279558452608
0.015848015099868634215
0.015829854701099235065
0.015811843082855187026
0.015793919756204984062
0.01577593663603960028
0.015757987331744358755
0.015740105117412250824
0.015722649665324356372
0.015705442308337733831
0.01568844777222456327
0.015671116881769271006
0.015653558983835302865
0.015635593789450796115
0.015617935362638174154
0.015600285463566735539
0.015583362832154992392
0.015566426002301729514
0.015549862163141489266
0.015532744802085914418
0.015515407953064809521
0.015497398475584348715
0.015479419780240378721
0.015461507033474644265
0.015444146804524846658
0.015427399866985883753
0.015411264795607991854
0.015395516404659772419
0.015379797825353445917
0.015363592548237678045
0.015346804059926492936
0.015329344290318123664
0.015311813776858290009
0.0152940728374204582
0.015276982401277448484
0.015259780151373679782
0.015243560255619278965
0.015227088614886362047
0.015211412713869729499
0.015195176147121125521
0.015179291798120046753
0.015163087065526277553
0.015146956721020510273
0.015130835791264613324
0.0151143661982058395
0.015097702388022462422
0.015080742270669559094
0.015063348848355806453
0.01504637972892933391
0.015028861164031610473
0.01501244947126809462
0.014995652099974002974
0.014979933936541196121
0.014963941274538393456
0.014948553292304114781
0.014932464534198008205
0.014916777450225536528
0.014899833665225171303
0.014883686990985512538
0.014866162330148577353
0.014850185306208019131
0.014833353519157743347
0.014818482549560380718
0.014802762111711092324
0.014788889113004634671
0.014773046800459514391
0.01475871411487019412
0.014742135415235804036
0.014727069156810242492
0.014710653595317377609
0.014696072721828995142
0.014680280929358172429
0.014666845702150904662
0.014651379359937490368
0.014638427982867510332
0.014622822051991562695
0.014609522629055614676
0.014593174816539534328
0.014579368540507819593
0.014562325852756689143
0.014548312581284679121
0.014531316665672753749
0.014517884125190260933
0.014501975675205978217
0.014489968276378228235
0.014475578039183709458
0.014464608356576471801
0.014450399891958121135
0.014438791071124770435
0.014423347161410577169
0.014410628992401475212
0.014394647118118386597
0.014381671667742663631
0.014365703808095086139
0.014353041887010489774
0.014336932011499587888
0.014324692928715770934
0.014308705183111704307
0.014296758642587881899
0.014280822121828469495
0.014268980727975586614
0.014253067515658829345
0.014241861625734573288
0.014226388525577641705
0.014215665166196107816
0.014200674631918453264
0.014190167886823364801
0.01417535314572827658
0.014164814714790042657
0.014149958168704309877
0.014139167363221459214
0.014124100889276612961
0.014113536270143113918
0.014098821458766461548
0.014088666956443063327
0.014074149803106309961
0.01406398868256893489
0.01404923555716644859
0.014039154353744089446
0.014024319817980900396
0.014014288881283117408
0.013999168600610447863
0.013989031700299990602
0.013973692499666933928
0.013963813474004931059
0.013948773497273274022
0.013938996230911410157
0.013924039605886819049
0.013913931321696189694
0.013898641581277603949
0.013888467525940965952
0.013873254922302095601
0.013863217148232784282
0.01384811659441379135
0.013838113906989189458
0.013823158737114468742
4.0526367760424372385e-05
5.9300473928885297106e-05
8.4211679166811383504e-05
0.00010373409252456897286
0.00012057497670879996658
0.00014522089057006121356
0.00017252859477716767458
0.00019489402034505784044
0.00022238352774201592885
0.00026595664743793358698
0.00032010443916162078896
0.00036879972381849391531
0.00040377854594541331664
0.00043997483337230219652
0.00049286850579058143988
0.00055790799810127801508
0.0006243981268058522438
0.00068967665457692138142
0.00074664578708122570673
0.00078240865009204145844
0.00080330667820894977125
0.00083598015213943489572
0.00090248217746573180381
0.0009899145354530919632
0.0010692175845377607703
0.001120776879177615452
0.0011500264959904862687
0.0011833569655643326902
0.0012534635597868310549
0.0014028262554516641916
0.0015979111575957114736
0.0017849332422782253089
0.0019143843122529369261
0.0019721151429378425309
0.0019857161993693007995
0.0019891811533589553312
0.0019964648142780003735
0.0020167702111419522071
0.0020732994828684485865
0.0021983254256055691223
0.0023441852652330828245
0.0024854581346562720952
0.0025958596378755621065
0.0026607294189466700225
0.0026957851205533325291
0.0027458171788667861887
0.0028756528121347780733
0.0032544564167930238943
0.003665712166697722256
0.0039050436052732897911
0.0039918873636745951655
0.0040055234410509401102
0.0040095258560281440974
0.0040257458860799297598
0.004080288922128620481
0.004192492203472980572
0.0043269264726551025929
0.0044717227869955000416
0.0045983109594762263186
0.0046760805019442552508
0.0047014324160079582968
0.0047035411288761062865
0.0047087784301316189597
0.0047530985086483594146
0.0049581337145864672403
0.005381519415000738174
0.0057309140261642939687
0.0059924634654527379404
0.0061714577799447346493
0.0062721409175292590008
0.00631580857665523486
0.0063461663033252419669
0.0064147278199454243336
0.0066572691803523454182
0.0073551295360454078953
0.0079376445088305599279
0.0081879722358660696896
0.0082273718519106399383
0.0081954364963710644304
0.0081368358139914977178
0.0081438597746094458507
0.0082750540692410976679
0.0088547173766993138994
0.0096360868083393402123
0.010076559232775244082
0.010229397056187345891
0.010240028252409457896
0.010227180420727285254
0.010244024630719050784
0.010407908937554676693
0.01070569827557670689
0.010794646732480673093
0.010771808473467543721
0.010595935282522159215
0.010391670535278044532
0.010346583313741598148
0.010369898708981408961
0.010513955955122486485
0.010752323934698770902
0.010915066711617297385
0.01103536592217946137
0.01113265247606155979
0.011201080148654929056
0.011234061851193653803
0.011237573250258175994
0.011224629680405225074
0.011157241620828923026
0.011056465746067539041
0.011008298314080159144
0.010998026395688080548
0.011003294975252219529
0.011037154904696292249
0.011156937761552123897
0.011285404718003327548
0.011355792481622561246
0.011388569201950591095
0.011418514388610414081
0.011481158527965834235
0.011633017968153037611
0.011831489111008404447
0.012014496679518567659
0.01216482871909281907
0.012287395726545944502
0.012400446056787656907
0.012518620797753300319
0.012648473651437617746
0.012784112642032012877
0.012916076877726669417
0.013038357702288597487
0.013152441713629690889
0.013263977948768415974
0.013382852783717428397
0.013518329142744331048
0.013673638107349216433
0.013844908926243846767
0.0140213061123121846
0.014191430296274612152
0.014344797853633361323
0.014477134256036767318
0.014592766620891478926
0.014702334362394538919
0.014817795595018772026
0.014949360034754095514
0.015096028554725459195
0.015255291355873220466
0.015417192618726472536
0.015571158762033895928
0.015708323120341725898
0.015824002017308713697
0.015919825405878471752
0.016002858276639476964
0.016086748166729513548
0.016185311176373132214
0.016310261277968498422
0.016465148664348228102
0.016643574025946343553
0.01683445714569939064
0.0170240164434596504
0.017199287506720797869
0.017350892766120742938
0.017475870838143808816
0.017574133361229683781
0.017650385159604070617
0.017714575071945747736
0.017776712741563366338
0.017847031712672201814
0.017932905056473887051
0.018038282126374979158
0.018164170318293964418
0.018310651272823743468
0.018473487320888597185
0.018647042353715927165
0.018824673509288677303
0.019001011657717718772
0.019170095869022178714
0.019326709325864412786
0.019467738695643457825
0.019593370266132465601
0.019702370478128901354
0.019793374019266354868
0.019867816246340420233
0.019925297575463320893
0.01996683607593974577
0.019993445780607830425
0.020008804029643164485
0.020015411132298672331
0.020015831159676349821
0.020014412166186899833
0.020012392430788224912
0.019072897441725321366
0.019054035208072826746
0.019034591281155609221
0.019014703782083017258
0.018994810997538826708
0.018975104257094258658
0.018955401435208785871
0.01893572170767964663
0.018916248102843244427
0.01889700674899921079
0.018877626747899931003
0.018857915795090409578
0.01883793258464860898
0.018818013838655233555
0.018798040461892540076
0.018777846413007177884
0.018756880899466664425
0.018735390861505132193
0.018713647549705576117
0.018692684762532565945
0.018672422147046140173
0.018653063132316492073
0.018633815978151967163
0.018615017155551086964
0.018595937448800135827
0.018576863875073339194
0.018557196843480842224
0.018538027483109762589
0.018519237796299329452
0.018501378665323805345
0.018483166996570377094
0.01846474573344886877
0.018445211533510041252
0.018425462377677861298
0.018404878009250367349
0.018384702035153445421
0.018364468249848307085
0.018345435090457367505
0.018326472290390402597
0.018308097734274556695
0.018288830389685685474
0.018269447144798688087
0.018248902669890269129
0.018228414031002514867
0.018207081541768702776
0.018186517126387219401
0.018165948672008647852
0.018147003629341025566
0.018128242439114268525
0.018110772876276551996
0.018092645505639291803
0.018075096744142232774
0.01805633933381674272
0.018037958634611619968
0.018018110034777618661
0.017998315593434004167
0.017976686814331073461
0.01795533509651332793
0.01793306191783133885
0.017912253844249159673
0.017890941197677399238
0.017870619867318585788
0.01784909732266100682
0.017828516219033356538
0.017807061340835303453
0.017786653382108039145
0.017765025939250986275
0.017744466908819298001
0.017723273659189693607
0.017703829044367461881
0.01768366671220712727
0.01766458850078840917
0.017644075579151135419
0.017624575042652298323
0.017603689909810461833
0.017583995281679795641
0.017562984322580722785
0.017543421343566848597
0.017522868887004685451
0.017503865271068886483
0.017483600256674669549
0.017464673412259389823
0.017444265336037795278
0.017425222282239950788
0.017404667983350087523
0.017385547392604658312
0.017365097798366955356
0.017346192052298928937
0.017325565765394786849
0.017305869051692197164
0.017283961099162921393
0.017263199921342346072
0.017240969999410500624
0.01722059735151265647
0.017199190757204493168
0.017179853418951132604
0.017159483555162790419
0.017141037656284136004
0.01712077467116396301
0.017101760759408595608
0.017080682340256767016
0.017061593012910946515
0.017041280758613993468
0.017023206343278876607
0.017003019348032666347
0.016984051520494099219
0.016962334478653161296
0.016942091795799991277
0.016919819791039479584
0.016899764233686408177
0.016878120406113326923
0.016858909284558899061
0.016837946394721033105
0.016819319666841230781
0.016798876871827423535
0.016780708954415333306
0.016760339994778664791
0.016741774185774382921
0.016720778674777433959
0.016701782577972921345
0.016680995348959712365
0.016662630872102818236
0.01664256990804588443
0.01662469822510553516
0.016604840482548489933
0.016586827937527536675
0.016566984107016811956
0.016549090965033114858
0.016529574615019044376
0.016511863819265778369
0.016492134155884508734
0.016473976384683154672
0.016453981871566693285
0.016436164165841597035
0.016417078780834749169
0.016400497165216295498