/*--------------------------------*- C++ -*----------------------------------*\
  =========                 |
  \\      /  F ield         | OpenFOAM: The Open Source CFD Toolbox
   \\    /   O peration     | Website:  https://openfoam.org
    \\  /    A nd           | Version:  12
     \\/     M anipulation  |
\*---------------------------------------------------------------------------*/
FoamFile
{
    format      ascii;
    class       volScalarField;
    location    "0.00516";
    object      nut;
}
// * * * * * * * * * * * * * * * * * * * * * * * * * * * * * * * * * * * * * //

dimensions      [0 2 -1 0 0 0 0];

internalField   nonuniform List<scalar> 
75962
(
4.9045893908343044417e-07
6.2973767848223456496e-07
7.6895929764126811945e-07
8.4164012342491776457e-07
8.6713140145722754752e-07
8.9926582803277523703e-07
9.7522469553333186462e-07
1.1261109801608349583e-06
1.2300107323693170016e-06
1.2858630101661926432e-06
1.3459185666231095278e-06
1.4486279698945852842e-06
1.5663352382715268597e-06
1.665495458108750791e-06
1.7422764204333806404e-06
1.8129156686974570064e-06
1.903289732834381318e-06
2.0190780643216369553e-06
2.1293537544903186316e-06
2.1997648651914773212e-06
2.2339570859238988459e-06
2.2737512758142452625e-06
2.3498015868607031793e-06
2.4496849301173041033e-06
2.5441934892838853394e-06
2.6104845881452473371e-06
2.6486291964583947122e-06
2.686356749128415212e-06
2.7619970880176746207e-06
2.8930221967048717278e-06
3.0521593433524082504e-06
3.1942809141220253333e-06
3.2944393200281435958e-06
3.3624702270789422948e-06
3.4198525414753669272e-06
3.4724211929802392515e-06
3.5107734087633905726e-06
3.5305971795897760781e-06
3.5433331849489099553e-06
3.5677690929354937525e-06
3.6324366326007302176e-06
3.7778698509995119786e-06
3.9078063187369969434e-06
3.9840223854614344184e-06
4.019799153573940877e-06
4.064724749058990881e-06
4.1832750753773876318e-06
4.5057086843244479915e-06
4.8053700144913541183e-06
4.9534035364783186522e-06
4.992498421036741054e-06
4.9898309179243732878e-06
4.9733122315538556759e-06
4.955411851668260634e-06
4.9493826924503757798e-06
4.9486416576839148987e-06
4.9641677547755030996e-06
5.0409165458626976281e-06
5.1897563244890965352e-06
5.2792486492087910513e-06
5.3046737316623678084e-06
5.300632256038402597e-06
5.2952031664022156912e-06
5.3091100312892822773e-06
5.3959055323437891071e-06
5.5502937855436636937e-06
5.6710804701928756432e-06
5.7686636443316237463e-06
5.8467316357121293445e-06
5.8993148308015305563e-06
5.9245142965104152411e-06
5.936509078976158821e-06
5.960416096618864802e-06
6.0376217943014171818e-06
6.3058567298878227716e-06
6.647454647542598089e-06
6.8336548417137221191e-06
6.8910405916048079244e-06
6.888955754780853241e-06
6.8728725886018643076e-06
6.8666745168351864845e-06
6.8875981702917866037e-06
7.0166330313353301215e-06
7.264091588350186312e-06
7.4167584642284811771e-06
7.4743466712783309544e-06
7.4771210019652637176e-06
7.4667845804565564693e-06
7.4611745910062990381e-06
7.4803659478515821714e-06
7.5360424776367758255e-06
7.548764918833885777e-06
7.535363834682070511e-06
7.4782127677170100793e-06
7.428083358550280948e-06
7.4193595294999363195e-06
7.436843454635268751e-06
7.5295100935145112665e-06
7.6228516823988654423e-06
7.6641835660545058572e-06
7.6750692658804935055e-06
7.6736975300286348406e-06
7.6685712139227401343e-06
7.6623171155613006053e-06
7.6528551316409083313e-06
7.6354001452588996266e-06
7.617355911327650934e-06
7.6050165594284687177e-06
7.5977151424062532958e-06
7.5931057275011558383e-06
7.5924619001343572234e-06
7.6060291853858090982e-06
7.6553998086262848834e-06
7.7015431865718578149e-06
7.7313320347897192492e-06
7.7570851953144876628e-06
7.7899716118810688427e-06
7.8333748356651628181e-06
7.881690436322521238e-06
7.9252475349842732544e-06
7.9558281561524813743e-06
7.9716078978558194303e-06
7.976863595372867284e-06
7.9802064366480084779e-06
7.9909179150679378556e-06
8.0243744986959275822e-06
8.0919252777463974709e-06
8.1631298892173538773e-06
8.2259412537397383553e-06
8.2739900933281315199e-06
8.3085611614579530114e-06
8.3361237837455432479e-06
8.3645686272231306525e-06
8.3989955512678377762e-06
8.4396165434861105444e-06
8.4827730665080010628e-06
8.5219979505257223006e-06
8.5522843463449118331e-06
8.5722440064304922426e-06
8.584610843403488791e-06
8.595717500951727155e-06
8.6131839376888415358e-06
8.6426342571008885296e-06
8.6861851587808158281e-06
8.7414721886923820815e-06
8.8027613396849043478e-06
8.8627506022940468936e-06
8.9148359413659923552e-06
8.9551129248478070379e-06
8.9826372527366817158e-06
8.9998035099245793676e-06
9.0106092312336530788e-06
9.0202246072726425987e-06
9.0333794780200366443e-06
9.0535148971714029929e-06
9.0817057370152802286e-06
9.1172126977874555427e-06
9.1577672411102191858e-06
9.1996909852624108065e-06
9.2397474361362913524e-06
9.2749303220868585773e-06
9.303483881146481035e-06
9.3255419803449704079e-06
9.3420800890919843617e-06
9.3556607625526388354e-06
9.3691009911049216545e-06
9.3848272553329362497e-06
9.4048983908382812228e-06
9.4306292629634911083e-06
9.4621569682258591978e-06
9.4985939247204459674e-06
9.5383809411393227545e-06
9.5799455957316406696e-06
9.6213434579968435225e-06
9.66026094344055026e-06
9.6952024652559368179e-06
9.7249881335070679117e-06
9.7487249801909643448e-06
9.766522635171635613e-06
9.7786772694483807994e-06
9.7857017466905863308e-06
9.7882380468716416813e-06
9.7871251581726116127e-06
9.7832945522413058493e-06
9.7774739306073353996e-06
9.7705581921952496259e-06
9.7630312702879739321e-06
9.7554034107591694778e-06
9.2830524149163529276e-06
9.2718313807194916088e-06
9.2605965490258683687e-06
9.2492707802154453661e-06
9.2378335281517615784e-06
9.2263972727120732118e-06
9.21505181484026599e-06
9.2037929366215651377e-06
9.1925692057020114579e-06
9.1814292548804275529e-06
9.1704643196773844959e-06
9.1596844405092514942e-06
9.1489434728830487025e-06
9.1380820062181710871e-06
9.1269823828050885813e-06
9.1155998842940708028e-06
9.1039136281085321085e-06
9.0920564772355049512e-06
9.0802698637643012929e-06
9.068816677472935482e-06
9.0577326780263696886e-06
9.0469236820754315445e-06
9.0361863729510529273e-06
9.0254635455627835422e-06
9.0146858820265372131e-06
9.0039512463498780386e-06
8.993272346061472776e-06
8.9827901114368564108e-06
8.9723967181112950604e-06
8.9620375381593518074e-06
8.9514225003851732545e-06
8.9405797337580433104e-06
8.9294386469366484081e-06
8.9182771945744703266e-06
8.9070515628445308875e-06
8.8959457765081476229e-06
8.8847819649829201649e-06
8.8737040194286559761e-06
8.8625300103946721167e-06
8.8514322897191430377e-06
8.8402375720735029788e-06
8.8291524934352830673e-06
8.8179928728328651355e-06
8.8069772452228324095e-06
8.7958765840839516674e-06
8.7849797900071408251e-06
8.7740699700871746205e-06
8.763457266408489923e-06
8.7528534883318399043e-06
8.7425469853157182092e-06
8.7321910877653810638e-06
8.7219787318031563443e-06
8.7114636306262003808e-06
8.7008779324366691859e-06
8.6899002618559966795e-06
8.6789003105832521629e-06
8.6675857168001531583e-06
8.656367977043175833e-06
8.6450183103562416832e-06
8.6339642354872182339e-06
8.6228589220130526943e-06
8.6119962817015680007e-06
8.6009867190296191558e-06
8.5902043845421622388e-06
8.5792599607579341696e-06
8.5685213899282157375e-06
8.5575440021922442608e-06
8.5467628864452957049e-06
8.5358072805951014399e-06
8.5251452426931240115e-06
8.5143196842911512598e-06
8.5037004222346565497e-06
8.4927670191071159248e-06
8.4819977856587724322e-06
8.4709674970702232891e-06
8.4602479124368327448e-06
8.4493753945685541839e-06
8.4388798088504475721e-06
8.4282608550115427674e-06
8.4180106917885322423e-06
8.4075627627597114739e-06
8.3973407350910561587e-06
8.3867595464307546942e-06
8.376336819000396839e-06
8.3656092335087143646e-06
8.3551524888832458108e-06
8.3444586085152553203e-06
8.3339770969667823224e-06
8.3231834541014259525e-06
8.3125672078424225344e-06
8.3017333261718753126e-06
8.2911628612194503336e-06
8.2804564658194972906e-06
8.2700010486367875188e-06
8.2593956793769975939e-06
8.2489995498223056005e-06
8.2383909276286165969e-06
8.2279441334112314593e-06
8.2172927363159644547e-06
8.2069263717445091255e-06
8.1965111524143380339e-06
8.1864640723513454546e-06
8.1762586161622048859e-06
8.1662098418218255296e-06
8.1557539114263033275e-06
8.1453700960371863579e-06
8.1346007588072033467e-06
8.1240475512621430069e-06
8.1132311736297994803e-06
8.102704651038886838e-06
8.0919175919468248073e-06
8.0814065000483923724e-06
8.0706699371562574372e-06
8.0602592055724187991e-06
8.0496665665989770589e-06
8.0393751079750840727e-06
8.0288851801271374583e-06
8.0186983054745968779e-06
8.0083645919995101437e-06
7.9983408986378590682e-06
7.9881520003228952798e-06
7.9782138315128267776e-06
7.9680732942612434876e-06
7.9581357206939631503e-06
7.94801791119584104e-06
7.9381364422580597245e-06
7.9281990465937106924e-06
7.9185434336291201475e-06
7.9087738239204173434e-06
7.8991144862077658831e-06
7.8892166126363939691e-06
7.8793685413759619474e-06
7.8693843021022212157e-06
7.8595044530319727884e-06
7.849597638258682479e-06
7.8398180980600403378e-06
7.8300077278093435477e-06
7.8202381237020408247e-06
7.8102901774624654236e-06
7.8003637799174001027e-06
7.7903102125371526831e-06
7.7805119845925119779e-06
7.770748055643293071e-06
7.7613616065560599638e-06
7.7519535866194890265e-06
7.7428010975873443625e-06
7.7334242068576702754e-06
7.7241231533987974103e-06
7.7144779734621090245e-06
7.7048987689293580886e-06
7.6950600989978286518e-06
7.6853712104047086347e-06
7.6756117264786593917e-06
7.6660471755887248324e-06
7.6565659858796787125e-06
7.6471937969109849608e-06
7.6378539991960939102e-06
7.6285184104025307786e-06
7.6191246662522039943e-06
7.6098375640969529449e-06
7.6003998395937532104e-06
7.5911614064635720529e-06
7.5816282010066929242e-06
7.5722604149033048243e-06
7.5626201682432175893e-06
7.5530850021113672175e-06
7.5435008512416607039e-06
7.5340104682086052161e-06
7.5246358024828214698e-06
7.5153556711062262938e-06
7.5060904127299555907e-06
7.4969014088098297603e-06
7.4876158803113956812e-06
7.4783493629001302212e-06
7.4690313678199320702e-06
7.4596115571331578228e-06
7.4502709822537063102e-06
7.4408055288221247979e-06
7.4315583687463189212e-06
7.4223174861172100627e-06
7.4133409037979165391e-06
7.4043675725064421589e-06
7.3956927124681635902e-06
7.3867128533078251935e-06
7.3779992578592798548e-06
7.3688899666430590489e-06
7.3600142174316505881e-06
7.3509723122451405949e-06
7.3422493140438540039e-06
7.3333915284176276171e-06
7.3249203634379679356e-06
7.3160689747152232208e-06
7.3076421859139766674e-06
7.2986603866906124056e-06
7.2901145390036585441e-06
7.2809484295280067268e-06
7.2722951637261919983e-06
7.2630049092576831786e-06
7.2543533366180372492e-06
7.2451696162114571185e-06
7.2367791218307121794e-06
7.2279526579474738797e-06
7.2200131900457127814e-06
7.2116281448520831046e-06
7.2039273661320017488e-06
7.1955434702536977013e-06
7.1876505539758856221e-06
7.1788893880037820419e-06
7.1706898210111148079e-06
7.1617848849580573601e-06
7.1535235184838381019e-06
7.1446250358736607334e-06
7.1364528197153890359e-06
7.1275457142969379529e-06
7.1194993640084694837e-06
7.1106628534769483575e-06
7.1027242778426559711e-06
7.0939307919456567582e-06
7.0860996222422636151e-06
7.0773419962803393892e-06
7.0696809335051852957e-06
7.0610548374170540407e-06
7.0535015788854042845e-06
7.0449854707751184875e-06
7.0374718709331793599e-06
7.0290592517209875167e-06
7.0215688255013873102e-06
7.0131398229306745533e-06
7.0056148593912132905e-06
6.9970942196514697569e-06
6.9895813500740267267e-06
6.9811338456880099389e-06
6.9737325545407449515e-06
6.9653855641242766602e-06
6.9580135958093285441e-06
6.9496417897033297808e-06
6.942331898183097915e-06
6.9339177460621328415e-06
6.9266239682526051393e-06
6.9181902124408939497e-06
6.9108630936541313924e-06
6.9023872117207221865e-06
6.8951880097494374749e-06
6.8868316263830774493e-06
6.8797212585038467449e-06
6.8714548447279446414e-06
6.8643672606653885417e-06
6.8560639544574949821e-06
6.8489467893248311866e-06
6.840666859110356274e-06
6.8335702293464919518e-06
6.8252598173085765747e-06
6.8181504289996500346e-06
6.8099171030788186476e-06
4.7221157719538421077e-07
5.9455916642148623201e-07
7.4387397004180743344e-07
8.6292184792738850486e-07
9.4459801325592626017e-07
1.0202735296157760185e-06
1.0967894709766431224e-06
1.1629297911380207177e-06
1.2368235219148337467e-06
1.3414495418046406561e-06
1.4640907889072819006e-06
1.5727282071885096533e-06
1.6573663413277130095e-06
1.7417084760079422316e-06
1.8419489497555443881e-06
1.949212939264947607e-06
2.0530807321207304317e-06
2.1540761591256114583e-06
2.24040705224169104e-06
2.2937627747592636292e-06
2.3247287114238032157e-06
2.3726260665562946661e-06
2.4644640096084196012e-06
2.5843395391322908109e-06
2.6946687811565633995e-06
2.7684664735088949376e-06
2.8053755499811165609e-06
2.8283743309856568223e-06
2.8694476421014578496e-06
2.9692520942695967848e-06
3.1403970010152661377e-06
3.3079710201260798368e-06
3.4396135828541056697e-06
3.5298085447688646571e-06
3.5888188139333305762e-06
3.6267507587252161005e-06
3.6493122637390502842e-06
3.6638792120725459993e-06
3.6851167083179911264e-06
3.7326935919797507329e-06
3.8499063583164012814e-06
4.0052510266310730212e-06
4.1378868977024181887e-06
4.2186587766338240723e-06
4.254248754402966079e-06
4.2887486569913627169e-06
4.3753366441991872136e-06
4.6401904091608586468e-06
4.9568192623441133964e-06
5.1336081446737920177e-06
5.1930767258656672977e-06
5.1960372170969485345e-06
5.1861352815086100035e-06
5.1744695904604523845e-06
5.1703909500303009853e-06
5.1711815234520891509e-06
5.1889438404240951973e-06
5.2652408082608207306e-06
5.4031552702953196762e-06
5.4931364084913154384e-06
5.5266639278077645748e-06
5.5279819229174253188e-06
5.5243615845103369064e-06
5.5307671049311117102e-06
5.5865659990422661182e-06
5.749173223996493507e-06
5.9135227711763225296e-06
6.0530957023247452175e-06
6.1650786796540075972e-06
6.2397173301431372664e-06
6.2751277903742916562e-06
6.2886089725303359686e-06
6.3097824354715475269e-06
6.3762246298847499674e-06
6.6017513448710757093e-06
6.8893363314365108256e-06
7.052819355117311161e-06
7.1062828060237208779e-06
7.1060704689652097671e-06
7.0976598456666290744e-06
7.09954246280065497e-06
7.1559129054254909884e-06
7.3947957086742932938e-06
7.6884726728104615874e-06
7.8474442607008465674e-06
7.8993743689529437264e-06
7.8980307954046441839e-06
7.8859099645050259239e-06
7.882379365278274587e-06
7.9163774154723623737e-06
7.9935874295011326806e-06
8.0121329390353196519e-06
7.9981251135260342076e-06
7.9350385294135288423e-06
7.8755949089425378025e-06
7.8649243011852349128e-06
7.88365651255913345e-06
7.9863991333441304522e-06
8.090490883234568775e-06
8.1333485022839564538e-06
8.1424426120879069365e-06
8.1389250038859357688e-06
8.1329025107207230635e-06
8.1232618894479939641e-06
8.1005734888026284778e-06
8.0654836903131269329e-06
8.0418028123562657191e-06
8.0301139744268890092e-06
8.0251029502183561428e-06
8.0276255442398080844e-06
8.0530177205964904787e-06
8.0787215325149350589e-06
8.0899794250545530011e-06
8.0988935738979141702e-06
8.1194271732598637017e-06
8.1577699062982216141e-06
8.2110118097684136663e-06
8.2679390794409899745e-06
8.3159208433721784241e-06
8.3468585640060678375e-06
8.3608398297664818254e-06
8.3651976629703289281e-06
8.3716739271146956778e-06
8.3916529913345050591e-06
8.4319450843422260499e-06
8.486543814425888895e-06
8.5469775662966824073e-06
8.6039774401192830168e-06
8.6520770140636354441e-06
8.6909615266380630104e-06
8.7247055021088254495e-06
8.7592740137756270138e-06
8.7992144560362372282e-06
8.845422117257413863e-06
8.8955654617436661014e-06
8.944273016467302586e-06
8.9852009379168262126e-06
9.0142485951234010673e-06
9.0310354184477280206e-06
9.0392314235496989234e-06
9.0460595248959302671e-06
9.0592795104232507413e-06
9.0853970396641892712e-06
9.1276454299285200711e-06
9.1849685809046787224e-06
9.2525077757792676325e-06
9.3222594824932364621e-06
9.3858833050712923274e-06
9.4367322422777146445e-06
9.4709267199143918345e-06
9.4890892517596949499e-06
9.4949949127167388531e-06
9.495106927357321885e-06
9.4968254846147171964e-06
9.5081542557153562231e-06
9.5363543936153956137e-06
9.5748094797434725575e-06
9.6194172859773384692e-06
9.6654882796301937626e-06
9.7093738211211692927e-06
9.7478480433530229781e-06
9.7791395400380351304e-06
9.8034536909916076734e-06
9.822089659061154318e-06
9.8380528667295873824e-06
9.8542563260216577896e-06
9.8732394734543367336e-06
9.8970250311223523443e-06
9.9267734283003012812e-06
9.9623290950063939119e-06
1.0002496463398832167e-05
1.00458008925617013e-05
1.0090586625912034761e-05
1.013478493539340109e-05
1.0175937518149574365e-05
1.0212724053937196611e-05
1.0244104799132126165e-05
1.0269223586630588587e-05
1.0288325181603456766e-05
1.0301534417005513529e-05
1.0309279478656824933e-05
1.0312176976231452223e-05
1.0311064350193932331e-05
1.0307050911298678514e-05
1.0300816553685125912e-05
1.0293447078052889038e-05
1.0285401909071486049e-05
1.0277215047355275787e-05
1.02685686505303678e-05
9.7834139402262911651e-06
9.7717087861853395699e-06
9.7599281509083278297e-06
9.7480761851324033269e-06
9.7361888325325738626e-06
9.7242978122469468584e-06
9.7124084958336485241e-06
9.7005402613274730573e-06
9.6887132041389550366e-06
9.6769292749095352343e-06
9.665186782586564313e-06
9.6535066723356643812e-06
9.6419052431640266869e-06
9.6303437033327651194e-06
9.6187254674370563677e-06
9.6069343116668952246e-06
9.5948936322048862697e-06
9.5826078690792526534e-06
9.5702438839788553311e-06
9.5580171671423946292e-06
9.5461146466992552841e-06
9.5344916524277767753e-06
9.5230793309848220374e-06
9.5117163833865644003e-06
9.5003869318164032269e-06
9.488977283480948678e-06
9.4775730276620377679e-06
9.4662039119548301665e-06
9.4550660069309900506e-06
9.444070226451815124e-06
9.4331396305293756043e-06
9.4219892868162780834e-06
9.4106068748650920086e-06
9.3989408979378420115e-06
9.3872116019474933162e-06
9.3754449189392364487e-06
9.363829951121716881e-06
9.3522645326169448092e-06
9.3408181951584777838e-06
9.3292994013696092104e-06
9.3177792901273293931e-06
9.3061376260453141924e-06
9.2945070035926882285e-06
9.2827765141275093936e-06
9.2710773497679530491e-06
9.2593302899881618572e-06
9.2477728142421079116e-06
9.2363502315998295342e-06
9.2252527022150330311e-06
9.2142647827676468617e-06
9.2034749578144244616e-06
9.19261967536476054e-06
9.1817823771419820319e-06
9.1707038268053464705e-06
9.1595059870776982739e-06
9.1479787748835135925e-06
9.1363184685085549388e-06
9.1243896078100518438e-06
9.112510152185891523e-06
9.1006220284531334286e-06
9.0889507426922935476e-06
9.07727284576261676e-06
9.065703012354995528e-06
9.0540747870141399155e-06
9.0425911147841494267e-06
9.0310535280873009391e-06
9.0195985395558559491e-06
9.0080452814472666622e-06
8.9966264555453430104e-06
8.9852369182577066496e-06
8.9740189922684351578e-06
8.9627518350047330709e-06
8.9515030771423928198e-06
8.9401105174803304642e-06
8.9287378978885200852e-06
8.9173028092077954684e-06
8.9059745077781013049e-06
8.8946558765096887052e-06
8.8834880248747363437e-06
8.8723565727595687209e-06
8.8613478436034205405e-06
8.8503221500062120131e-06
8.8393150086951519258e-06
8.8282223847507281748e-06
8.8171225307630123893e-06
8.8059869739408682293e-06
8.7949279131095791637e-06
8.7838365724234569406e-06
8.7727148762198406813e-06
8.7614128901507393036e-06
8.7500340446036121034e-06
8.7385943548773822685e-06
8.7272499445946331907e-06
8.7159785800082203246e-06
8.7048220495533385773e-06
8.6937352851643195955e-06
8.6827349157930020093e-06
8.6717462573858835408e-06
8.6607351552562237429e-06
8.6496438787055762016e-06
8.6385871892771353949e-06
8.627635646657155389e-06
8.6168812911578314959e-06
8.606194026169668328e-06
8.5954563483842435351e-06
8.5845133369449726381e-06
8.5733932273780740456e-06
8.5621203921272607791e-06
8.5508497238494524925e-06
8.5395699727130249961e-06
8.52839449563029203e-06
8.517218738811065763e-06
8.5061186848460031482e-06
8.4950463391273874477e-06
8.4840851553974196516e-06
8.4731880213801239225e-06
8.4623437296301840216e-06
8.4514799315073986096e-06
8.4406174823582125801e-06
8.4297955296363118362e-06
8.4190414467889874587e-06
8.4083751286631364021e-06
8.3977557114807363525e-06
8.3871673166783611113e-06
8.3765707678462476696e-06
8.3659908941769818493e-06
8.3554362516287550712e-06
8.345002362289787368e-06
8.3346419918643939087e-06
8.3243461851008547335e-06
8.3139694559870824222e-06
8.303541118374775304e-06
8.2930133874745887629e-06
8.282575914430726196e-06
8.2721493663635004803e-06
8.2619241421721799384e-06
8.2517032131929742499e-06
8.2415886489113425565e-06
8.2313345166501398472e-06
8.2210288256653498817e-06
8.2105513671680590464e-06
8.2000885998424025315e-06
8.1896506096621116805e-06
8.1793667655647376419e-06
8.1692537288278931155e-06
8.1593113881574542957e-06
8.1494800963598664726e-06
8.1396653222297326587e-06
8.1297299240368382919e-06
8.1196479280566168991e-06
8.1093951917396603455e-06
8.0991303609502838341e-06
8.0888160588278950583e-06
8.0786803265477044611e-06
8.0685215950146617217e-06
8.0586299213368851494e-06
8.0486795938563838711e-06
8.038947951104848493e-06
8.0290768993607319323e-06
8.0193072934839502774e-06
8.0094617829980171997e-06
7.9996440111084110211e-06
7.9898370761902634622e-06
7.9799460773654928055e-06
7.9700113543954257154e-06
7.9600060245832591143e-06
7.9498929802308582497e-06
7.9398987081202684793e-06
7.9297652292388241677e-06
7.9199296397109907947e-06
7.9099983523896584764e-06
7.9003581138734017001e-06
7.8906531355843676488e-06
7.8811159913102214839e-06
7.871402820288660564e-06
7.8618046660939728398e-06
7.8518837189626891192e-06
7.8421810972362099583e-06
7.8321224303141122065e-06
7.8224778863503333554e-06
7.8126143478597215162e-06
7.8032735899095229245e-06
7.7937160664815018747e-06
7.7846529470854434682e-06
7.7750793316089658526e-06
7.765910748618025806e-06
7.7561586404847716268e-06
7.7468107865825173113e-06
7.7371145434857030161e-06
7.7279074139206577372e-06
7.7183886752446343132e-06
7.7094977388122432874e-06
7.7000810965699746234e-06
7.6913342041189669833e-06
7.6818984892749426699e-06
7.6730768515600508283e-06
7.663461751989244101e-06
7.6545203903402690167e-06
7.6447345592575144786e-06
7.6357486815816375062e-06
7.6259848729710738184e-06
7.6171614734179099619e-06
7.60769499552729217e-06
7.5992593706988276181e-06
7.5902079418421079655e-06
7.5820630976808036554e-06
7.5730793057891994052e-06
7.5647859648228225107e-06
7.5554958586888740308e-06
7.5469261878212881494e-06
7.5375077312120441393e-06
7.5288816356674759494e-06
7.5194774213076041503e-06
7.5109444118913698367e-06
7.5015151447200143961e-06
7.4931054788994431721e-06
7.4837222100134406298e-06
7.4754027417469375019e-06
7.466046773964182172e-06
7.4577676636275176846e-06
7.4484302519307200779e-06
7.4403292596819624113e-06
7.4311202634661571847e-06
7.4231587437136018382e-06
7.4140906383512832079e-06
7.4062004509193704772e-06
7.3971936362581191892e-06
7.3893098197700019341e-06
7.3803068409031519719e-06
7.3723707342994378549e-06
7.3633260571498776654e-06
7.3554612177121865226e-06
7.3465216427067027061e-06
7.3387773993310541544e-06
7.3299043416028294122e-06
7.322172917606118857e-06
7.3132527610346665043e-06
7.3055550093408855964e-06
7.2966262657752067053e-06
7.2889528629772180036e-06
7.2799613880824924132e-06
7.2722714798084906268e-06
7.2632352692339709462e-06
7.2556248240339548894e-06
7.2466810290531455047e-06
7.2391118824199576385e-06
7.2302057919864793202e-06
7.2225658103139937991e-06
7.2135877299127598621e-06
7.2059433549697335522e-06
7.1969976934080910248e-06
7.189399794304407584e-06
7.180494537722200717e-06
7.1729161501476860181e-06
7.1640598758171284213e-06
5.5480307850594719223e-07
6.7090319656147215265e-07
7.9903194517635187918e-07
8.8630174938827141323e-07
9.5486073620169742917e-07
1.0471257723377935588e-06
1.1405425498408394451e-06
1.2113996025549933449e-06
1.2930160237600802969e-06
1.4129936216262822992e-06
1.5491167516782444907e-06
1.6617038686094196245e-06
1.7375810186526660562e-06
1.812496867621675783e-06
1.9169458852440586982e-06
2.0380658258452266834e-06
2.1546204153962201251e-06
2.262921366052711041e-06
2.3529855398305212237e-06
2.4071187196356076302e-06
2.43737138165265498e-06
2.4845940901261395666e-06
2.5795911330181859693e-06
2.699765160288177344e-06
2.803970386993755258e-06
2.8689171516583815891e-06
2.9041457642622476025e-06
2.9437963518030686362e-06
3.0273919847347982787e-06
3.2002244053683235852e-06
3.4131729062522683979e-06
3.6050813684692195905e-06
3.7311629383061786709e-06
3.7845443717757636543e-06
3.7950104976830202067e-06
3.795692508041458731e-06
3.7999773472263269143e-06
3.8165253257835538351e-06
3.866761701788169094e-06
3.9787331566965949327e-06
4.1057687528713502874e-06
4.2248240316155399144e-06
4.3147744013111130441e-06
4.365438579998475695e-06
4.3910738848255978311e-06
4.4284544532046489696e-06
4.5284166734069293935e-06
4.8135340638405905788e-06
5.1055134473105144886e-06
5.2663208851072235034e-06
5.3211389989845656664e-06
5.3266053950463819832e-06
5.3255465169753565859e-06
5.3325319438338900861e-06
5.3646569996255423442e-06
5.4340709837462526226e-06
5.5166452353979103724e-06
5.6043158086908032524e-06
5.6792313967389716024e-06
5.723201665619960468e-06
5.7347866745619244841e-06
5.7320959257402772269e-06
5.7312835101977552802e-06
5.754035747224647177e-06
5.8721747522666088864e-06
6.1135039735229580453e-06
6.3046653293139255287e-06
6.4426219770870253763e-06
6.5337473962376903575e-06
6.5823904104514003886e-06
6.6007593058348251386e-06
6.6119951074183780601e-06
6.6428678874602798641e-06
6.7620181595096429182e-06
7.1021876573708360691e-06
7.3736140787742478748e-06
7.4842663736800187568e-06
7.4972445834404804528e-06
7.477581105632950192e-06
7.4455327189353484208e-06
7.4434741156303578817e-06
7.4975967438115004979e-06
7.7495157317524664608e-06
8.0790847113598598191e-06
8.2564646334024706576e-06
8.313384864244326695e-06
8.3120047296255769229e-06
8.3010010922713545829e-06
8.3019760919502566949e-06
8.3619510377221462972e-06
8.4750327453467353187e-06
8.504482124042117455e-06
8.4896816351037358985e-06
8.414500278709905113e-06
8.3270104083076132705e-06
8.3030219633286488946e-06
8.3065351324347159128e-06
8.3579727178798947417e-06
8.4463702657581463253e-06
8.5042026042211267984e-06
8.5450267906624673419e-06
8.5766789313354956635e-06
8.5970737875653937713e-06
8.6038022765624907573e-06
8.5992047658071597193e-06
8.5883166439900772481e-06
8.5566436172884770685e-06
8.5119402607542478091e-06
8.4874096195018395965e-06
8.4775234912774925696e-06
8.4736490292464166442e-06
8.4807188328477890163e-06
8.5205822079366885666e-06
8.5636311508023326593e-06
8.5844048694035037395e-06
8.5908416096618804759e-06
8.5961281182692119416e-06
8.6136118246358580063e-06
8.6642369708791075965e-06
8.7317661794181465086e-06
8.7929629317873262578e-06
8.8417000624643468448e-06
8.8799850135645434931e-06
8.9145523815789030897e-06
8.9507037605727439846e-06
8.9907542218329393994e-06
9.0325599629202563574e-06
9.0727625284413077647e-06
9.1092832196937796764e-06
9.1426944999140698813e-06
9.1749969489908893982e-06
9.2096090717118679462e-06
9.2496667530893998031e-06
9.2961768954657984245e-06
9.3477128902248646415e-06
9.40054371356397878e-06
9.4508491305914893812e-06
9.4952060912273372073e-06
9.5323016788325780493e-06
9.5636575167160495307e-06
9.5928214900933850702e-06
9.623709248964113606e-06
9.6596054507006663854e-06
9.7001200427027867916e-06
9.7443797088960752169e-06
9.7891619838265399019e-06
9.831116142698792114e-06
9.8674967005961047991e-06
9.8969130051653633973e-06
9.9199564687525641592e-06
9.9388878420871118149e-06
9.9579711218598459627e-06
9.981467199773680086e-06
1.0012927746652635442e-05
1.0053338290630224424e-05
1.0100620854372754592e-05
1.015131522273034067e-05
1.0201230549006375206e-05
1.0246518137077446025e-05
1.0284474259376657202e-05
1.0314328787137208327e-05
1.0336148055667800311e-05
1.035138044674107094e-05
1.0362984268490177788e-05
1.0373911460379878571e-05
1.0387156929974571739e-05
1.040485387121670254e-05
1.042810933291588542e-05
1.0457151480622357226e-05
1.0491927597573169753e-05
1.0531147301003901661e-05
1.0573146549169272566e-05
1.0616011190293464538e-05
1.0658222764375924093e-05
1.0698125226954904217e-05
1.0734297235689756826e-05
1.0765923437620154236e-05
1.0793113632194452033e-05
1.0815586321277857385e-05
1.0833019550898978365e-05
1.0845851858681481477e-05
1.0854010262414641187e-05
1.0857799716578325156e-05
1.0857515248414109388e-05
1.0854166506963105717e-05
1.0848436154730098184e-05
1.0841019211037293554e-05
1.0833100807422757269e-05
1.0825021023821030983e-05
1.0299773261508237912e-05
1.0287534014667556944e-05
1.0275147018364912149e-05
1.0262649221038099056e-05
1.0250158399522131541e-05
1.0237726139514591461e-05
1.0225303700592856609e-05
1.0212897007113599745e-05
1.0200556253389423214e-05
1.0188288519682252745e-05
1.0175992746858741704e-05
1.0163616042688951974e-05
1.015117461374880722e-05
1.0138761360412709009e-05
1.0126346450623620888e-05
1.0113885698026213399e-05
1.010122841654675353e-05
1.008843691488156025e-05
1.0075580903279501824e-05
1.0062938958178376572e-05
1.0050492893921639722e-05
1.0038301780311531294e-05
1.0026154645674121698e-05
1.0014141263768038488e-05
1.0002062604652742859e-05
9.9899923820664410137e-06
9.9777671164121163995e-06
9.9656810818676162936e-06
9.9537064091609362017e-06
9.9419952800781731853e-06
9.9302047764202026507e-06
9.918372322126251908e-06
9.9062519694649135851e-06
9.8940807106554361797e-06
9.8816886826142564371e-06
9.8694091550208498973e-06
9.8571193759578414935e-06
9.8451611802067052494e-06
9.8332346862775718219e-06
9.8214804388826840197e-06
9.8095000991807427431e-06
9.7975000687782323115e-06
9.7851970870422924089e-06
9.7729162021612057937e-06
9.7604153335778545621e-06
9.7481265395919495289e-06
9.7358437865552981133e-06
9.7240043712312284154e-06
9.7122233961877462371e-06
9.7007981697023139473e-06
9.6892070888078617001e-06
9.6777820387561735982e-06
9.6660452102378076398e-06
9.6544215137223732607e-06
9.64241710775344905e-06
9.6304382003122949307e-06
9.61797728480097155e-06