/*--------------------------------*- C++ -*----------------------------------*\
  =========                 |
  \\      /  F ield         | OpenFOAM: The Open Source CFD Toolbox
   \\    /   O peration     | Website:  https://openfoam.org
    \\  /    A nd           | Version:  12
     \\/     M anipulation  |
\*---------------------------------------------------------------------------*/
FoamFile
{
    format      ascii;
    class       volScalarField;
    location    "0.00516";
    object      p_0;
}
// * * * * * * * * * * * * * * * * * * * * * * * * * * * * * * * * * * * * * //

dimensions      [1 -1 -2 0 0 0 0];

internalField   nonuniform List<scalar> 
75962
(
98423.885449917434016
98446.672931603869074
98502.278369001665851
98570.487812836043304
98603.936040572327329
98603.055841573543148
98668.017096713607316
98767.39070609396731
98811.987438721364015
98726.31948396275402
98621.871519744730904
98628.028363661651383
98730.270133607657044
98796.28014132847602
98729.922764759307029
98616.729808445015806
98563.827494380806456
98564.981977629635367
98548.603564361008466
98511.386060873308452
98494.252234628758742
98524.778842495055869
98571.37158793778508
98608.409488680757931
98636.181490928895073
98639.985654410978896
98601.673878868110478
98545.289379913927405
98519.395015701753437
98545.393310946295969
98595.73467900956166
98625.877507864759536
98625.834249846462626
98621.072236405918375
98622.364506921105203
98613.668808702117531
98580.049374038804672
98542.878772200245294
98529.655209627613658
98544.002079121710267
98572.146425177052151
98589.37759172161168
98572.175959788859473
98533.690591849575867
98512.826723576014047
98526.411664082086645
98556.934582324320218
98574.935325936181471
98573.934479938514414
98559.718738198949723
98540.486431875586277
98526.29725260809937
98522.792033053759951
98517.137661736400332
98499.884988963356591
98480.958868635978433
98479.164984343660763
98492.367135174150462
98491.555734114954248
98472.80558579301578
98461.551674504255061
98465.789166001035483
98466.050442531006411
98443.7235805207456
98408.05439927460975
98377.797866437322227
98352.435801773230196
98329.356523541471688
98318.0809521562187
98322.08773534221109
98332.460423359720153
98336.224570226462674
98339.165709436725592
98357.143900803479482
98396.438527814127156
98439.628774802549742
98462.714804011600791
98459.132905108199338
98451.699184611687087
98462.399733990620007
98489.913452133085229
98507.943692766930326
98494.431212380935904
98455.816986511606956
98420.10967232506664
98409.083388493207167
98416.541557460848708
98417.490158581393189
98394.41759751625068
98358.16346894337039
98334.900748313943041
98339.51883381800144
98364.531003893789602
98392.872407968927291
98412.256665303590125
98418.396976547999657
98410.04210313395015
98388.20858118875185
98361.151696469285525
98340.935343762786943
98338.161577673425199
98350.068666360239149
98365.485878952633357
98375.693085168415564
98382.716573113953928
98395.195217152911937
98418.452881269127829
98448.944561900236295
98482.431021749507636
98516.712205186486244
98551.639175896314555
98577.910265876693302
98581.539529574278276
98557.124392319499748
98513.989303159469273
98471.395936523520504
98442.942943629328511
98427.536316095356597
98414.33222948355251
98396.624980582957505
98378.616198322983109
98369.210343465470942
98372.790269372329931
98384.549512919751578
98393.073166108864825
98389.284663825572352
98372.868836437846767
98352.814259345730534
98340.654724727311986
98341.600051132409135
98350.802298164911917
98357.872411950826063
98357.513439235510305
98355.421106670735753
98363.208677694041398
98387.529204530801508
98422.735369670874206
98455.031321509246482
98473.774973404069897
98478.031894528656267
98474.642223656032002
98471.801569202594692
98474.036049469781574
98481.506292777354247
98492.36967130251287
98503.915683763116249
98512.665806050223182
98515.97545436929795
98513.334020282607526
98506.602480195535463
98499.79116979923856
98497.492338206939166
98502.45289283877355
98513.550392808523611
98526.911161116775475
98539.4234966456861
98551.675694120829576
98566.747970894517493
98587.445141118892934
98611.369439460613648
98632.580265652170056
98645.404072990393615
98648.300719196777209
98645.235102454695152
98642.676048753855866
98645.478961595232249
98654.510393018994364
98668.039758516039001
98684.105004665427259
98702.941427561454475
98726.086116061065695
98754.196218223136384
98784.618294996587792
98811.882126746422728
98830.618148682609899
98838.398505080520408
98837.124106545321411
98831.664754828321747
98827.583144203163101
98828.639038693290786
98835.928539090396953
98847.289970098616323
98857.529699477294344
98860.193928206674173
98850.750836356251966
98829.643028221311397
98803.218598316001589
98781.099750965557178
98575.734190776827745
98576.451104515450425
98575.609031098472769
98571.894599162813392
98565.615032340603648
98558.803777286637342
98553.811652615811909
98551.766727524547605
98552.581445424977574
98556.164207302397699
98563.174353681053617
98574.267114158617915
98588.132260407248395
98600.307462103723083
98604.51705663233588
98596.298678069157177
98576.323610132647445
98550.873627624445362
98528.766602596442681
98516.899675088905497
98517.126543700316688
98525.902729883557186
98537.007268698362168
98545.711352714541135
98551.485898935265141
98557.520430755685084
98567.723631126951659
98583.782000089224312
98603.977923356709653
98624.139014782253071
98640.048609551071422
98649.563846975579509
98653.271344333945308
98653.722976312245009
98653.779596687323647
98655.358524614319322
98658.933612409673515
98663.839243073918624
98668.920433352468535
98673.424233452387853
98677.398790019826265
98681.546021612506593
98687.060535936703673
98695.199755657406058
98706.85769668861758
98722.668059899006039
98742.886878501536557
98767.169867440825328
98794.723598670840147
98824.507512427633628
98855.350557289464632
98885.7267880821164
98913.481742973177461
98935.722836575325346
98949.385456331408932
98952.557732693603612
98945.594950299884658
98931.386617779979133
98914.650154215589282
98900.004749912011903
98890.105473945397534
98885.407498849672265
98883.994695486821001
98883.070182357012527
98880.458395662033581
98875.604569663511938
98869.528659266565228
98863.992304782645078
98860.518248097752803
98859.718451273991377
98860.977387072358397
98862.660134174366249
98862.782364286933444
98859.885812979540788
98853.841353374373284
98846.144802183378488
98839.593105675216066
98837.330484276913921
98841.662710962729761
98852.857976019542548
98868.739013514437829
98885.40086536538729
98898.889436165191
98906.634121301351115
98908.321340974915074
98905.476815397007158
98900.197145512123825
98893.757781014806824
98885.937906228587963
98875.589314479671884
98861.742918919408112
98844.822343698921031
98826.78507496167731
98810.279935440383269
98797.469389167352347
98788.92000062369334
98783.433572653768351
98778.87112233719381
98773.483760078903288
98766.869461840862641
98760.090030520470464
98754.892774300227757
98752.490611761473701
98752.553760733426316
98752.958540099134552
98750.406627029471565
98741.646228476878605
98724.798843070224393
98700.167517249501543
98670.173678882390959
98638.470233111307607
98608.649622180542792
98583.25630965930759
98563.296570908525609
98548.289680642512394
98536.792505733959842
98527.102377405812149
98517.891931397214648
98508.552319701688248
98499.175836602182244
98490.263392528897384
98482.461791633919347
98476.356817957857857
98472.313621628767578
98470.508366903493879
98470.97751938298461
98473.65408164706605
98478.400970452144975
98484.909946643529111
98492.589265281552798
98500.51429895281035
98507.491120392311132
98512.253621786861913
98513.763923095568316
98511.389720834602485
98505.103191228306969
98495.499720186446211
98483.629511257968261
98470.897810710783233
98458.871000112427282
98449.00213583157165
98442.381781493430026
98439.56886380983633
98440.363261228339979
98443.730879605514929
98448.122234975453466
98451.876791625763872
98453.59073633600201
98452.454700196220074
98448.454370217295946
98442.31381203912315
98435.287902380441665
98428.980566440630355
98424.883093365613604
98423.959830550433253
98426.474669217845076
98432.052346497948747
98439.8863312490721
98449.012478884396842
98458.4565681443637
98467.451330971278367
98475.350611350135296
98481.630658283393132
98485.823237698306912
98487.525553760759067
98486.439543613174465
98482.523041874723276
98476.177837748851744
98468.35529567147023
98460.467126891249791
98453.854531745513668
98449.379670031630667
98447.282554024539422
98447.202645949131693
98448.245664338348433
98449.219891649627243
98449.161788032011827
98447.743215314956615
98445.357828924054047
98442.868906088522635
98441.286874410245218
98441.411474771128269
98443.554347344994312
98447.516710374053218
98452.848319103752146
98459.170287240485777
98466.409235717874253
98474.761617832278716
98484.421578524081269
98495.338342285758699
98506.981729615479708
98518.197886790512712
98527.407611259186524
98533.049316616292344
98534.070858441657037
98530.36398810816172
98523.001956263236934
98514.082383337168721
98506.288840186723974
98502.383529891885701
98504.403836888101068
98513.138564142194809
98528.007740533415927
98547.215194930584403
98568.194160383296548
98588.191314512805548
98604.83822392084403
98616.63148701658065
98623.16830533654138
98624.985973997507244
98623.215650252852356
98619.163939920588746
98613.936662913140026
98608.168032554007368
98602.025386585504748
98595.491838960762834
98588.726463315193541
98582.293838014520588
98577.117409523794777
98574.325200613660854
98574.996743549228995
98579.853609486846835
98588.988978659574059
98601.709630840152386
98616.649427009484498
98632.117587107393774
98646.615471601093304
98659.124396374187199
98669.1631976600911
98676.822276421837159
98682.698227067099651
98687.491760609249468
98691.729167032070109
98695.61909090874542
98699.072553354708361
98701.700647120043868
98703.08073502467596
98703.106511118166964
98702.181012275046669
98701.165834783925675
98701.019931811228162
98702.539788588386727
98705.935302014331683
98710.776196445687674
98716.098946379832341
98720.486233430114225
98722.499615227658069
98721.093611030155444
98715.959352007324924
98707.518518131983001
98696.745902391980053
98684.979260425505345
98673.767962389611057
98664.579360028437804
98081.173901195914368
98168.550195725532831
98369.175946121613379
98614.283732323412551
98595.222345827001845
98487.325240898528136
98520.28623585429159
98691.372692024728167
98830.092711283665267
98768.486417684034677
98644.266375097635319
98638.427787060136325
98692.242629284504801
98708.82591500064882
98689.800893891471787
98672.28788000876375
98659.123663513746578
98627.257805651024682
98570.357567768209265
98506.155387025894015
98472.432058159785811
98486.246593252537423
98531.253850995577523
98579.343114989547757
98617.21011409383209
98629.803033781383419
98602.014911199687049
98558.939380903873825
98548.81448966487369
98589.090927758370526
98637.840629903046647
98646.224124129410484
98620.708940876909764
98609.660174461241695
98622.244717000270612
98611.3035110590572
98570.166219420949346
98532.521839227003511
98534.118779221127625
98571.274097052679281
98614.118255938257789
98632.978075544568128
98608.392539635722642
98559.765675763905165
98531.882700840607868
98541.059119276120327
98558.866506442500395
98564.951452912922832
98575.189430433092639
98592.98910640986287
98593.054791511807707
98565.387764726270689
98531.499681919798604
98509.915285742550623
98500.726153188326862
98501.2948802007013
98515.142370591885992
98533.263294830991072
98528.461885905475356
98502.403768735370249
98482.877229832505691
98482.585933152309735
98480.101257943068049
98453.714868469745852
98411.692757231896394
98372.361625426972751
98344.506921501029865
98330.936375527831842
98341.75331237820501
98370.770268177308026
98394.891525260492926
98397.270102084949031
98392.868356554899947
98407.152886700307135
98448.18731824477436
98496.228906174888834
98520.229162024406833
98506.255347378493752
98472.599483278099797
98451.905536988415406
98456.903202019471792
98471.27184564412164
98468.042552252125461
98438.635151461625355
98402.819653999758884
98385.521297878076439
98389.884963923104806
98396.282411059029982
98386.835750827012816
98365.397208914087969
98349.839019392471528
98352.916238291436457
98372.517626562635996
98398.16307691577822
98418.712764374373364
98425.946074078572565
98414.499536074683419
98385.717987441967125
98352.776067081053043
98332.693731263527297
98335.686541605304228
98355.500552190846065
98376.922540094907163
98386.911032267511473
98385.814692035637563
98385.395098357912502
98397.678038407757413
98423.866288488352438
98458.510894486127654
98495.659432587548508
98531.243100712410524
98558.084916462525143
98564.303538607491646
98543.153184511218569
98501.967585770689766
98458.889776374315261
98428.491645443704328
98411.915089419911965
98400.878207542322343
98388.280970152729424
98375.097794302317197
98366.955734492948977
98366.758543577394448
98370.535456206998788
98369.819970100725186
98357.988050810847199
98335.71012188437453
98312.025213581669959
98299.08799232749152
98302.933993072394514
98319.00201220739109
98335.748523378963
98344.310660453149467
98345.863408099292428
98348.791622232442023
98359.430717810246279
98376.280891346323187
98392.807320035601151
98404.452129479846917
98412.172724743417348
98420.00620167402667
98430.675077960055205
98444.469829627676518
98460.202662991985562
98475.205311399506172
98486.265589751681546
98490.049196240477613
98485.360761655421811
98475.201245345859206
98464.815609054843662
98458.651270746078808
98459.161037217316334
98466.825213347445242
98480.245132526673842
98497.07996335432108
98515.613656225643354
98535.850273148142151
98559.2725249757641
98584.722516161316889
98607.119457349399454
98618.965099847162492
98615.446053873805795
98599.395425790004083
98580.889266539335949
98571.752447027116432
98578.886307130902424
98601.274851357855368
98631.012084884554497
98659.915041087049758
98684.991571063510492
98708.575907053877017
98733.542667237299611
98759.069741610379424
98779.987862891648547
98791.242922096222173
98791.961526035665884
98786.875698954318068
98783.180011317279423
98786.442278890928719
98798.577294429283938
98817.427064728457481
98837.904007090764935
98853.451640337138087
98857.717567015584791
98847.22587461193325
98824.162124863403733
98796.767102776298998
98775.708349193489994
98768.98460876691388
98580.803786017058883
98580.547312983384472
98579.793507003530976
98577.441269323564484
98572.796378192026168
98566.55139010300627
98560.458261353662238
98556.229039033583831
98554.43455785648257
98554.742349458523677
98557.203502373959054
98562.804585950958426
98572.490854490577476
98585.16684319016349
98596.660919883608585
98601.175754130454152
98594.692620259520481
98577.966929628280923
98556.85184594868042
98539.403632568501052
98531.532806379094836
98534.024503625085345
98542.818963359168265
98552.053931741495035
98557.867702910589287
98560.59730019167182
98564.181815193718649
98573.271875810067286
98589.884881367004709
98611.902398136182455
98634.106852691271342
98650.892186311626574
98659.14261782829999
98659.475178116219467
98655.664387509794324
98652.567350744691794
98653.951160648881341
98661.204517974430928
98673.154809713028953
98687.006552289691172
98699.920530084709753
98710.266720647341572
98718.075217088437057
98724.488734862155979
98731.318158206660883
98740.318440508577623
98752.734013552457327
98769.375542781737749
98790.567948130395962
98815.965479007267277
98844.599417588018696
98875.012037767795846
98905.138689760075067
98932.20453409772017
98952.900893640471622
98964.24983813019935
98964.791196788515663
98955.51361433492275
98939.760172360591241
98922.171180707169697
98906.852216159968521
98896.094049365317915
98889.745035072221071
98885.780618256889284
98881.74983390016132
98876.088324417214608
98868.748816508596065
98861.026738745626062
98854.746180283123977
98851.367501918211929
98851.363947926656692
98853.948306112462888
98857.257728162396234
98859.105869668725063
98857.86979651247384
98853.269972223322839
98846.654788653875585
98840.701944444954279
98838.471972506085876
98842.127199353999458
98851.84073166748567
98865.552826925864792
98879.751547288527945
98890.968939520171261
98897.126539613323985
98898.027852198094479
98894.857214044983266
98889.028993966014241
98881.13402156214579
98870.678270179516403
98856.760614185011946
98839.184553502273047
98819.305858197330963
98799.78844730691344
98783.492487065537716
98772.055803859213484
98765.037834786402527
98760.181831490277546
98754.804906504839892
98747.36739772951114
98738.289223812331329
98729.576567848635023
98723.58066537657578
98721.463125621710788
98722.230216334879515
98722.8627704695391
98719.487028858115082
98708.898310395670705
98689.844340352050494
98663.533676315157209
98633.185907533232239
98602.925191420363262
98576.44047583838983
98555.940657875966281
98541.75622975769511
98532.544052438359358
98526.051494947765605
98520.024536633020034
98512.955750025619636
98504.424054465605877
98494.928861588137806
98485.455556166838505
98476.973657703201752
98470.130674635176547
98465.143512895621825
98461.880011828674469
98460.084115350371576
98459.650944533190341
98460.751515371986898
98463.730427870163112
98468.716790593214682
98475.349607157811988
98482.630390397229348
98489.026525205757935
98492.996651540001039
98493.332537958485773
98489.555969630266191
98482.064799591462361
98472.027945690715569
98460.959840698735206
98450.421120958868414
98441.61887852603104
98435.204085419478361
98431.275606595532736
98429.527452253969386
98429.180076487085898
98429.253576618619263
98428.814434412270202
98427.202354037057376
98424.151887047933997
98419.913664047649945
98415.226603725095629
98411.083524553730967
98408.55079578520963
98408.545891723319073
98411.565484346807352
98417.475358488940401
98425.562145850402885
98434.7755026902596
98444.115204153436935
98452.796436065909802
98460.331402871219325
98466.496390133994282
98471.112572560843546
98473.9904474451032
98474.82921010562859
98473.422899870682159
98469.790844296410796
98464.328353082673857
98457.931195958997705
98451.94254091019684
98447.790447865903843
98446.338228126100148
98447.585111484513618
98450.797298490419053
98454.775053244331502
98458.189778159678099
98459.950369561745902
98459.621327045751968
98457.550034724903526
98454.653101534073357
98451.993349054377177
98450.418806218192913
98450.354224147638888
98451.747820879536448
98454.259368911865749
98457.674763179529691
98462.088011572399409
98467.981090377739747
98475.837203827832127
98485.814460269059055
98497.540847553376807
98510.000592187934672
98521.613313521986129
98530.642780631649657
98535.756627053269767
98536.453690390408156
98533.355422510605422
98528.207428674257244
98523.448535800431273
98521.638189443387091
98524.840441254273173
98534.083242641703691
98549.017116615650593
98567.994524932757486
98588.495318365341518
98607.762970167997992
98623.471060535070137
98634.168656963534886
98639.449441630611545
98639.948403983406024
98636.968798231901019
98631.99557998678938
98626.314467172138393
98620.699926301080268
98615.405903837527148
98610.398340594139881
98605.696452539195889
98601.588876821333542
98598.673978193866787
98597.808828564113355
98599.827357964386465
98605.209850581348292
98613.910564539080951
98625.334151301707607
98638.537043559874292
98652.451139022829011
98666.142010301686241
98679.052841223616269
98691.039685976618784
98702.176935658848379
98712.55267315202218
98722.13539348753693
98730.62566280446481
98737.493469708177145
98742.290922926942585
98744.834416643963777
98745.240679039794486
98743.958193921280326
98741.827115806474467
98739.88385271410516
98739.108353553965571
98740.064889212095295
98742.649140822759364
98746.078142162237782
98749.157765409807325
98750.597579737150227
98749.328692089999095
98744.774127326920279
98736.960058741489775
98726.488631660176907
98714.383054433972575
98701.891893562249606
98690.21228264963429
98680.358025662935688
98652.924318939185468
98733.024768183968263
98674.560968823425355
98791.08182472968474
98766.190568446778343
98591.165633401149535
98514.630829393776366
98684.12679472893069
98900.424520937813213
98856.994933366542682
98728.637575836852193
98712.357649038909585
98693.458208091426059
98636.652890382843907
98648.559717347248807
98716.035082156085991
98734.992626865510829
98688.810272125061601
98628.278195955383126
98564.054834690658026
98508.341139620300964
98482.021828997516423
98508.948804205370834
98564.511829701368697
98616.226154132396914
98629.308282084894017
98600.334758495591814
98568.35864797027898
98574.565112728931126
98610.452113311272115
98632.592961261281744
98623.039724678033963
98612.95311362479697
98629.675684314730461
98653.345350734016392
98643.670506436770665
98603.797429442201974
98567.025235397653887
98564.767632216215134
98605.066216463688761
98654.470168564745109
98662.004618020087946
98616.408654828046565
98560.562654657085659
98538.082015370266163
98551.470214145738282
98570.415050092691672
98583.15301683965663
98605.710404577752342
98633.234499285827042
98630.77590575692011
98589.763167313940357
98542.938006350130308
98521.676025314955041
98525.117574840813177
98538.672306103471783
98555.117772492798395
98562.253622136864578
98547.192149070746382
98515.118130421134993
98487.759297545271693
98474.720847207703628
98463.41137560828065
98444.096006529551232
98419.622325660602655
98396.023138458811445
98382.27216537919594
98387.305049739239621
98414.192529451451264
98449.216829815835808
98467.053701728596934
98464.308849920445937
98461.405637584524811
98481.366297125132405
98524.694729175054817
98561.490859754063422
98562.948470911505865
98521.079519322229316
98461.366735465257079
98418.151308920496376
98412.443427894773777
98432.755634431377985
98443.389454371979809
98422.932513864929206
98384.845725654391572
98359.616909261269029
98361.23747440650186
98377.056277557392605
98387.673640714114299
98385.644496198132401
98379.661242141271941
98379.447476480796468
98387.964780279449769
98402.282620870129904
98413.183956792534445
98412.127527464952436
98394.201887166083907
98365.89252027963812
98342.678903140316834
98336.067657916180906
98348.096327574457973
98370.911980813136324
98392.014031280588824
98401.742315153765958
98396.94107571693894
98389.330484139238251
98392.166964434058173
98412.034390088330838
98442.063577079446986
98474.500545835035155
98502.952983141323784
98525.154669379349798
98532.427505995467072
98516.392177551650093
98481.228315800384735
98441.481397223789827
98411.19067219979479
98395.242795877318713
98388.554497941746376
98383.712501588830492
98377.824339233833598
98372.03025724964391
98367.277217387236306
98360.555247037336812
98347.53996621601982
98325.996267966213054
98298.980158897771616
98275.145272467343602
98264.653407890364178
98272.474536767520476
98294.096463044421398
98318.272022792923963
98334.763520266060368
98340.344527998066042
98339.530863828447764
98338.481235270141042
98339.9173918118031
98342.600743787683314
98346.477531630982412
98354.1464876839309
98367.980172258088714
98387.940917003375944
98411.192699900770094
98433.78995477015269
98451.431152179618948
98459.098459345361334
98454.229596884353668
98439.604193829945871
98422.574947387096472
98411.043144107636181
98409.018959709414048
98415.935409369776607
98429.127710892513278
98446.427655569132185
98467.267650637280894
98492.147694465704262
98521.063289502999396
98552.234722700333805
98580.052511699017487
98596.506793121050578
98593.940020440306398
98571.202737830157275
98536.754471202031709
98506.155374876499991
98494.857759799037012
98509.895543325183098
98546.463134242178057
98591.775599030530429
98632.908109355295892
98664.260067916315165
98688.273796113790013
98709.347604379814584
98727.706012272974476
98739.585886904111248
98741.753080674505327
98736.440090494186734
98730.907827776187332
98733.002519676767406
98746.882229600741994
98771.010892125152168
98799.480730828989181
98825.381811570288846
98842.188215742266038
98845.297573664953234
98833.433295112889027
98810.268125004629837
98784.23347283610201
98765.471913804765791
98760.916162322915625
98585.017981375014642
98583.993950244170264
98581.004511436622124
98575.951569688229938
98569.331859525947948
98562.586988734459737
98557.479496918007499
98555.101864610376651
98555.247698679988389
98557.050890365499072
98560.295944231533213
98565.839829757474945
98574.555116342191468
98585.532911720394623
98595.305219032627065
98599.226951451753848
98594.236486601264914
98581.181877314040321
98565.004782368137967
98552.218242760500289
98547.493659689149354
98551.230679632324609
98559.680909004397108
98567.749572040775092
98572.367625091792434
98574.230005133154918
98577.209094270845526
98585.827463942303439
98602.041426891490119
98623.682109940447845
98645.310020294826245
98660.996771557649481
98667.246893432093202
98664.720294105238281
98657.988319911630242
98653.34418325565639
98656.045559966732981
98668.080385308363475
98687.557258464556071
98710.113564464481897
98731.170031630201265
98747.576599200765486
98758.806474076351151
98766.234716316481354
98771.822012291740975
98777.877122939287801
98786.083285955814063
98797.337266630813247
98812.200819743258762
98831.105406666058116
98854.130520383827388
98880.363977670305758
98907.531726379384054
98932.18692505954823
98950.54857769786031
98959.744065752252936
98958.938993083836976
98949.776837823897949
98935.782447633639094
98920.971996826934628
98908.405379584437469
98899.232434785648366
98892.588765401946148
98886.4951536659064
98879.170514275523601
98870.023206016063341
98859.794457382813562
98850.153137128319941
98842.993513133507804
98839.667439578115591
98840.40058500370651
98844.157073021793622
98848.901894883674686
98852.324711121298606
98852.68289364661905
98849.549231467521167
98844.098834037067718
98838.756846760472399
98836.277618646141491
98838.545274615957169
98845.799991395018878
98856.414556112547871
98867.579144187562633
98876.492456286738161
98881.491386236564722
98882.341915965385851
98879.72613351335167
98874.251964813185623
98865.760096843878273
98853.40098517590377
98836.508258940011729
98815.623665638850071
98793.016793581555248
98772.029453835013555
98755.632387561490759
98744.974825654542656
98738.864362375199562
98734.346574919400155
98728.399929844090366
98719.628364939431776
98708.932799058879027
98698.809849376033526
98691.832997902063653
98689.011162767594215
98688.939806394817424
98688.163693951093592
98682.734482221174403
98669.914409942910424
98649.291038567796932
98622.918826693625306
98594.577395001906552
98568.440413857271778
98547.759090255523915
98533.951961298356764
98526.366663248409168
98522.735118758224417
98520.159746532779536
98516.197256033017766
98509.662832322152099
98500.836829656094778
98490.941660974320257
98481.431366725926637
98473.295328198335483
98466.759090721112443
98461.47688340699824
98456.824458758725086
98452.387675452206167
98448.294122273684479
98445.233146385246073
98444.229054446899681
98446.098306196377962
98451.00319925165968
98458.171835245986586
98465.98644936682831
98472.455798370676348
98475.818948822910897
98475.082071241762605
98470.223752927500755
98462.251068345998647
98452.656127382666455
98442.983214633350144
98434.378007636318216
98427.425423654232873
98422.18405959464144
98418.403402328447555
98415.618654350488214
98413.169081933359848
98410.445668123735231
98407.063441772479564
98402.990018982163747
98398.547315942923888
98394.538116660332889
98391.946976722305408
98391.707910779674421
98394.528822816006141
98400.640941693534842
98409.626398668158799
98420.379543891511275
98431.460159776062937
98441.549949786887737
98449.797224126014044
98455.945579956998699
98460.189175530467764
98462.862221280884114
98464.213362114212941
98464.250669613684295
98462.915791743973386
98460.281184972991468
98456.689131166102015
98452.811272733204532
98449.646003550529713
98448.34026273919153
98449.669338100546156
98453.631443504244089
98459.395366648110212
98465.655521798995323
98471.029661106920685
98474.394052616757108
98475.129421178877237
98473.321523747887113
98469.689770725090057
98465.300170046786661
98461.166580432080082
98457.978449891263153
98456.048156708158785
98455.389321617840324
98455.982873449203908
98457.953913043718785
98461.714307277710759
98467.854819567888626
98476.718333440527203
98488.127848863383406
98501.321624714852078
98514.944828032297664
98527.345958127334598
98536.991359114748775
98542.937145394549589
98545.190634570841212
98544.822643778665224
98543.725410932689556
98544.11280333569448
98547.933094861873542
98556.405881138533005
98569.614032828671043
98586.422668287166744
98604.753114861872746
98622.142599134254851
98636.393508055174607
98646.121948310610605
98650.975690713836229
98651.542564905132167
98649.045677106332732
98644.850257953963592
98640.160960991066531
98635.81103270658059
98632.128456444232143
98629.083978173875948
98626.61309503193479
98624.863342192125856
98624.257159258209867
98625.347619417079841
98628.605147400245187
98634.2091282941401
98641.971352928623674
98651.391587493621046
98661.895117610270972
98673.03656265985046
98684.615064484998584
98696.658854586246889
98709.329964398406446
98722.735138161602663
98736.643750901930616
98750.35335578561353
98762.825695384555729
98772.922103581571719
98779.782961719742161
98783.1638417057693
98783.547296443211962
98781.943013234238606
98779.583498063948355
98777.614003896364011
98776.832445534717408
98777.462708815568476
98779.094111386497389
98780.78347694700642
98781.323600335832452
98779.630239150195848
98775.171565873970394
98767.980309988357476
98758.532564262204687
98747.619512144185137
98736.165763694691123
98724.978190137713682
98714.7005496390193
98705.843045318353688
98698.781539357471047
98806.253445741807809
98878.389238194693462
98779.291658421934699
98864.857900650429656
98885.497388239673455
98791.805799507405027
98694.060960368573433
98744.739647185517242
98872.457393522534403