/*--------------------------------*- C++ -*----------------------------------*\
  =========                 |
  \\      /  F ield         | OpenFOAM: The Open Source CFD Toolbox
   \\    /   O peration     | Website:  https://openfoam.org
    \\  /    A nd           | Version:  12
     \\/     M anipulation  |
\*---------------------------------------------------------------------------*/
FoamFile
{
    format      ascii;
    class       volScalarField;
    location    "0.00516";
    object      pPrime2Mean;
}
// * * * * * * * * * * * * * * * * * * * * * * * * * * * * * * * * * * * * * //

dimensions      [2 -2 -4 0 0 0 0];

internalField   nonuniform List<scalar> 
75962
(
1098529.9469833374023
1078508.9773406982422
1069581.4822158813477
1063089.3282871246338
1057736.6382236480713
1052841.8427925109863
1048074.4091358184814
1043293.4250011444092
1038394.7295112609863
1033443.4873428344727
1028525.5602188110352
1023740.4486312866211
1019100.1065921783447
1014515.0715999603271
1009989.8017349243164
1005571.1494445800781
1001252.6554622650146
997029.40375137329102
992869.25755882263184
988733.0975227355957
984622.51350784301758
980587.69663429260254
976712.06249618530273
973027.97813034057617
969565.0644416809082
966348.05069351196289
963385.34784889221191
960692.00980186462402
958278.41959953308105
956122.36815643310547
954192.9390926361084
952458.8820686340332
950882.36721229553223
949409.08498191833496
947988.03639984130859
946592.2595100402832
945215.34022331237793
943854.55344581604004
942505.04458236694336
941151.8907299041748
939781.91847991943359
938384.82095336914062
936939.96060943603516
935416.05901908874512
933787.84516716003418
932044.77454948425293
930186.71949195861816
928209.29221534729004
926113.9169750213623
923892.40475654602051
921533.65207672119141
919033.50944519042969
916389.21045684814453
913599.21191596984863
910682.87646675109863
907671.29524421691895
904597.85837745666504
901493.34739112854004
898377.31404113769531
895269.46737289428711
892205.57590866088867
889228.6680850982666
886363.72608184814453
883607.15618896484375
880937.29611015319824
878334.14618682861328
875786.427978515625
873283.89772605895996
870816.6851921081543
868378.83433723449707
865966.69728851318359
863566.58876991271973
861154.55227851867676
858717.06746292114258
856259.8553524017334
853789.56285095214844
851296.53110313415527
848762.9205150604248
846178.28709602355957
843542.6525707244873
840866.15806198120117
838166.43937873840332
835462.39693069458008
832763.9608325958252
830072.86582946777344
827394.0744743347168
824732.75625610351562
822091.06959915161133
819473.38788414001465
816891.94325637817383
814363.72006988525391
811901.53979110717773
809510.14818000793457
807186.36918830871582
804930.38432502746582
802751.03179550170898
800650.95980644226074
798615.91250228881836
796617.09521675109863
794625.08670234680176
792624.52203941345215
790620.45570373535156
788627.32793998718262
786653.46694564819336
784693.9079532623291
782738.99536323547363
780781.18848609924316
778808.6622257232666
776802.5989990234375
774744.55183792114258
772625.12424278259277
770448.16078567504883
768224.03366470336914
765957.50218772888184
763641.90731620788574
761268.45103454589844
758839.06156730651855
756362.7912654876709
753840.2681827545166
751256.85893821716309
748593.6651725769043
745843.16439247131348
743017.91426086425781
740143.41841888427734
737241.97248077392578
734325.0803050994873
731399.91820526123047
728474.9718189239502
725562.37186622619629
722680.91275405883789
719852.24320793151855
717092.25962448120117
714406.2292594909668
711790.07904052734375
709237.36020469665527
706747.11075019836426
704322.73254585266113
701965.2390308380127
699671.85217094421387
697437.97251892089844
695258.16889953613281
693126.37886428833008
691035.52463150024414
688974.16890525817871
686927.97597885131836
684887.33896446228027
682851.60405349731445
680824.08340644836426
678801.87305068969727
676770.43182373046875
674707.45440292358398
672592.20914077758789
670414.56276893615723
668177.82703399658203
665893.11806297302246
663571.7925853729248
661222.90967178344727
658854.1640567779541
656472.6547737121582
654080.12076568603516
651664.94266319274902
649205.35481643676758
646686.40295028686523
644112.99948310852051
641504.99199676513672
638880.43278694152832
636245.44837760925293
633597.03274536132812
630935.35531425476074
628271.12042808532715
625619.05422019958496
622986.28061294555664
620371.91886520385742
617775.87343978881836
615202.12313270568848
612655.36458206176758
610139.41113662719727
607657.71844291687012
605211.99180793762207
602802.17135238647461
600429.11417198181152
598097.34488677978516
595815.77570533752441
593594.26769638061523
591437.44552612304688
589340.42643356323242
587291.84542846679688
585281.78682518005371
513829.61641120910645
512070.1424503326416
510304.29980278015137
508531.26685333251953
506750.64544486999512
504963.92267799377441
503172.80222129821777
501376.13054275512695
499570.48515701293945
497754.28839302062988
495930.47871971130371
494103.94102668762207
492277.72763824462891
490451.90816688537598
488624.45192718505859
486791.36013984680176
484946.62640762329102
483084.67866325378418
481204.52979850769043
479311.72840881347656
477415.97517967224121
475525.48186874389648
473641.53204345703125
471757.32480239868164
469863.08974075317383
467954.19375610351562
466034.84384536743164
464113.89715766906738
462198.4571590423584
460291.88246536254883
458396.4312915802002
456515.46014022827148
454653.8804874420166
452819.13579177856445
451021.71243095397949
449272.39839172363281
447577.09018707275391
445933.30778503417969
444330.13076210021973
442751.99041748046875
441185.17717933654785
439623.50813865661621
438069.61557769775391
436531.31622886657715
435016.21758651733398
433527.75254249572754
432064.17592239379883
430620.85770416259766
429194.46858215332031
427785.82848358154297
426398.54880714416504
425035.24375343322754
423695.6985969543457
422377.99038505554199
421080.10061645507812
419799.46460723876953
418531.58102798461914
417270.62254524230957
416012.15998649597168
414755.49226570129395
413503.0820369720459
412256.93496322631836
411015.1126537322998
409771.08561134338379
408516.56589698791504
407245.60237503051758
405956.77173614501953
404652.09127807617188
403333.70274543762207
402001.80984497070312
400655.42893600463867
399293.33398628234863
397913.34612846374512
396511.71797180175781
395084.87053108215332
393632.63286209106445
392159.37272834777832
390671.05689811706543
389170.8253002166748
387657.63190650939941
386128.6743221282959
384581.82034301757812
383015.16790390014648
381425.52323532104492
379808.97617149353027
378163.60182952880859
376491.41556549072266
374798.10066986083984
373091.45069885253906
371379.24986839294434
369667.23452568054199
367957.93489456176758
366251.00958633422852
364544.7327709197998
362837.55352783203125
361129.00332641601562
359419.29514312744141
357708.7241325378418
355998.48637390136719
354292.71881866455078
352598.94730186462402
350925.34902000427246
349277.38427734375
347656.71156692504883
346062.05253028869629
344490.12289810180664
342936.7215518951416
341398.2171516418457
339872.21484184265137
338356.5508975982666
336848.21134948730469
335344.77123641967773
333847.29114151000977
332360.97307777404785
330891.76270484924316
329442.04973793029785
328009.37103080749512
326589.21586036682129
325179.68767166137695
323783.93518829345703
322407.82279205322266
321054.80314826965332
319722.96542739868164
318406.56943321228027
317100.05046272277832
315800.50444793701172
314506.94884872436523
313218.19729232788086
311932.15132522583008
310647.12065124511719
309363.61334228515625
308084.15071487426758
306810.8541145324707
305543.10028076171875
304276.93440628051758
303006.31453323364258
301724.67748260498047
300425.75736999511719
299103.70587348937988
297753.74735641479492
296373.97422027587891
294967.14779663085938
293541.1894359588623
292107.02359771728516
290674.49522018432617
289248.37881851196289
287826.84847831726074
286403.39709663391113
284970.50400161743164
283522.18070602416992
282054.48416328430176
280564.77216148376465
279051.6562328338623
277515.92666053771973
275961.1193962097168
274392.54805946350098
272815.30231285095215
271233.1254997253418
269648.78646850585938
268065.20634078979492
266486.2298583984375
264916.4233341217041
263359.92792320251465
261819.00533676147461
260293.24994277954102
258780.35565185546875
257278.02349090576172
255785.64374542236328
254304.50359535217285
252836.6218090057373
251383.57986640930176
249946.49234199523926
248526.79269027709961
247126.71639251708984
245749.06197166442871
244396.54492378234863
243071.21859741210938
241774.04020118713379
240505.0534725189209
239264.47842025756836
238054.00177955627441
236876.67258262634277
235734.75666236877441
234627.16312026977539
233548.53145599365234
232490.90486526489258
231446.90857315063477
230412.5062255859375
229387.78645515441895
228375.56960296630859
227378.76676177978516
226398.2475757598877
225432.58432579040527
224479.38316917419434
223536.74600028991699
222603.58485221862793
221679.08406448364258
220762.48727226257324
219853.50849914550781
218952.64700889587402
218060.83161354064941
217178.71881866455078
216306.19122886657715
215442.02507400512695
214583.63340759277344
213727.05077934265137
212867.52156829833984
212000.65946006774902
211123.26542091369629
210233.00647163391113
209327.36519432067871
208403.46439933776855
207459.35347557067871
206495.74000549316406
205516.12514305114746
204524.66741752624512
203523.32100486755371
202510.62163543701172
201483.00460624694824
200437.52795028686523
199373.96914863586426
198295.31760025024414
197207.0595703125
196116.13174629211426
195029.95642471313477
193955.39859771728516
192897.71759414672852
191859.67179298400879
190841.08111763000488
189839.02744483947754
188849.0999641418457
187867.59181976318359
186893.71490478515625
185930.34367179870605
184982.54046630859375
184054.9837703704834
183150.21937370300293
182268.80398750305176
181410.78410339355469
180576.82457160949707
179768.15744209289551
178985.96957969665527
178231.35483741760254
177505.99945831298828
176812.75693321228027
176155.18142318725586
175536.4911060333252
174958.89591217041016
174423.79008293151855
173932.29240036010742
173485.31292343139648
173082.93830871582031
172723.82199287414551
172404.9792308807373
1120571.1072063446045
1093040.0569458007812
1080432.4213733673096
1071134.4460563659668
1063956.3155879974365
1057962.5263023376465
1052458.1664943695068
1047174.5631484985352
1041923.0274143218994
1036601.1644763946533
1031174.2972564697266
1025712.0532093048096
1020337.4923553466797
1015134.3531970977783
1010146.1904850006104
1005403.4835910797119
1000889.6894245147705
996580.6095085144043
992476.58484840393066
988529.06223297119141
984685.84638786315918
980940.41213417053223
977315.11362838745117
973816.18029594421387
970442.38712310791016
967218.35821914672852
964170.02127838134766
961322.76253128051758
958720.13746070861816
956388.91821670532227
954325.62240600585938
952503.39574432373047
950886.7121524810791
949432.47245788574219
948080.8554573059082
946789.94475936889648
945529.10896682739258
944256.95669364929199
942944.49852180480957
941579.38388824462891
940145.69723510742188
938632.67878913879395
937027.05301666259766
935320.6264705657959
933505.93334579467773
931584.43720436096191
929558.5433235168457
927426.11027526855469
925187.14687156677246
922843.1700611114502
920391.48850631713867
917822.53924560546875
915135.28497695922852
912330.90088653564453
909418.51388740539551
906417.67270660400391
903352.0601634979248
900246.07962608337402
897123.13497924804688
894012.44332885742188
890959.70559883117676
888015.60631942749023
885210.05184364318848
882536.16385459899902
879966.73454475402832
877472.32603454589844
875035.20061492919922
872643.07853507995605
870289.44034385681152
867969.15326690673828
865674.50937271118164
863383.00871658325195
861067.12250518798828
858718.09140205383301
856349.65691947937012
853974.3911075592041
851583.60907554626465
849152.5028076171875
846659.87428855895996
844099.26069259643555
841479.27526664733887
838823.75992012023926
836159.78311347961426
833501.2059383392334
830842.78220176696777
828179.59777641296387
825517.02395820617676
822868.2409610748291
820248.23154449462891
817671.12020301818848
815147.21614074707031
812681.72047424316406
810272.52054214477539
807913.62491798400879
805605.08137893676758
803356.60917282104492
801175.05830955505371
799048.82901573181152
796951.58226013183594
794856.71475028991699
792748.95338821411133
790631.30721855163574
788518.80636787414551
786422.65471839904785
784342.70029830932617
782272.75304794311523
780206.31119155883789
778133.88373756408691
776039.87025260925293
773908.79916381835938
771732.09514045715332
769510.29964828491211
767249.60455131530762
764951.22459411621094
762608.02206611633301
760216.9889030456543
757786.49821853637695
755325.55669593811035
752827.23603630065918
750269.73851013183594
747631.03700256347656
744903.82407188415527
742099.33025741577148
739241.69437980651855
736353.60885810852051
733445.31701278686523
730518.81833076477051
727577.68759346008301
724633.39763069152832
721707.31747627258301
718827.21701240539551
716017.67839431762695
713289.87780570983887
710638.37755393981934
708050.50033950805664
705520.76915550231934
703053.22596740722656
700652.91684532165527
698319.93138694763184
696051.29329109191895
693843.73675727844238
691694.50425148010254
689598.98213386535645
687543.33404159545898
685505.6821460723877
683470.41489028930664
681437.94780921936035
679416.74776268005371
677408.38464736938477
675399.75914573669434
673368.45614624023438
671293.47324371337891
669163.54019165039062
666979.99175643920898
664750.80931091308594
662483.80801391601562
660186.89229011535645
657870.48871994018555
655544.75615882873535
653210.95109367370605
650855.04619789123535
648455.46874618530273
646000.05272102355957
643494.21272850036621
640955.44191932678223
638401.30181121826172
635838.85678100585938
633263.3303050994873
630667.46854972839355
628053.62583541870117
625434.68047904968262
622824.26405334472656
620231.27192878723145
617662.01485824584961
615120.3127498626709
612604.7175464630127
610112.28937530517578
607644.6135368347168
605206.44585227966309
602801.43572807312012
600432.74337005615234
598104.83057403564453
595823.01790618896484
593592.86423301696777
591418.04528617858887
589296.63102149963379
587220.99951171875
585184.11375045776367
583183.94156646728516
515677.77116012573242
513902.82034683227539
512122.38337898254395
510336.06194877624512
508541.9576358795166
506739.2441577911377
504930.60433959960938
503119.67800903320312
501305.66658973693848
499483.12982559204102
497647.99149131774902
495801.85797691345215
493950.41900444030762
492098.8797779083252
490249.44185447692871
488401.01043701171875
486549.20727348327637
484687.18967056274414
482808.88571739196777
480913.74362945556641
479008.50825500488281
477103.68019676208496
475207.12179756164551
473318.9906063079834
471431.24822235107422
469532.59877014160156
467616.40260314941406
465685.47655296325684
463748.9909610748291
461815.41976928710938
459889.51959609985352
457974.20238304138184
456072.46688079833984
454188.67219161987305
452331.10222434997559
450513.10068511962891
448748.48171043395996
447043.57318305969238
445392.85257911682129
443781.55976104736328
442192.45505714416504
440612.76854705810547
439038.5028190612793
437474.02203750610352
435927.65394401550293
434406.49992179870605
432913.31492042541504
431446.01256942749023
429999.60594367980957
428569.95348358154297
427156.60443496704102
425763.00119781494141
424394.61272430419922
423055.96573066711426
421748.6271858215332
420470.44583129882812
419215.9550838470459
417977.5445556640625
416747.46492385864258
415519.86017608642578
414291.84513282775879
413063.29697608947754
411835.25018310546875
410607.47715950012207
409376.48664093017578
408135.9264030456543
406879.59077835083008
405604.60720252990723
404312.25580215454102
403005.46951866149902
401685.9799919128418
400353.71419143676758
399007.93911743164062
397647.01803588867188
396266.78359603881836
394861.47327041625977
393428.07346534729004
391969.29181480407715
390490.86943626403809
388996.32886123657227
387485.13540267944336
385955.2817211151123
384405.38986015319824
382833.45285034179688
381235.24554252624512
379605.90065765380859
377943.47150993347168
376250.97976112365723
374535.56575012207031
372806.41900634765625
371072.42942237854004
369339.8520679473877
367610.31415367126465
365881.37349128723145
364149.87630844116211
362415.48139953613281
360680.97221183776855
358949.3077392578125
357221.12405586242676
355495.82453155517578
353775.23769378662109
352065.52028274536133
350375.26089286804199
348711.83406066894531
347078.99183464050293
345476.30046272277832
343900.0804615020752
342345.61536407470703
340809.67756271362305
339290.91402053833008
337787.56046485900879
336295.83176803588867
334811.58947563171387
333334.02231788635254
331867.11092948913574
330416.79716491699219
328986.52640914916992
327575.15584373474121
326179.00181007385254
324796.32172966003418
323429.86490058898926
322084.82014274597168
320763.91920852661133
319464.59053993225098
318180.62796592712402
316905.93445587158203
315636.59906196594238
314370.02327728271484
313103.33675003051758
311833.8188533782959
310561.08077621459961
309288.36036491394043
308020.94448661804199
306762.81813812255859
305513.77720642089844
304268.99305534362793
303020.60898017883301
301760.00067901611328
300479.60000419616699
299173.7290153503418
297838.94146156311035
296474.57850646972656
295083.76507377624512
293673.47774696350098
292252.81706428527832
290829.56750869750977
289407.12485504150391
287983.96562004089355
286555.77898979187012
285118.18892669677734
283667.91452407836914
282202.18187522888184
280718.08743667602539
279213.39839553833008
277688.22107315063477
276145.66609573364258
274590.52398300170898
273027.16768836975098
271458.65309906005859
269887.40337181091309
268316.1457576751709
266748.29541778564453
265187.64168357849121
263637.39665412902832
262099.15777778625488
260572.70732879638672
259056.94624519348145
257551.29372978210449
256056.31785583496094
254573.32524299621582
253103.50180053710938
251647.6988582611084
250206.97948455810547
248783.14259719848633
247378.5622615814209
245995.54462623596191
244635.99687004089355
243301.45682144165039
241993.06503677368164
240711.55695343017578
239457.89605522155762
238234.07175254821777
237042.96835517883301
235886.75383949279785
234764.65316581726074
233671.96075820922852
232601.17202949523926
231544.7296028137207
230497.8152027130127
229459.80345344543457
228433.58961486816406
227423.08095359802246
226430.55788612365723
225455.59988594055176
224496.07987022399902
223549.87932777404785
222615.83298873901367
221693.48386001586914
220782.39620399475098
219881.96333312988281
218991.68591690063477
218111.39815521240234
217241.19679641723633
216381.1177864074707
215530.47160339355469
214686.87825012207031
213845.66536331176758
213000.61130142211914
212145.93939971923828
211277.95424270629883
210395.02188873291016
209496.15867042541504
208579.96846961975098
207645.29158210754395
206692.7677001953125
205725.34821510314941
204746.59483337402344
203757.84516334533691
202756.90329933166504
201739.41873931884766
200701.80851554870605
199643.71651840209961
198568.34946250915527
197481.13620948791504
196388.30839538574219
195296.4761905670166
194212.84085464477539
193144.79118347167969
192098.2241268157959
191075.08840370178223
190072.17502212524414
189082.72830009460449
188100.36431312561035
187122.66826057434082
186152.28033256530762
185194.97202301025391
184256.50560760498047
183340.63692665100098
182449.13683319091797
181582.92096138000488
180742.79555320739746
179929.20067405700684
179141.67668914794922
178379.23653602600098
177641.82728385925293
176931.67718696594238
176253.32121467590332
175612.04997253417969
175012.20475006103516
174456.6140022277832
173947.13643836975098
173485.24307060241699
173071.83986282348633
172706.26507377624512
172385.33976173400879
1091187.5486106872559
1076144.6303653717041
1069113.5245418548584
1062829.5582237243652
1057258.9244899749756
1052208.4876518249512
1047517.6685752868652
1043022.589527130127
1038560.5248394012451
1033975.7791690826416
1029223.8191165924072
1024262.3803844451904
1019124.4491291046143
1013940.1525993347168
1008831.3936996459961
1003915.028018951416
999261.52823638916016
994887.58671951293945
990786.16438674926758
986929.13068771362305
983290.3530445098877
979822.60523796081543
976494.98227691650391
973308.59281921386719
970221.20445251464844
967221.40015029907227
964321.06371307373047
961538.35260009765625
958918.6677131652832
956516.62997055053711
954361.46442985534668
952449.94731903076172
950759.42472457885742
949244.35359191894531
947853.61367416381836
946552.66645240783691
945319.94718360900879
944114.84551811218262
942885.72535514831543
941588.83731079101562
940194.58765602111816
938684.85005569458008
937045.6472339630127
935272.23825263977051
933368.22943496704102
931337.45917510986328
929186.56568145751953
926926.24754524230957
924560.26326179504395
922087.52030563354492
919512.73348617553711
916839.66493988037109
914072.0128059387207
911217.68879508972168
908285.01216697692871
905280.64736557006836
902215.22163963317871
899104.95186996459961
895974.70879364013672
892866.52522468566895
889825.56281280517578
886894.07305717468262
884096.69270133972168
881432.6087703704834
878880.72229766845703
876415.7503833770752
874020.20672988891602
871684.60767555236816
869401.91526031494141
867160.67954635620117
864943.85289573669434
862727.31361198425293
860493.55255508422852
858241.36357879638672
855986.32780075073242
853739.50002288818359
851487.24862480163574
849200.53002738952637
846845.47477149963379
844404.24587440490723
841883.23418617248535
839314.16727066040039
836730.32694244384766
834140.30869483947754
831530.46014213562012
828889.0334529876709
826223.56857681274414
823561.80839347839355
820929.6949348449707
818339.6494140625
815795.61817932128906
813298.87680244445801
810845.38299751281738
808429.69854354858398
806051.46042251586914
803718.78960227966309
801436.89558601379395
799196.91706275939941
796980.30097579956055
794768.96521949768066
792550.58498382568359
790324.5449104309082
788102.52256965637207
785896.84141159057617
783709.36579322814941
781533.64318084716797
779362.18121147155762
777190.42202568054199
775012.43099784851074
772818.56576728820801
770597.49914932250977
768343.52460670471191
766058.7475414276123
763742.38811683654785
761389.83013534545898
759004.01968193054199
756596.73244857788086
754173.41584396362305
751719.67990493774414
749207.69486427307129
746615.44834899902344
743937.01428985595703
741181.45013427734375
738367.16335868835449
735512.27880477905273
732626.45450210571289
729710.32918167114258
726765.07977485656738
723802.1887264251709
720846.55735397338867
717931.47411918640137
715087.58714485168457
712329.7863712310791
709651.14157485961914
707034.54986000061035
704470.4592342376709
701961.8913516998291
699515.89836883544922
697136.53316116333008
694824.9288330078125
692580.57973480224609
690402.92826843261719
688288.92725372314453
686224.00878715515137
684181.61768341064453
682140.65541076660156
680099.70392990112305
678069.50126457214355
676054.76865005493164
674045.43986892700195
672021.64785575866699
669964.07056427001953
667862.38863182067871
665716.83989715576172
663532.22315979003906
661314.28315544128418
659071.45150184631348
656814.60554695129395
654551.20325088500977
652278.71409034729004
649983.79426574707031
647650.71703147888184
645273.06977653503418
642856.55257606506348
640414.61615371704102
637961.19879341125488
635502.97635459899902
633034.02881050109863
630541.59549713134766
628020.74435615539551
625481.78085517883301
622942.0800609588623
620416.16172027587891
617912.04704284667969
615429.23979377746582
612959.84611511230469
610497.6070613861084
608046.26007080078125
605616.68016052246094
603218.74375152587891
600858.3421459197998
598537.50790023803711
596254.37076377868652
594006.56683921813965
591795.74367141723633
589625.55987358093262
587497.01929473876953
585409.23950386047363
583362.55451393127441
515860.11150932312012
514062.8552074432373
512261.37031555175781
510452.5522575378418
508632.05472564697266
506799.38622856140137
504960.53483581542969
503122.5439338684082
501285.69885444641113
499443.13642692565918
497587.9313793182373
495718.84477043151855
493840.0699348449707
491957.96424102783203
490077.53239250183105
488199.76323699951172
486320.79976844787598
484433.99250984191895
482533.94137001037598
480620.42856788635254
478699.79157829284668
476781.74680328369141
474873.84157371520996
472976.81092643737793
471083.33050346374512
469181.68994903564453
467263.80929756164551
465330.98371887207031
463391.47010040283203
461453.33037185668945
459521.16269493103027
457597.9032154083252
455686.7593994140625
453792.39338684082031
451923.59137344360352
450094.34697723388672
448318.51210594177246
446600.87191009521484
444933.30416488647461
443299.50848960876465
441683.85999488830566
440077.85824012756348
438481.32115745544434
436899.73592185974121
435340.41864013671875
433808.89782905578613
432306.42896842956543
430830.23794937133789
429376.03654098510742
427940.97737503051758
426525.0523853302002
425131.29738235473633
423765.50249862670898
422434.37031173706055
421141.24972534179688
419883.01989936828613
418651.48670959472656
417437.66656875610352
416234.10687828063965
415034.30916404724121
413832.65491676330566
412626.3160343170166
411416.07081413269043
410203.81549453735352
408988.54677772521973
407764.8737907409668
406525.68881797790527
405266.50645446777344
403987.52181053161621
402691.95947647094727
401382.86615943908691
400061.91194915771484
398729.87885856628418
397385.8233470916748
396024.98508644104004
394639.73448181152344
393224.67493438720703
391780.58671760559082
390312.18721580505371
388822.7562141418457
387312.22625160217285
385779.58858871459961
384224.70922088623047
382646.62836837768555
381041.39820861816406
379403.89948272705078
377732.08824348449707
376029.30483818054199
374303.1353588104248
372562.85935020446777
370817.15014839172363
369071.76146697998047
367327.56729316711426
365581.28619384765625
363829.62556457519531
362073.54548645019531
360318.35369110107422
358569.53569793701172
356828.79962539672852
355094.57625198364258
353366.28101348876953
351647.68657875061035
349946.46381950378418
348270.9268627166748
346626.51462936401367
345013.80950164794922
343429.36502647399902
341868.82421875
340329.82643699645996
338811.86841011047363
337313.73974990844727
335831.83852005004883
334362.05102157592773
332903.32002258300781
331458.85488891601562
330033.8237419128418
328631.34393882751465
327250.45672225952148
325887.82010078430176
324541.58740997314453
323213.52998352050781
321907.00627326965332
320622.96075630187988
319358.15594673156738
318106.79552268981934
316863.20656585693359
315622.61726379394531
314380.20541000366211
313131.03604698181152
311872.1656665802002
310605.31932067871094
309336.99856758117676
308075.40324592590332
306826.10710906982422
305589.28713035583496
304359.51348304748535
303127.47350120544434
301882.79739570617676
300616.90987205505371
299324.46390342712402
298003.21953964233398
296653.67525291442871
295279.17222595214844
293885.82488059997559
292480.85349273681641
291069.69659233093262
289653.97305488586426
288232.03737449645996
286801.33224868774414
285360.2358570098877
283907.90029907226562
282442.86795425415039
280962.70262145996094
279465.42531204223633
277951.56787490844727
276424.55705261230469
274888.7196216583252
273347.03559112548828
271800.87360000610352
270251.28000831604004
268700.11200523376465
267150.06078338623047
265604.04854965209961
264064.51629638671875
262532.85877227783203
261009.38571166992188
259494.12982368469238
257987.66954040527344
256491.27543258666992
255006.37322235107422
253534.13594245910645
252075.63323593139648
250632.29398345947266
249206.03594017028809
247798.84709548950195
246412.21881484985352
245047.10116577148438
243704.24214935302734
242384.49878883361816
241089.04416084289551
239819.52314949035645
238578.23664283752441
237367.93979835510254
236190.73649787902832
235046.59501457214355
233932.35451507568359
232842.11286735534668
231769.08147811889648
230708.13288497924805
229657.69070816040039
228619.83382415771484
227598.39247703552246
226596.2038459777832
225613.52686309814453
224648.49586868286133
223698.98608016967773
222763.97780609130859
221843.28977203369141
220936.52263450622559
220042.4595775604248
219159.43756484985352
218286.20576286315918
217422.49943733215332
216568.84062957763672
215725.35458374023438
214890.159912109375
214058.42769241333008
213223.29583740234375
212378.30884552001953
211519.64598083496094
210646.19430160522461
209757.72911262512207
208853.28303337097168
207931.56294441223145
206992.74775505065918
206039.27945137023926
205074.35174179077148
204099.11235809326172
203111.11017608642578
202105.40375518798828
201077.73326683044434
200027.37802886962891
198957.75644493103027
197874.62725448608398
196783.85132026672363
195690.86543846130371
194601.99465560913086
193525.43187713623047
192469.67132759094238
191439.66860961914062
190433.86572074890137
189445.06680679321289
188464.97353744506836
187489.19315147399902
186519.12640190124512
185560.11668586730957
184617.9952564239502
183696.72406387329102
182798.22517013549805
181923.57376670837402
181074.06645774841309
180251.01402282714844
179454.85303688049316
178684.94467163085938
177940.66843223571777
177223.0818920135498
176535.63927459716797
175883.14972686767578
175269.8928108215332
174698.51383209228516
174170.58246612548828
173687.91755294799805
173253.03509330749512
172867.9380931854248
172532.13119697570801
172241.41995620727539
1109762.4724178314209
1086285.4878902435303
1075007.3165950775146
1065897.9548149108887
1058122.9828433990479
1051421.190279006958
1045619.4228172302246
1040465.26389503479
1035744.7014064788818