/*--------------------------------*- C++ -*----------------------------------*\
  =========                 |
  \\      /  F ield         | OpenFOAM: The Open Source CFD Toolbox
   \\    /   O peration     | Website:  https://openfoam.org
    \\  /    A nd           | Version:  13
     \\/     M anipulation  |
\*---------------------------------------------------------------------------*/
FoamFile
{
    format      binary;
    class       LagrangianScalarField;
    location    "0.02/Lagrangian/particle";
    object      d;
}
// * * * * * * * * * * * * * * * * * * * * * * * * * * * * * * * * * * * * * //

dimensions      [0 1 0 0 0 0 0];

internalField   uniform 0.0005;

boundaryField
{
    inlet
    {
        type            calculated;
    }
    outlet
    {
        type            calculated;
    }
    bottom
    {
        type            calculated;
    }
    top
    {
        type            calculated;
    }
    frontAndBack
    {
        type            empty;
    }
}

sources
{
    patchInjection
    {
        type            uniformFixedValue;
        uniformValue    
        {
            type            constant;
            value           0.0005;
        }
    }
    volumeInjection
    {
        type            distribution;
        distribution    
        {
            type            RosinRammler;
            Q               0;
            min             0.0001;
            max             0.0015;
            d               0.0014;
            n               2;
            rndGen          24539125527310;
        }
    }
    diskInjection
    {
        type            uniformFixedValue;
        uniformValue    
        {
            type            constant;
            value           0.0005;
        }
    }
}


// ************************************************************************* //
