/*--------------------------------*- C++ -*----------------------------------*\
  =========                 |
  \\      /  F ield         | OpenFOAM: The Open Source CFD Toolbox
   \\    /   O peration     | Website:  https://openfoam.org
    \\  /    A nd           | Version:  12
     \\/     M anipulation  |
\*---------------------------------------------------------------------------*/
FoamFile
{
    format      ascii;
    class       volScalarField;
    location    "0.0135";
    object      pPrime2Mean;
}
// * * * * * * * * * * * * * * * * * * * * * * * * * * * * * * * * * * * * * //

dimensions      [2 -2 -4 0 0 0 0];

internalField   nonuniform List<scalar> 
75962
(
1422133.5626888275146
1401714.6715888977051
1393190.2963485717773
1387459.3537120819092
1383158.5044364929199
1379528.9844169616699
1376170.4958839416504
1372942.7662029266357
1369843.7413883209229
1366852.0296249389648
1363945.0101280212402
1361111.9848728179932
1358339.922924041748
1355635.8203887939453
1353068.365795135498
1350714.1138401031494
1348561.8228034973145
1346560.4583530426025
1344640.2499923706055
1342740.6982173919678
1340835.5513896942139
1338922.7732791900635
1337041.9492378234863
1335233.5316791534424
1333524.8600120544434
1331945.8469257354736
1330524.9090518951416
1329278.0004425048828
1328208.0332145690918
1327284.2272758483887
1326463.2729263305664
1325709.3020610809326
1324989.9484043121338
1324289.6407051086426
1323604.1483249664307
1322915.6583232879639
1322199.9233531951904
1321456.0064449310303
1320686.7585735321045
1319905.7652263641357
1319128.0687618255615
1318352.7419166564941
1317566.4641895294189
1316752.0969390869141
1315894.7714996337891
1314989.5419311523438
1314041.6920795440674
1313057.2879829406738
1312035.0925273895264
1310959.7331352233887
1309814.5709037780762
1308603.4212455749512
1307335.1126499176025
1306016.0316791534424
1304657.9420204162598
1303270.3211784362793
1301857.6925029754639
1300430.9216423034668
1299009.8414039611816
1297615.6108703613281
1296263.6360645294189
1294955.7394161224365
1293682.2683696746826
1292428.1720790863037
1291183.4563083648682
1289949.1135444641113
1288724.69948387146
1287506.8364715576172
1286290.380786895752
1285069.4243450164795
1283843.5939979553223
1282611.0093040466309
1281359.159158706665
1280078.9790840148926
1278774.1204261779785
1277455.5820503234863
1276136.9434680938721
1274824.2933654785156
1273516.1484928131104
1272203.0788116455078
1270877.975887298584
1269543.7444458007812
1268207.2912425994873
1266874.108081817627
1265545.3141574859619
1264220.4932441711426
1262899.8718814849854
1261586.4904727935791
1260286.9179172515869
1259011.2722644805908
1257767.3789176940918
1256555.5209465026855
1255371.4728679656982
1254214.6749782562256
1253093.1977481842041
1252016.4579467773438
1250984.5073528289795
1249985.2562160491943
1249005.4375915527344
1248034.576732635498
1247066.7910327911377
1246100.4244441986084
1245135.9811115264893
1244172.3135452270508
1243204.4677810668945
1242228.9506034851074
1241244.8429183959961
1240250.7464199066162
1239241.489444732666
1238208.8089580535889
1237144.621789932251
1236046.7006893157959
1234916.2132530212402
1233752.8837642669678
1232552.4042148590088
1231308.1870346069336
1230017.6481094360352
1228682.9532146453857
1227307.3290977478027
1225892.8251056671143
1224440.3353290557861
1222951.1766948699951
1221429.3626823425293
1219879.7769680023193
1218305.0822792053223
1216708.3882102966309
1215095.0128021240234
1213472.2354698181152
1211845.4931411743164
1210218.680835723877
1208598.4019737243652
1206995.1646289825439
1205420.2585506439209
1203882.2256622314453
1202383.3369159698486
1200921.3307514190674
1199492.934549331665
1198096.1223583221436
1196732.8056373596191
1195408.3645038604736
1194128.1162586212158
1192894.375768661499
1191703.8359413146973
1190547.3142147064209
1189412.4452323913574
1188287.4969482421875
1187164.7219772338867
1186038.4543018341064
1184902.5701713562012
1183750.6534442901611
1182577.1124057769775
1181378.562894821167
1180154.7123641967773
1178906.882791519165
1177636.1290817260742
1176341.2587261199951
1175020.8908176422119
1173675.9045238494873
1172309.3440647125244
1170923.4329891204834
1169516.8454265594482
1168085.5499610900879
1166628.937816619873
1165153.7626857757568
1163670.9026947021484
1162187.2808685302734
1160703.1440315246582
1159215.0451049804688
1157722.9320220947266
1156233.1001091003418
1154752.901346206665
1153283.6426239013672
1151820.6892414093018
1150360.0139045715332
1148903.3700466156006
1147458.0368824005127
1146033.1758880615234
1144635.2098140716553
1143265.8201694488525
1141923.3770732879639
1140604.4584102630615
1139306.5995235443115
1138030.103401184082
1136779.0861721038818
1135558.9088172912598
1134371.5077495574951
1133212.5712242126465
1132073.4212627410889
1090481.8285999298096
1089451.3760242462158
1088415.100606918335
1087367.2196846008301
1086305.0893630981445
1085230.816915512085
1084148.3703384399414
1083059.0954303741455
1081960.7150840759277
1080850.3042182922363
1079727.294979095459
1078594.3946094512939
1077456.3275814056396
1076317.6276035308838
1075180.7055225372314
1074044.1593456268311
1072903.3870449066162
1071752.9618434906006
1070588.7600994110107
1069409.0689125061035
1068214.2392082214355
1067004.9869194030762
1065781.7205581665039
1064545.027286529541
1063297.2606830596924
1062042.5963916778564
1060784.7964820861816
1059525.1443309783936
1058263.0965538024902
1056999.4934768676758
1055738.0774536132812
1054484.392276763916
1053244.4535102844238
1052024.1902389526367
1050828.9247398376465
1049662.0641994476318
1048523.7273597717285
1047409.3852787017822
1046310.7082805633545
1045218.1352024078369
1044125.0576438903809
1043030.925256729126
1041940.6943893432617
1040861.0152053833008
1039796.7554454803467
1038748.568510055542
1037713.1195182800293
1036685.2512302398682
1035661.070556640625
1034641.0282402038574
1033629.8029537200928
1032633.8548793792725
1031657.1693019866943
1030698.5490856170654
1029751.5177536010742
1028806.3951168060303
1027854.3990325927734
1026891.5489101409912
1025920.0024909973145
1024945.9886016845703
1023975.1265392303467
1023008.7358436584473
1022043.6564483642578
1021074.944450378418
1020099.3176021575928
1019116.6101703643799
1018128.6272125244141
1017137.1859493255615
1016142.1833686828613
1015141.9153308868408
1014135.1479949951172
1013122.4518299102783
1012105.5901432037354
1011085.3187103271484
1010060.7858428955078
1009030.3480529785156
1007992.586353302002
1006947.0993461608887
1005894.3612174987793
1004835.7932968139648
1003773.1464366912842
1002706.9321327209473
1001635.041633605957
1000552.6507720947266
999454.53976631164551
998337.59574890136719
997202.53265953063965
996053.57052040100098
994896.16462898254395
993733.74250984191895
992565.58993530273438
991388.84400367736816
990202.14328002929688
989008.24616813659668
987813.09649276733398
986622.5269889831543
985438.49886703491211
984257.90100288391113
983074.92097854614258
981885.17730140686035
980688.79540252685547
979490.3500804901123
978296.14639472961426
977111.93501472473145
975941.35311317443848
974785.11534881591797
973641.80754852294922
972509.4948673248291
971387.06744003295898
970274.01166534423828
969169.77530670166016
968074.05595016479492
966987.80792045593262
965913.0261058807373
964851.22353744506836
963802.15196800231934
962764.01208305358887
961735.14219093322754
960715.70406532287598
959707.84275817871094
958714.09365463256836
957735.43572425842285
956770.62748908996582
955817.35895729064941
954873.40348815917969
953937.08290100097656
953006.82130432128906
952080.61002731323242
951156.27834510803223
950232.10368156433105
949307.68540191650391
948383.7215690612793
947460.70113182067871
946537.61972618103027
945611.10638999938965
944676.58277320861816
943729.65876388549805
942767.0120792388916
941786.19465827941895
940785.67339706420898
939765.45321083068848
938727.82736206054688
937677.31998062133789
936619.39947319030762
935558.78362083435059
934498.12771415710449
933437.97192573547363
932377.43157005310059
931315.41689109802246
930250.80051231384277
929181.8253288269043
928105.59347724914551
927018.88841438293457
925919.69534873962402
924808.71499633789062
923689.21996879577637
922565.3370532989502
921440.64031600952148
920317.69206619262695
919198.58640098571777
918085.35604286193848
916980.14291000366211
915884.16585922241211
914796.99687576293945
913716.5101490020752
912640.47879600524902
911568.21890830993652
910501.08294677734375
909441.66830635070801
908392.4747314453125
907354.96872901916504
906329.6136360168457
905316.46094703674316
904315.6336669921875
903327.41110420227051
902352.20904350280762
901390.1475944519043
900441.14895057678223
899504.92401313781738
898581.309814453125
897670.38354110717773
896772.17074966430664
895886.08137512207031
895010.48266983032227
894142.65657997131348
893279.22980880737305
892417.0355052947998
891554.12281036376953
890690.37459564208984
889827.3519458770752
888967.35392189025879
888112.03693389892578
887261.7501049041748
886415.83625030517578
885573.63201904296875
884735.2948112487793
883901.81681060791016
883074.24343109130859
882252.64602851867676
881435.6042366027832
880620.43308067321777
879803.99343490600586
878983.52894973754883
878157.47633171081543
877325.84834480285645
876489.79371643066406
875650.60945129394531
874808.70486450195312
873963.11116981506348
873111.5830192565918
872251.08766746520996
871378.62530899047852
870492.1876220703125
869591.54439163208008
868678.22141647338867
867754.42112922668457
866821.59528923034668
865879.76845741271973
864927.77279090881348
863964.31037712097168
862988.89837837219238
862002.6090087890625
861008.40204811096191
860010.85864067077637
859015.26615905761719
858026.22776985168457
857046.34677124023438
856075.64319038391113
855111.7655200958252
854150.68332862854004
853188.01147079467773
852220.70725250244141
851248.39653396606445
850273.62837219238281
849300.80018424987793
848334.19434356689453
847376.27315902709961
846427.10035514831543
845485.01089859008789
844547.86098861694336
843613.98982048034668
842682.82223892211914
841755.0988597869873
840832.82478904724121
839918.75240898132324
839015.31443214416504
838123.77153205871582
837243.92049407958984
836374.51199150085449
835513.93502044677734
834660.71323585510254
833813.71853065490723
832972.28407287597656
832136.21405792236328
1435301.4670104980469
1410504.729606628418
1399957.3348121643066
1392233.8513584136963
1386383.254020690918
1381830.0198554992676
1378082.0799522399902
1374743.4334335327148
1371589.1057205200195
1368489.2273254394531
1365374.0226402282715
1362292.5043144226074
1359274.9050159454346
1356324.3714141845703
1353491.6369113922119
1350860.5173530578613
1348468.9268703460693
1346281.5511283874512
1344270.4700031280518
1342403.8551006317139
1340612.9093036651611
1338846.0365543365479
1337106.5196189880371
1335417.3163738250732
1333767.1342315673828
1332155.0134735107422
1330619.9004573822021
1329204.7955322265625
1327944.3492374420166
1326853.7161350250244
1325921.0143527984619
1325120.5137138366699
1324420.7471790313721
1323788.0299873352051
1323195.5317268371582
1322611.548583984375
1322003.6182250976562
1321352.3630180358887
1320648.3483390808105
1319888.8627262115479
1319087.0613422393799
1318255.4606056213379
1317392.0844841003418
1316486.3224048614502
1315526.9366264343262
1314515.3319206237793
1313468.5015277862549
1312399.9838256835938
1311305.701265335083
1310171.8529510498047
1308986.9802989959717
1307748.7010841369629
1306466.299840927124
1305145.934684753418
1303791.4307403564453
1302402.4295139312744
1300979.2645645141602
1299531.0408840179443
1298079.484468460083
1296652.3392295837402
1295271.1646385192871
1293948.5798435211182
1292681.3168411254883
1291453.8668003082275
1290253.8802070617676
1289076.6364631652832
1287919.9264698028564
1286777.5496635437012
1285639.4968605041504
1284495.3002529144287
1283338.4824542999268
1282160.3536720275879
1280950.9508209228516
1279708.0580921173096
1278440.0176181793213
1277158.7589054107666
1275873.6304264068604
1274586.4728221893311
1273293.280891418457
1271988.0302581787109
1270667.0283126831055
1269336.6991996765137
1268009.9544677734375
1266694.702449798584
1265387.1436767578125
1264079.7265319824219
1262770.8011112213135
1261467.1825618743896
1260179.2264995574951
1258918.2544822692871
1257691.8815727233887
1256499.2273654937744
1255334.163890838623
1254193.267032623291
1253081.3002662658691
1252006.7818565368652
1250971.3735618591309
1249967.0254859924316
1248981.814811706543
1248003.5282325744629
1247023.268871307373
1246037.6052055358887
1245049.5615901947021
1244062.3341026306152
1243073.8751487731934
1242079.2948780059814
1241075.8981418609619
1240063.6204509735107
1239040.6340656280518
1238000.6304721832275
1236935.0931720733643
1235836.8061847686768
1234702.3804950714111
1233530.7259559631348
1232321.0105838775635
1231073.764310836792
1229792.1226005554199
1228476.6648197174072
1227123.0336017608643
1225726.6210842132568
1224285.9737129211426
1222803.9061317443848
1221286.3376026153564
1219739.4724979400635
1218168.0828418731689
1216574.9716548919678
1214963.6933326721191
1213339.6788234710693
1211708.2555389404297
1210074.587516784668
1208446.3890247344971
1206832.8509712219238
1205243.954288482666
1203686.3894290924072
1202162.0439033508301
1200671.7359046936035
1199216.4801464080811
1197796.4689998626709
1196412.6546821594238
1195068.5681838989258
1193768.2173366546631
1192514.1738815307617
1191304.9774723052979
1190131.9555568695068
1188980.2179336547852
1187835.8609790802002
1186691.499303817749
1185544.780647277832
1184392.4548988342285
1183229.4235649108887
1182050.7804317474365
1180853.5309886932373
1179637.0667591094971
1178402.5865039825439
1177150.1142196655273
1175876.6812496185303
1174579.2674770355225
1173258.0130844116211
1171916.380184173584
1170557.8559188842773
1169182.2875385284424
1167786.7328968048096
1166370.5412578582764
1164938.445556640625
1163498.1780166625977
1162054.8885498046875
1160608.939323425293
1159156.5729122161865
1157695.9552764892578
1156230.6254959106445
1154766.5007247924805
1153305.9887409210205
1151848.1850662231445
1150392.0100555419922
1148940.1995296478271
1147498.8874340057373
1146075.39381980896
1144676.3213367462158
1143305.3241691589355
1141962.0415477752686
1140642.9427661895752
1139344.6891994476318
1138066.2026290893555
1136810.0793914794922
1135581.5727558135986
1134383.9526557922363
1133214.7047805786133
1132066.3867683410645
1130931.0567893981934
1091609.1588478088379
1090564.6124153137207
1089521.8654193878174
1088474.6575527191162
1087417.0024852752686
1086346.7397041320801
1085266.3963928222656
1084180.2567615509033
1083089.1237144470215
1081989.5068035125732
1080877.5107440948486
1079752.1407356262207
1078616.8924808502197
1077478.3506412506104
1076341.9720764160156
1075209.4234790802002
1074077.3524513244629
1072938.9139518737793
1071787.9424076080322
1070620.8033618927002
1069437.2624797821045
1068239.4994010925293
1067029.8007469177246
1065809.2839202880859
1064578.4120864868164
1063338.2913398742676
1062091.2266273498535
1060839.6194038391113
1059584.2086887359619
1058324.2907390594482
1057060.8540935516357
1055797.5001964569092
1054540.1523456573486
1053295.4315643310547
1052070.0290985107422
1050870.2086753845215
1049699.9543933868408
1048558.8054027557373
1047441.2555332183838
1046337.9929008483887
1045239.4298248291016
1044140.0300464630127
1043040.3727741241455
1041946.0003299713135
1040863.0044898986816
1039794.7121658325195
1038739.894624710083
1037693.6563034057617
1036650.2495002746582
1035606.5692253112793
1034564.3895893096924
1033530.2741680145264
1032512.8358383178711
1031517.7104339599609
1030543.7441883087158
1029582.8825511932373
1028623.8746013641357
1027657.4703216552734
1026680.2826118469238
1025694.9496784210205
1024706.4555702209473
1023718.3989753723145
1022730.7709884643555
1021741.0948925018311
1020747.1381549835205
1019748.1808910369873
1018744.9845943450928
1017738.8126220703125
1016730.2468700408936
1015718.563383102417
1014702.1062660217285
1013679.9997520446777
1012653.6880989074707
1011625.800329208374
1010597.2335968017578
1009566.0884590148926
1008529.0174503326416
1007483.6710166931152
1006429.7687683105469
1005368.8795604705811
1004303.6933212280273
1003236.4664535522461
1002167.2885990142822
1001093.0023612976074
1000007.4516468048096
998904.49276924133301
997781.09971618652344
996638.98079490661621
995483.19157028198242
994319.41131973266602
993151.07241439819336
991977.68560218811035
990796.44978141784668
989605.82541465759277
988408.09448623657227
987209.45728492736816
986016.3648624420166
984831.61987113952637
983652.37495613098145
982472.42633247375488
981286.6453857421875
980094.38372039794922
978899.9025936126709
977709.75739479064941
976529.81080436706543
975363.44665718078613
974211.23555946350098
973072.10197639465332
971944.9908618927002
970830.04026412963867
969727.60107421875
968637.16236877441406
967557.45309066772461
966487.8568172454834
965429.15871620178223
964382.58657073974609
963348.4008674621582
962325.12762641906738
961310.93303108215332
960305.84384155273438
959312.37144660949707
958333.79086685180664
957371.50434112548828
956424.2431526184082
955489.13999176025391
954563.47087669372559
953645.49627685546875
952733.70964050292969
951826.20485305786133
950920.63736343383789
950015.08660507202148
949108.46955680847168
948200.49465751647949
947290.88864135742188
946378.4392261505127
945460.82207870483398
944535.19038963317871
943598.93547630310059
942649.8111515045166
941685.36683654785156
940703.34224891662598
939702.321533203125
938682.88997077941895
937647.99530982971191
936602.03543853759766
935549.43202209472656
934493.3988151550293
933435.68073081970215
932377.0049934387207
931317.63229560852051
930256.97021293640137
929192.70608329772949
928121.1777229309082
927038.78005218505859
925943.71475791931152
924837.00075912475586
923721.90456199645996
922602.61871337890625
921483.07930564880371
920366.66030120849609
919256.03115844726562
918152.77691459655762
917057.34624481201172
915968.99124145507812
914886.11658477783203
913807.2600154876709
912732.27443313598633
911662.57159805297852
910600.66199684143066
909548.75092124938965
908507.83577728271484
907477.69084930419922
906457.62908935546875
905447.32888603210449
904447.07632827758789
903457.72443008422852
902480.25410079956055
901515.24118232727051
900562.9275074005127
899623.12877464294434
898695.68029594421387
897780.49448394775391
896877.3138599395752
895985.27654457092285
895102.53289413452148
894226.33258628845215
893353.47262191772461
892480.93160057067871
891606.68458366394043
890730.47410011291504
889854.14161109924316
888980.8169002532959
888113.4351749420166
887253.35941123962402
886399.99337577819824
885551.56636047363281
884706.43710327148438
883864.17050743103027
883025.51438522338867
882191.38487243652344
881361.81944465637207
880535.41218185424805
879709.64345550537109
878881.92005729675293
878050.56174468994141
877215.14797592163086
876376.06857299804688
875533.6414966583252
874687.49125099182129
873836.36518478393555
872978.22451210021973
872110.48977088928223
871230.34635162353516
870335.68134498596191
869426.15340805053711
868503.411865234375
867570.11761665344238
866628.30849266052246
865678.33011817932129
864718.78906631469727
863747.5235481262207
862763.05262184143066
861765.6272029876709
860757.62060546875
859743.18529891967773
858727.59037399291992
857716.38992500305176
856714.27506828308105
855723.80469703674316
854744.2385311126709
853771.40592575073242
852799.2067699432373
851822.24437522888184
850838.04357528686523
849847.72701644897461
848855.07767295837402
847864.7002067565918
846880.44214630126953
845904.5434455871582
844937.63652420043945
843979.1088752746582
843027.56038093566895
842081.19846153259277
841138.458251953125
840198.844970703125
839263.44864463806152
838334.71812438964844
837415.39047431945801
836507.43076324462891
835611.68159294128418
834728.17714691162109
833856.55542945861816
832996.23666572570801
832146.3045654296875
831305.3409366607666
1414728.5132827758789
1398928.9182472229004
1391877.7828903198242
1385840.9969100952148
1380829.7406578063965
1376776.4728412628174
1373495.4791030883789
1370723.9016590118408
1368231.548511505127
1365835.1967697143555
1363382.4807472229004
1360833.6059970855713
1358220.6625080108643
1355585.3607845306396
1352941.1272830963135
1350369.6688499450684
1347943.225040435791
1345678.141622543335
1343593.5219898223877
1341690.9304103851318
1339921.3798866271973
1338215.4120864868164
1336543.0340003967285
1334925.4498310089111
1333359.9274997711182
1331840.8653182983398
1330384.0803890228271
1329024.8288516998291
1327783.7817668914795
1326665.6037502288818
1325674.6738605499268
1324798.4568367004395
1324029.9865493774414
1323345.3830890655518
1322708.7623386383057
1322095.6171264648438
1321488.4419822692871
1320870.3072910308838
1320227.8768978118896
1319536.3344306945801
1318783.4762744903564
1317977.2093734741211
1317117.6381912231445
1316192.111026763916
1315193.2969093322754
1314128.4573211669922
1313018.1954383850098
1311885.2818565368652
1310730.7197418212891
1309539.7112884521484
1308305.8244934082031
1307031.5727825164795
1305724.3522777557373
1304389.3034572601318
1303027.7012805938721
1301633.7812194824219
1300201.3684329986572
1298736.1403865814209
1297258.892484664917
1295802.3148708343506
1294390.2917385101318
1293033.5877323150635
1291731.0024375915527
1290473.2049427032471
1289247.943078994751
1288051.6713581085205
1286886.8806266784668
1285755.9103736877441
1284649.6298160552979
1283550.6448516845703
1282445.5443096160889
1281318.9340534210205
1280161.1865749359131
1278974.9304618835449
1277769.6168346405029
1276555.5977401733398
1275335.1725177764893
1274106.9025974273682
1272864.9619789123535
1271601.7470626831055
1270314.3357620239258
1269011.2484111785889
1267708.7037696838379
1266414.4437923431396
1265122.1091594696045
1263823.0589199066162
1262517.3709945678711
1261215.9464416503906
1259932.1698017120361
1258676.6412086486816
1257456.2039909362793
1256270.8145790100098
1255112.9747447967529
1253976.839448928833
1252863.5913257598877
1251781.658374786377
1250736.4964923858643
1249721.9828090667725
1248724.8634624481201
1247731.0626583099365
1246731.3055572509766
1245724.2501392364502
1244713.9029922485352
1243705.8760299682617
1242700.4235343933105
1241690.5851402282715
1240670.2124557495117
1239640.602388381958
1238605.5331516265869
1237562.5560913085938
1236502.0686702728271
1235411.05104637146
1234282.2566184997559
1233114.1796550750732
1231909.2748069763184
1230673.0886707305908
1229412.5187683105469
1228127.1161842346191
1226807.0037517547607
1225441.1681385040283
1224026.0866107940674
1222566.4233169555664
1221068.8514709472656
1219539.1716423034668
1217981.8995609283447
1216400.2366390228271
1214797.648229598999
1213178.6254997253418
1211548.8650245666504
1209915.0912113189697
1208285.3013439178467
1206668.8249034881592
1205074.0162792205811
1203504.754322052002
1201962.6201782226562
1200449.7855262756348
1198969.2774295806885
1197523.4708671569824
1196114.0768127441406
1194745.0518856048584
1193420.9395542144775
1192143.3695468902588
1190909.7050704956055
1189710.201000213623
1188529.3185958862305
1187353.7603588104248
1186178.0313262939453
1185003.393030166626
1183830.1185493469238
1182654.4714679718018
1181470.8000545501709
1180274.3730869293213
1179063.9563217163086
1177840.0554580688477
1176602.1529197692871
1175347.4238758087158
1174073.3035354614258
1172779.5359058380127
1171468.4878425598145
1170143.3795852661133
1168805.5120162963867
1167454.4415664672852
1166091.272102355957
1164719.20166015625
1163341.5544719696045
1161959.4627456665039
1160570.7340049743652
1159170.8619518280029
1157757.2449779510498
1156331.782600402832
1154899.7641868591309
1153464.8315811157227
1152028.6917953491211
1150592.2731647491455
1149157.2465400695801
1147727.1913108825684
1146307.8035736083984
1144907.1074161529541
1143531.9622421264648
1142184.5329608917236
1140862.4369430541992
1139561.694242477417
1138278.9739379882812
1137014.6363525390625
1135772.4931907653809
1134556.4965667724609
1133366.3820667266846
1132197.4604511260986
1131044.7601146697998
1091696.4207954406738
1090634.7420272827148
1089576.5146350860596
1088514.5305099487305
1087442.4801292419434
1086358.9461860656738
1085267.7131900787354
1084173.5367202758789
1083076.8165893554688
1081973.0119514465332
1080857.2091464996338
1079727.9849243164062
1078588.9411888122559
1077446.6336917877197
1076306.7510375976562
1075170.6823863983154
1074034.5613040924072
1072891.6758708953857
1071735.6529483795166
1070563.1828746795654
1069374.940221786499
1068174.181037902832
1066964.6557750701904
1065748.9593601226807
1064528.4519939422607
1063303.3969135284424
1062073.8774147033691
1060839.7910537719727
1059600.5850715637207
1058355.5404605865479
1057105.5521469116211
1055854.1099128723145
1054606.9189682006836
1053370.5484600067139
1052151.285982131958
1050954.6455574035645
1049784.4039096832275
1048640.2138500213623
1047516.5611248016357
1046404.3750667572021
1045295.4933795928955
1044186.8248634338379
1043080.4733238220215
1041981.59814453125
1040894.6665821075439
1039820.758150100708
1038756.3099155426025
1037695.02907371521
1036631.5750064849854
1035564.4977321624756
1034497.7176361083984
1033439.3863277435303
1032398.9468383789062
1031382.4002799987793
1030388.207555770874
1029407.2779788970947
1028427.7569808959961
1027441.0618495941162
1026445.1705303192139
1025442.9201564788818
1024437.5758056640625
1023429.9744720458984
1022419.2597904205322
1021404.7844848632812
1020387.1214733123779
1019367.2758255004883
1018345.6423206329346
1017322.0684680938721
1016296.045482635498
1015266.8343868255615
1014233.8242988586426
1013196.9610824584961
1012157.9533290863037
1011119.0577220916748
1010080.648962020874
1009040.1602001190186
1007993.8077011108398
1006939.6835556030273
1005878.218864440918
1004811.821533203125
1003743.1846714019775
1002673.9724731445312
1001603.1457405090332
1000526.6791839599609
999438.34344291687012
998332.57089996337891
997207.23921394348145
996064.51461601257324
994908.98485946655273
993745.31775856018066
992576.32231521606445
991402.1192684173584
990221.12776184082031
989032.41168022155762
987837.67144966125488
986641.78471565246582
985450.76872253417969
984268.10605812072754
983092.38385009765625
981918.37785148620605
980740.93409538269043
979558.90871238708496
978375.76071166992188
977197.08270263671875
976027.50732421875
974869.1335506439209
973722.21906852722168
972586.81527137756348
971464.02844047546387
970355.81535911560059
969263.33851623535156
968185.69486045837402
967120.44767951965332
966065.85261344909668
965022.15577697753906
963990.97241592407227
962973.28816795349121
961968.05120468139648
960973.24065399169922
959988.11435508728027
959014.16399192810059
958054.07139587402344
957109.24556922912598
956178.79978370666504
955260.30068016052246
954351.3122386932373
953450.01984596252441
952554.36530303955078
951661.78322219848633
950769.6859188079834
949876.40892601013184
948981.18182373046875
948083.45032691955566
947182.22320365905762
946275.99773788452148
945363.45503044128418
944443.51836013793945
943515.28930473327637
942577.68070793151855
941628.48391532897949
940664.66555404663086
939683.28672409057617
938683.0399341583252
937665.38652992248535
936633.98003387451172
935593.1810302734375
934546.60382843017578
933496.58878707885742
932444.54450988769531
931391.03487205505371
930335.1356372833252
929274.01171875
928204.12628746032715
927123.02985382080078
926030.64045906066895
924929.17178535461426
923821.87735366821289
922712.08787536621094
921602.96854972839355
920497.64067840576172
919398.6269588470459
918306.89715385437012
917221.55004692077637
916140.40722846984863
915061.42419815063477
913984.0078010559082
912909.61026763916016
911841.16581153869629
910781.79574584960938
909733.4885311126709
908696.61018371582031
907670.21313095092773
906652.81939125061035
905643.19192886352539
904641.00196647644043
903646.94697189331055
902662.45000076293945
901689.14789390563965
900728.19477081298828
899779.99312400817871
898844.26628875732422
897920.14350700378418
897006.51926040649414
896102.10047721862793
895205.20454978942871
894313.94378852844238
893426.24734306335449
892539.93098640441895
891653.22748184204102
890765.62301826477051
889878.47318458557129
888994.59770011901855
888117.02267456054688
887247.49992370605469
886385.71370315551758
885529.74051094055176
884677.21012115478516
883826.4596061706543
882977.08134078979492
882129.58011627197266
881284.61637496948242
880442.33316993713379
879602.05501174926758
878762.5619010925293
877922.51885986328125
877080.9138069152832
876236.8950366973877
875389.48297691345215
874537.54527473449707
873679.90713882446289
872815.14007377624512
871941.13575172424316
871055.11718559265137
870154.61736679077148
869238.7867374420166
868309.04285049438477
867368.17743873596191
866418.60317611694336
865460.8674373626709
864493.47268676757812
863513.95585441589355
862520.53414916992188
861513.37232208251953
860494.63962554931641
859467.81278228759766
858437.08764839172363
857407.40922355651855
856384.18587303161621
855372.03058624267578
854372.61457443237305
853383.4028434753418
852398.57378387451172
851411.59018325805664
850418.07859230041504
849417.15163612365723
848410.89799499511719
847402.95198249816895
846397.1743106842041
845396.77065658569336
844404.06838607788086
843420.55478668212891
842446.70260620117188
841481.72289657592773
840523.73674583435059
839570.73753356933594
838621.81771659851074
837677.85172271728516
836741.00454521179199
835813.53603744506836
834896.96964263916016
833992.12336921691895
833099.65283203125
832220.36865043640137
831354.84964179992676
830502.67181587219238
829661.97302055358887
1427917.4762554168701
1405725.2259178161621
1395755.4662780761719
1387989.2912425994873
1381599.0822010040283
1376385.6569690704346
1372141.6897106170654
1368681.2997894287109
1365802.3267879486084
1363269.2339420318604