/*--------------------------------*- C++ -*----------------------------------*\
  =========                 |
  \\      /  F ield         | OpenFOAM: The Open Source CFD Toolbox
   \\    /   O peration     | Website:  https://openfoam.org
    \\  /    A nd           | Version:  12
     \\/     M anipulation  |
\*---------------------------------------------------------------------------*/
FoamFile
{
    format      ascii;
    class       volScalarField;
    location    "0.017";
    object      alphat;
}
// * * * * * * * * * * * * * * * * * * * * * * * * * * * * * * * * * * * * * //

dimensions      [1 -1 -1 0 0 0 0];

internalField   nonuniform List<scalar> 
75962
(
5.7465933376975797383e-07
7.112425721734385928e-07
8.1156381951464782753e-07
8.6482251980518212457e-07
9.2056543853373834201e-07
1.0265575899460261554e-06
1.2065871967008153137e-06
1.3642727016087227461e-06
1.4507003212644019036e-06
1.4844238823961030468e-06
1.5180901343648686732e-06
1.5974876823707157769e-06
1.7450983891443005415e-06
1.8407405961969530494e-06
1.8840448738260776926e-06
1.9421686684782615551e-06
2.0571232871666381142e-06
2.1776054989008216073e-06
2.2848099559104383711e-06
2.3989343748409326023e-06
2.5323925432172417629e-06
2.6675390890305191267e-06
2.7707098986861988739e-06
2.8249968483415855763e-06
2.8564152998748600948e-06
2.9158261371788822882e-06
3.0249671077632178216e-06
3.1137091893170432906e-06
3.1642101063497087192e-06
3.2123860721561397504e-06
3.2945119518150885964e-06
3.4007175527266403838e-06
3.4897019682833682678e-06
3.5416108588010673306e-06
3.5796782936648147049e-06
3.6469662552699422729e-06
3.7611220865252546021e-06
3.8966461903071622494e-06
4.0127874296738553334e-06
4.0890287642177059875e-06
4.1389556989775595707e-06
4.192298605456640115e-06
4.2725433212526319024e-06
4.3788410714199715558e-06
4.4874900840363629633e-06
4.569027678973209972e-06
4.6120398395107873858e-06
4.6323763906430606509e-06
4.6629419593249465308e-06
4.7425372150156073402e-06
4.8813968585819597103e-06
5.0054053736373536234e-06
5.0939088921335628167e-06
5.154473505496856266e-06
5.2077455357513146564e-06
5.2744025855744918521e-06
5.3655882926341848076e-06
5.4776534565312893666e-06
5.5898109047785469398e-06
5.6793213667463323649e-06
5.734463470579800564e-06
5.7642854047278444129e-06
5.7920563084527792381e-06
5.8355622684890247372e-06
5.9006565684458943391e-06
5.9891723997392578666e-06
6.0995612419906138408e-06
6.2213416233172129385e-06
6.3343125756476846404e-06
6.422154824417628457e-06
6.4812564739434736503e-06
6.5197779025539183794e-06
6.5536671095363518985e-06
6.6005409461754059516e-06
6.6747801374565146257e-06
6.7799712884051319633e-06
6.9040182129811105173e-06
7.0223198149822784516e-06
7.1116270173825936457e-06
7.1628445823120626013e-06
7.1824193586067840853e-06
7.1855821907921929131e-06
7.1862233072079566095e-06
7.1931714433036882805e-06
7.2199360479778877892e-06
7.2877383587963017432e-06
7.3497890012669167453e-06
7.3990223419544691818e-06
7.4469145055732729647e-06
7.5047647371850631533e-06
7.5783067735823205825e-06
7.6699263723092512922e-06
7.7805362842238871075e-06
7.9080110438567516594e-06
8.0430603099110847657e-06
8.1684970576521692394e-06
8.2668368298144025575e-06
8.3294067062522021613e-06
8.3597363558025057341e-06
8.3685562091464982465e-06
8.3674486107132827064e-06
8.36351635354123963e-06
8.3602818179915823254e-06
8.3608621331723318511e-06
8.3740077544882168332e-06
8.3984154024007368945e-06
8.4298073761364940933e-06
8.4788361978726183672e-06
8.5531050218773277231e-06
8.6510820477639642674e-06
8.7656668202700299881e-06
8.8899298252262588961e-06
9.0209459238429351435e-06
9.1587541803855377406e-06
9.2984373119005706378e-06
9.4277580170947205543e-06
9.530653334749968468e-06
9.5947207317267480637e-06
9.6203821594448426591e-06
9.6207255434467379567e-06
9.6121097115234291119e-06
9.5887610130249835785e-06
9.5379877195229031001e-06
9.5010663087090857341e-06
9.4801454997398985946e-06
9.4689707883988040883e-06
9.4621581826871604975e-06
9.468718849196635894e-06
9.5156095658356681699e-06
9.6160977329813291335e-06
9.7181764918195796918e-06
9.8183872102470336305e-06
9.9157142217805650152e-06
1.0008579962246065751e-05
1.0095742277460008037e-05
1.0172364218020913046e-05
1.0233218583504551149e-05
1.0272516456337251131e-05
1.0289157973227482139e-05
1.0288877916133928414e-05
1.0282040946911784451e-05
1.0269642314263355962e-05
1.0240205456289117871e-05
1.0213039348123526516e-05
1.019644438747082208e-05
1.0185430070583453182e-05
1.0176630477331967056e-05
1.0176312860896627512e-05
1.0203920256991434742e-05
1.0277582065008666125e-05
1.0366910794707100339e-05
1.0467469317721470184e-05
1.0573219982460585711e-05
1.067600824420918811e-05
1.0769583011237336594e-05
1.0850477298965378848e-05
1.0917035233921582065e-05
1.0968636733283915758e-05
1.1004105574605415441e-05
1.1022357540745212227e-05
1.1026094358662257212e-05
1.1020894103826869444e-05
1.1012192162360819457e-05
1.0994729145290744172e-05
1.0978114667336111066e-05
1.0968470779422550095e-05
1.0963885752017799713e-05
1.0977491943048322837e-05
1.1018194422073398063e-05
1.1046121593303213104e-05
1.1058394413167263419e-05
1.105958840922343686e-05
1.1056048288133718912e-05
1.1054904473236664659e-05
1.1062757811838715659e-05
1.1093355325972674189e-05
1.1181384841165647209e-05
1.12957400290956431e-05
1.1402425343267572213e-05
1.1493909333956755955e-05
1.1565988485811314775e-05
1.1618093051860597418e-05
1.1651450094196848527e-05
1.1668636944999785752e-05
1.1673455819242044802e-05
1.166986979796116247e-05
1.1662459502641045112e-05
1.1653535293554097949e-05
1.248309027078430892e-05
1.2609994158258883503e-05
1.2710726268215147335e-05
1.2788220071302452892e-05
1.2846230819431529426e-05
1.2887408073834482898e-05
1.2914172846426763918e-05
1.2927641401309009742e-05
1.2930363356849477866e-05
1.292558336547315861e-05
1.2917427711704158419e-05
1.2906681237380937018e-05
1.2885641738641523616e-05
1.2831057692502925081e-05
1.2725321147848100742e-05
1.2627351147876988619e-05
1.2547510506573111312e-05
1.2488156169440102925e-05
1.2449264615124055214e-05
1.2426493920655170159e-05
1.2413822582316802622e-05
1.2405833625372247457e-05
1.2408624356572443422e-05
1.2445488235270509597e-05
1.2564940576492448425e-05
1.2701267162866916987e-05
1.2816654328225546199e-05
1.2909604202864470631e-05
1.2980382651929281662e-05
1.3030553618545232046e-05
1.3063330833334123445e-05
1.3081719011852876707e-05
1.3088896664902079843e-05
1.3088493187625738901e-05
1.3084420105445045525e-05
1.3078759882474296934e-05
1.3070922474901887301e-05
1.3053079804314219174e-05
1.300339180738124817e-05
1.2926156007322196282e-05
1.2856763427058622178e-05
1.2798720364253335409e-05
1.2754105681204080052e-05
1.2723245632704824524e-05
1.270385509313553552e-05
1.2691957507566076254e-05
1.2683654142416354903e-05
1.2685500203805155558e-05
1.2722643931713389118e-05
1.284292481487845947e-05
1.2975486081598224132e-05
1.30872939539405975e-05
1.3177332200108095745e-05
1.3245405372351789578e-05
1.3293009437839877919e-05
1.3322512735613102839e-05
1.3337198473631255369e-05
1.3341168221001581493e-05
1.3337737097821055721e-05
1.3329961240975971972e-05
1.3320194297001525428e-05
1.3308893566690970853e-05
1.3296848892245767681e-05
1.3283848365773769451e-05
1.3268274162067752217e-05
1.324415374894284816e-05
1.3190732491539439701e-05
1.3087252358298073662e-05
1.2986648673262694723e-05
1.2901275709128586715e-05
1.2837004394544941752e-05
1.2793858287567473544e-05
1.2768478215558487024e-05
1.2754184948679782728e-05
1.2744080386446031761e-05
1.2739071985399052521e-05
1.2752961191619936697e-05
1.2820100075259481594e-05
1.2912059871140127437e-05
1.2992896786724478852e-05
1.3062055407932493883e-05
1.3119251753972419776e-05
1.31639751300871333e-05
1.3195807928284066792e-05
1.321531197587247808e-05
1.3224296141759065229e-05
1.3224347349121642699e-05
1.3217986919294030543e-05
1.320755151894848216e-05
1.3195949704930348838e-05
1.3183280096911810912e-05
1.3168269300959265455e-05
1.3145694736901551109e-05
1.3097054706831621346e-05
1.3009988456440394879e-05
1.292750525262473539e-05
1.2857146251580957308e-05
1.2801193230741007021e-05
1.2760184700510062287e-05
1.2731897508572250253e-05
1.2713195190741804577e-05
1.2700787652807108165e-05
1.2691192733000902445e-05
1.2682560217267745763e-05
1.2677942394087698863e-05
1.268639019769876926e-05
1.2727682333853242857e-05
1.2782671718011299133e-05
1.2838279467507026006e-05
1.2894548251684565855e-05
1.2949084636618362845e-05
1.2998557508013287368e-05
1.3040575686233242617e-05
1.3072404745088855597e-05
1.3093598525888852586e-05
1.3104330058329536078e-05
1.3106038169575357543e-05
1.310167569575213973e-05
1.3093196722829962721e-05
1.308321299942080828e-05
1.3071628924993809168e-05
1.3055465595281294145e-05
1.302516371663043341e-05
1.2962420797132695894e-05
1.2895702924323590368e-05
1.2836428552853161079e-05
1.2786280302800836399e-05
1.2745696571593685554e-05
1.2714164807280453552e-05
1.2690094628967932765e-05
1.2672315013616798304e-05
1.2659395875819422049e-05
1.264974996590961097e-05
1.2642271148702015839e-05
1.2636080901803474372e-05
1.2631062218457553671e-05
1.2628619705581485897e-05
1.2634988975056873681e-05
1.2663947398634780239e-05
1.2703002377522092277e-05
1.274437721753756115e-05
1.2788213427755107339e-05
1.2832064966664560559e-05
1.2873329053538371062e-05
1.2908833792735237883e-05
1.2936314006680098328e-05
1.2954792530322147641e-05
1.2963907421648368366e-05
1.296534685685142811e-05
1.29607556367643211e-05
1.295281200214389482e-05
1.2943531612649220833e-05
1.2933998147168748776e-05
1.2924149874830489473e-05
1.2911645756698377537e-05
1.2889208531806314284e-05
1.2839697401813162075e-05
1.277966089720686889e-05
1.2724252914068012046e-05
1.2674547077183279228e-05
1.2631578450414942671e-05
1.259537824667161137e-05
1.2565045226759694031e-05
1.2540331561590611993e-05
1.251973358918949942e-05
1.2502820110066086636e-05
1.2488752061504016186e-05
1.2476442495183544609e-05
1.2465744174460769274e-05
1.2457654079072684041e-05
1.2457609589390902221e-05
1.2481240516175682302e-05
1.2551906066384322386e-05
1.2625761599614137456e-05
1.2690744077405078269e-05
1.2744192088036881494e-05
1.2784785181376917277e-05
1.2812291245082516711e-05
1.2827969123492944962e-05
1.2834021089534340589e-05
1.2833081390624985423e-05
1.2827810658301667121e-05
1.2820636592754155236e-05
1.2812835192597249847e-05
1.2804458988197724449e-05
1.2794060339468107097e-05
1.2778024531234928439e-05
1.2744908702553721697e-05
1.2681368764707015882e-05
1.2614436728638148816e-05
1.2549697589133438957e-05
1.2489721675528320702e-05
1.2436180534310546363e-05
1.2390291088578481626e-05
1.235211782737571782e-05
1.2321610361821412429e-05
1.2297971274076321496e-05
1.2280069545053146575e-05
1.2266795174339977515e-05
1.2256388893037357041e-05
1.224760457173082428e-05
1.224115228205750519e-05
1.2241308850239710038e-05
1.2261031240519387726e-05
1.2310377938940210093e-05
1.2358684350060665475e-05
1.240191394874276403e-05
1.2438692697656980878e-05
1.2468021478012664922e-05
1.2489827856906926307e-05
1.2504550815089319286e-05
1.251277766171160682e-05
1.2515808418400806173e-05
1.2514807266543870443e-05
1.2510952920738958793e-05
1.2504935922527003555e-05
1.2497857068442855854e-05
1.2490006818459726089e-05
1.2481287830484679392e-05
1.2471004437752067435e-05
1.2457682252442850592e-05
1.2437045009605290379e-05
1.2411104153858562533e-05
1.2384225435917746636e-05
1.2356017354401735873e-05
1.2326532251073862807e-05
1.2294223659368362262e-05
1.2258753270908405938e-05
1.2219527269478288364e-05
1.2177083937123392711e-05
1.2132564153089305629e-05
1.2087766943921871444e-05
1.2045149182558256533e-05
1.2007278533624718306e-05
1.1976199487256730753e-05
1.1953050008290281455e-05
1.1937405054611159005e-05
1.1927201939574531717e-05
1.1919166208284905016e-05
1.1915579576482169613e-05
1.1928994788446089682e-05
1.1997801166696268627e-05
1.2122198600321765541e-05
1.2232649674266299512e-05
1.2324121763231443014e-05
1.2396387098386402043e-05
1.2450460757488934844e-05
1.2488429698204171035e-05
1.2513684425438675692e-05
1.2528835217581168327e-05
1.2536781052859736175e-05
1.2539011655958057117e-05
1.253725273308799293e-05
1.2532819526279725421e-05
6.0384593359226419184e-07
7.0435382198143978567e-07
7.7739826599414977782e-07
9.2234627387750504061e-07
1.0778204515978695706e-06
1.155330641597147063e-06
1.2151470555661935979e-06
1.331896020717366679e-06
1.4778580953772799078e-06
1.5850011246973064464e-06
1.6382909792496219253e-06
1.6860478190486520534e-06
1.7900894312275068138e-06
1.9399277554494181489e-06
2.0256996715507256932e-06
2.0728255837667694068e-06
2.164895306081587837e-06
2.3081486855405140374e-06
2.4026679443006764341e-06
2.4561111226962610645e-06
2.5408667261429879455e-06
2.6903334220257512865e-06
2.8388364829892927908e-06
2.9250795372431831056e-06
2.9653214785554147445e-06
3.027447965326822419e-06
3.1404508089088457123e-06
3.2546784535998928981e-06
3.32796226413717959e-06
3.3711632832826988513e-06
3.4353180671365717366e-06
3.55217560187020434e-06
3.6919397221343454155e-06
3.7936790296862731268e-06
3.8407160165994774014e-06
3.883994590254306039e-06
3.9761543438743313539e-06
4.0918499384206916548e-06
4.1866945761431018688e-06
4.2644690392698050052e-06
4.3528861606502198159e-06
4.4581798985618230528e-06
4.5599006332144181603e-06
4.6368596651291574167e-06
4.6895194278034700559e-06
4.7384197769658563997e-06
4.8013274710546644409e-06
4.8795604638446520292e-06
4.9621254664193780245e-06
5.0410571682130562695e-06
5.1168647371950534423e-06
5.2011808883209793066e-06
5.3016394231814714652e-06
5.4130290216154039736e-06
5.5162621844427585859e-06
5.595919018264386328e-06
5.6560257543338298398e-06
5.7173789488331898512e-06
5.7992200007554737856e-06
5.9008658108753797247e-06
6.0047732469818723583e-06
6.0936254520840968038e-06
6.1606050432525357973e-06
6.2105711545365145426e-06
6.2508076339726161599e-06
6.2910315113553015763e-06
6.3457080366158590269e-06
6.4288160180542673351e-06
6.5430034378297047165e-06
6.6740008861380960211e-06
6.796015497213484934e-06
6.8868499439765166258e-06
6.9405244430317905466e-06
6.9699674666490759565e-06
7.0008659262258202805e-06
7.056691180697758114e-06
7.1455356539880521537e-06
7.2558050654557012954e-06
7.3640602573426092354e-06
7.4499061148909071062e-06
7.5043018871568239675e-06
7.5300910814109171319e-06
7.5386629521170546556e-06
7.5439787208447959277e-06
7.5588033234512905109e-06
7.6026693311489353835e-06
7.6791234092153678559e-06
7.7622503646896255696e-06
7.8490995093101671265e-06
7.9396899848549718311e-06
8.0334133570969599569e-06
8.1292081799026255699e-06
8.2283348795775829317e-06
8.3335908458731730868e-06
8.4447126130087842884e-06
8.5538269693723557386e-06
8.6473843880929924735e-06
8.7146195933134976841e-06
8.7536025114836310735e-06
8.7699712998478504013e-06
8.7725593392573113216e-06
8.7693865695568929677e-06
8.7650002665396284401e-06
8.761293015997873471e-06
8.7600550315583093007e-06
8.7667403681027681407e-06
8.7964399110218642565e-06
8.8711892885652826585e-06
8.9725766419843926185e-06
9.0931387263935513062e-06
9.2249497030886182383e-06
9.3600355825052329887e-06
9.4956129993836106522e-06
9.6329055925675371498e-06
9.7693199599776368343e-06
9.8959380358878391794e-06
9.9990219136409765944e-06
1.0065622167481804488e-05
1.0094212309782220875e-05
1.0096069005770301821e-05
1.0087828394174962789e-05
1.0066272282341318399e-05
1.0012019307128912349e-05
9.9654862919591886397e-06
9.939008849399697337e-06
9.9259693974234184017e-06
9.918688542453012435e-06
9.9254978803397872912e-06
9.9793526613475975714e-06
1.0103655786833473486e-05
1.0222549905939888975e-05
1.0332407566638714596e-05
1.0435521406589812137e-05
1.0532360298585209058e-05
1.0622244134757199098e-05
1.0700393733465545507e-05
1.0762299823222543673e-05
1.0802192368980795487e-05
1.0819215051619343891e-05
1.0818675353868501975e-05
1.0810964216593807493e-05
1.0798530891843675697e-05
1.0767479204717487923e-05
1.0729892237155091804e-05
1.0705462968171876282e-05
1.0690857008522916958e-05
1.0680883194676468791e-05
1.0676688559157976189e-05
1.0697625774578910148e-05
1.0788442268107731927e-05
1.0917101918558129087e-05
1.103638994893381261e-05
1.114652267545416309e-05
1.1246258093539133644e-05
1.1335012798213622501e-05
1.1412704823899131655e-05
1.1478346104768401422e-05
1.153049771204414157e-05
1.1567300271748290095e-05
1.1586887171714607098e-05
1.159109818899276207e-05
1.1585726458377647031e-05
1.1576130083711059569e-05
1.1555198752307160881e-05
1.1533612015379409834e-05
1.1522028697183307446e-05
1.1515997409596382946e-05
1.1525800350853886755e-05
1.1579533436895218538e-05
1.1636454182278807161e-05
1.1668618805902302587e-05
1.1681093805511923986e-05
1.1682713641837092812e-05
1.1685091220567645124e-05
1.1699651491793663395e-05
1.1744607415602468774e-05
1.1828562868413535999e-05
1.1921847701121794937e-05
1.201435450528563321e-05
1.2099611004864629056e-05
1.2173346466986821103e-05
1.2233789999639596604e-05
1.2279197013711233411e-05
1.2308730078557516706e-05
1.2322448758854141261e-05
1.2323220095840438549e-05
1.2316210212772045238e-05
1.2305044787284859586e-05
1.2288390993195604252e-05
1.3137520017491584974e-05
1.3294457871007842365e-05
1.3410775434846627249e-05
1.3491870141540835142e-05
1.3544893809808319728e-05
1.3576228023611650367e-05
1.3591708255364195169e-05
1.3595824562777707824e-05
1.3592553954616374586e-05
1.3585231757219355138e-05
1.3576651896416768117e-05
1.356683172694241686e-05
1.3550840971533373679e-05
1.3515004341706263441e-05
1.3429797248952381731e-05
1.3330636661007602762e-05
1.3243348907844790393e-05
1.3172844562657910796e-05
1.3121757396770408147e-05
1.3088948001860681303e-05
1.3070506665993933428e-05
1.3059537079102950504e-05
1.3054187699977242077e-05
1.3068231598814840762e-05
1.3145105137032772594e-05
1.3306419334858919599e-05
1.3447641646448662645e-05
1.3559249496586160035e-05
1.364231158007193162e-05
1.3700301991061996943e-05
1.3738068504516269875e-05
1.375983895524725815e-05
1.3769810649627420017e-05
1.3770881416419794691e-05
1.3766543073758723097e-05
1.3760241004268573045e-05
1.375324481840044122e-05
1.3744203782924026557e-05
1.372570253101197335e-05
1.3677902854611210848e-05
1.3605506917461395795e-05
1.3538776021104462056e-05
1.3481303661951951148e-05
1.3436012615413330375e-05
1.3403944784152451041e-05
1.3383678602525652087e-05
1.3371347162211758206e-05
1.3362666618117687405e-05
1.3362424360842813472e-05
1.3392147276833764216e-05
1.349011448154828118e-05
1.35951921512668178e-05
1.3684544739860010968e-05
1.3759658713554757663e-05
1.3821322228745639584e-05
1.3871483124272711009e-05
1.3911382381841976003e-05
1.3941978219641912445e-05
1.3963523291255264505e-05
1.397602394282573719e-05
1.3980081131003335238e-05
1.3976828844340220712e-05
1.3968094618332997344e-05
1.3956518699030138575e-05
1.3944307410858479789e-05
1.3929655663063809969e-05
1.3905209926910408886e-05
1.3846653628096213467e-05
1.3734785230440546262e-05
1.3630121740676984135e-05
1.3542997646372401327e-05
1.3478197836565894413e-05
1.3434832676414685358e-05
1.3409211165672504384e-05
1.3394529920206014025e-05
1.3384071606142958853e-05
1.3378728844628550473e-05
1.3391924105434921071e-05
1.3458426244026035765e-05
1.3552627475457884292e-05
1.3635879406241589265e-05
1.3708471817531142026e-05
1.376985127801410368e-05
1.3820478060208129227e-05
1.3859344717328995984e-05
1.3886398135160768814e-05
1.3902258386474507324e-05
1.3908179884789599422e-05
1.3905435780154398514e-05
1.3896717718329550424e-05
1.3884637213235117084e-05
1.3871514723282943972e-05
1.3856464124508872943e-05
1.3835495545624185531e-05
1.3794115150921852105e-05
1.3707807898623699928e-05
1.3618861706233556589e-05
1.3542301094533278256e-05
1.3480715062518240334e-05
1.3435326148623324258e-05
1.3404176935044812493e-05
1.3384377505136092943e-05
1.3371942973110931418e-05
1.3362549316103004423e-05
1.335455429205243537e-05
1.3352098286359591274e-05
1.3367887504497953663e-05
1.3424141388970407251e-05
1.348940527243273011e-05
1.3553006474701136672e-05
1.3614113720219863098e-05
1.3670725588123836536e-05
1.3719664755020528966e-05
1.375954961776156227e-05
1.3788638376642896186e-05
1.3807250377262061635e-05
1.3816440268971734339e-05
1.3817366441064237887e-05
1.3812916990164793155e-05
1.3804377442174400311e-05
1.3794182049298039127e-05
1.3782777956545238989e-05
1.3768265723068549768e-05
1.3744930027971272431e-05
1.369352393506361594e-05
1.3613519591340861089e-05
1.3538649506726534118e-05
1.3472945507780967141e-05
1.3418143301166013973e-05
1.3374981587027235571e-05
1.3342192010742390869e-05
1.3318561230889217753e-05
1.3302446175736115042e-05
1.3291136641294264259e-05
1.3283229227059430768e-05
1.3276396231751703671e-05
1.3270625824455605597e-05
1.326722301822339908e-05
1.3271996209563367814e-05
1.3297704930643566802e-05
1.3332382437142052675e-05
1.3369680107672467104e-05
1.3409633935682320903e-05
1.3451147302573744239e-05
1.3492279470853748901e-05
1.3530609147667361941e-05
1.3564059576913688697e-05
1.3590942203360446044e-05
1.3610656144508621393e-05
1.3622859541793043203e-05
1.3628076444542963904e-05
1.362758785167914578e-05
1.3622483939380494706e-05
1.3615117812354396166e-05
1.3606126204311586817e-05
1.3596667969347562123e-05
1.3584022830130056722e-05
1.3559782885691955433e-05
1.3504417755154235345e-05
1.343874925815823712e-05
1.3379804305272169519e-05
1.3329112609848811183e-05
1.3286406119857195046e-05
1.3251765036105018239e-05
1.3223987977493988606e-05
1.3201973458514603901e-05
1.3184797153695156238e-05
1.3170733807642236773e-05
1.3158658924418978469e-05
1.3148831839688121292e-05
1.3146050170951580202e-05
1.3164914241183068634e-05
1.3230810024792218443e-05
1.3303715293006714948e-05
1.3367414675089365461e-05
1.3420521804770318427e-05
1.3461607567112216644e-05
1.3490544874857867124e-05
1.350806183712561652e-05
1.3515922673906596336e-05
1.3516599932463281778e-05
1.3512249308891340099e-05
1.3505065108606958973e-05
1.3496783136300934626e-05
1.3488237392268720348e-05
1.3479220289561409053e-05
1.3468509367703525745e-05
1.3453101243769098667e-05
1.3423592103330268677e-05
1.3363557685859822266e-05
1.3295945053285088309e-05
1.3229538127508904229e-05
1.3167039101009733845e-05
1.3110461143988574967e-05
1.3061493139074167901e-05
1.302034331526428464e-05
1.2987526213156886453e-05
1.2962046308639601781e-05
1.2942919495558532979e-05
1.2928844099134243476e-05
1.2917695019946692133e-05
1.2908316621773993066e-05
1.2902216497812886428e-05
1.2906144702856733734e-05
1.2938774411584426615e-05
1.2991826053108699126e-05
1.3040011082766681549e-05
1.3081876050978786594e-05
1.3116452416612242916e-05
1.3143359988264542297e-05
1.3162712279448735564e-05
1.3174973951440206534e-05
1.3181116751752923547e-05
1.3182446348128432407e-05
1.3180054091353386207e-05
1.3175102093420823057e-05
1.3168508354414071868e-05
1.3161089371444491296e-05
1.3152929645818732475e-05
1.3143736195275740721e-05
1.3132424849440740543e-05
1.3116553334892861916e-05
1.3090429513252614736e-05
1.3059643503615502651e-05
1.3027950800684564265e-05
1.299516420981331064e-05
1.2961575189115351716e-05
1.2926018223541720903e-05
1.2887915175660521778e-05
1.2846760960541361859e-05
1.2802544225060933484e-05
1.275640725260322553e-05
1.2709678316444872879e-05
1.2665027993621970448e-05
1.2624899135766849383e-05
1.2591672572807536756e-05
1.2566648863723112027e-05
1.2549706931679461178e-05
1.2538791144030163031e-05
1.2530386575232254346e-05
1.2525527065532780338e-05
1.2534600940685069068e-05
1.2589895558164128437e-05
1.2720188038228187084e-05
1.284223813562424846e-05
1.2944254364405074809e-05
1.3024852615030841493e-05
1.3085221476245440574e-05
1.3127631522004664711e-05
1.3155898213952492662e-05
1.3173075478822066135e-05
1.3182434284174633255e-05
1.3185658674322761518e-05
1.3184373878054802008e-05
1.3180155199920026265e-05
5.5449497428735680231e-07
6.8449924256978188291e-07
8.1615691527177444188e-07
9.0628455812854064124e-07
1.0319065898287473008e-06
1.2142761299281144134e-06
1.3840797923159146786e-06
1.4873373231357263423e-06
1.5379048331869274484e-06
1.6052997856799293039e-06
1.7524298359387768458e-06
1.9054288307231079778e-06
1.9928492640302151323e-06
2.0314212656544567223e-06
2.0803721585986664026e-06
2.1979796786704212197e-06
2.3334143437148365277e-06
2.4108045840774662123e-06
2.4571096592484607478e-06
2.5381709328417162429e-06
2.6868194258808773127e-06
2.8368496639999214842e-06
2.9468883773074816237e-06
3.0211531472671346615e-06
3.0945470139293827049e-06
3.2002224364167977498e-06
3.3358059740370828553e-06
3.463436061776995182e-06
3.5471864994944278953e-06
3.5876268912107252767e-06
3.6237447583903886677e-06
3.7057389427071267836e-06
3.8424654323339613963e-06
3.9663115295363753944e-06
4.0681939066979644552e-06
4.1639356033841461041e-06
4.2647907943942833317e-06
4.3619316077046701042e-06
4.4401695710367401732e-06
4.4981754907088117889e-06
4.5511293073165853842e-06
4.6187837798321432336e-06
4.7138830672617284921e-06
4.8349600667629133235e-06
4.964361579710360716e-06
5.0606900254556810869e-06
5.1130042216758196004e-06
5.1488912278883753495e-06
5.1949649745576056235e-06
5.256866850548467641e-06
5.3337956397364202178e-06
5.4339025966110227476e-06
5.5651348598069384454e-06
5.7143867044783761773e-06
5.849600129332117186e-06
5.9420233868310730997e-06
5.9904809744319608469e-06
6.0237725176272880089e-06
6.075164843070710659e-06
6.1569931861538323414e-06
6.2544930725547518053e-06
6.342754386409247347e-06
6.4094677656334638188e-06
6.4645965895639733023e-06
6.5256438329420755605e-06
6.605410317485656873e-06
6.7021734674117752902e-06
6.8015147102900725879e-06
6.8881305716149901762e-06
6.954676864072791069e-06
7.0042018968523293328e-06
7.050983137009242872e-06
7.1141470027767582545e-06
7.2062941488588544461e-06
7.3257940733670179068e-06
7.4589228411018286259e-06
7.5857558131199483143e-06
7.6876411218718385978e-06
7.7549360995967133706e-06
7.7892038427275039599e-06
7.8031387650544428291e-06
7.8149604379369549023e-06
7.8426638401404715308e-06
7.9157472269305142657e-06
8.0137489095518719246e-06
8.1073982974394133172e-06
8.1863699158891113324e-06
8.2494772310375587683e-06
8.305080719882310545e-06
8.3637044754324580678e-06
8.4331154446404825887e-06
8.5207856745188298415e-06
8.6314070837477746908e-06
8.7629877214758881287e-06
8.9013652632827462762e-06
9.0259367887400157251e-06
9.118768177630343197e-06
9.1723982679019725746e-06
9.1929645735262726183e-06
9.1945482133914123343e-06
9.1896991644628325791e-06
9.1845652781844674218e-06
9.1818225249462220768e-06
9.1911151679282426954e-06
9.2396114343929921489e-06
9.3168197417087986829e-06
9.3848628525123270895e-06
9.4507313792592839875e-06
9.5208671488996968223e-06
9.5991878650189539055e-06
9.6881163955505780982e-06
9.7959990915587131843e-06
9.9301605214777846696e-06
1.0091541055705742158e-05
1.0266936049123616536e-05
1.0431021061445191e-05
1.0558008682690123812e-05
1.0632111153805685389e-05
1.0656724606205508481e-05
1.0652711189515718044e-05
1.0637503927640884358e-05
1.0590324143395417081e-05
1.0533056223452819702e-05
1.0502566545747217861e-05
1.0490230004548391102e-05
1.0485927392355450703e-05
1.0506809891459171818e-05
1.0586099669552530313e-05
1.0666382043347936821e-05
1.0736071740290369653e-05
1.0806832524782739177e-05
1.08883917656543951e-05
1.0985763850442982847e-05
1.1094996970787126002e-05
1.120735327345698937e-05
1.1309691698475497681e-05
1.1388221382991050922e-05
1.1435154135366423461e-05
1.1450238535469265357e-05
1.1444925244089031619e-05
1.1432667333384474834e-05
1.1403895812224870986e-05
1.1351414342973773641e-05
1.1314967942213435413e-05
1.1295269555510802241e-05
1.1285441999459586496e-05
1.128078207589411606e-05
1.1299242443218024664e-05
1.1370450671486777251e-05
1.1443420468168387309e-05
1.1507544007812620129e-05
1.1572147767736732187e-05
1.1646690309381617265e-05
1.1735785904779809073e-05
1.1839338616211538628e-05
1.1951243286484782076e-05
1.2060248283815121065e-05
1.2155893182968390736e-05
1.2228840984080885861e-05
1.2274303185817434612e-05
1.2292707392397083732e-05
1.229118710675560736e-05
1.2281507630273665336e-05
1.2257368447626732541e-05
1.2211867702287942781e-05
1.2181547638306777098e-05
1.2167331856500765772e-05
1.216086346341046457e-05
1.2169648334750337061e-05
1.2215817041120301001e-05
1.2256888736818185678e-05
1.2282357688409373736e-05
1.2305795905132468177e-05
1.2338067058700665036e-05
1.2384768154332770324e-05
1.2443914697468053294e-05
1.2509038796978166059e-05
1.2573535576531638818e-05
1.2633826520334650562e-05
1.2690648345615420707e-05
1.2747034961201251821e-05
1.2805251736864196665e-05
1.286426774062349766e-05
1.2919044115224053278e-05
1.2963989817553227396e-05
1.2993990273007867447e-05
1.3007647206869085572e-05
1.3007501690745009064e-05
1.2998329961619726862e-05
1.3883144530031577886e-05
1.4002809354895949786e-05
1.4098303056676167181e-05
1.4173649152503753912e-05
1.4232310523593284151e-05
1.4275442747859114917e-05
1.4303885593327561306e-05
1.4318366294396917855e-05
1.4320992998996091253e-05
1.4315433202831795813e-05
1.4306613764456642147e-05
1.4294410692264420946e-05
1.4267970482329539743e-05
1.4196107316467843594e-05
1.408461916903541379e-05
1.3988046953644039082e-05
1.3911898572040240903e-05
1.3858277548711842492e-05
1.3825114346709095476e-05
1.3807151415980118092e-05
1.3796693310708302562e-05
1.3795867003516126153e-05
1.382922057536679859e-05
1.3945570847001016187e-05
1.4076553962018647121e-05
1.4184869826383712641e-05
1.427168720010430896e-05
1.4340177367786361776e-05
1.4393610058503147301e-05
1.44353040535184501e-05
1.4467475815305225797e-05
1.4490976794630635655e-05
1.4505776588766149221e-05
1.4511417284195965419e-05
1.4509508836011536617e-05
1.4502990311546140584e-05
1.4494544221756922294e-05
1.4483592412542995256e-05
1.4460841865451166415e-05
1.4400946815708558032e-05
1.431308209612703766e-05
1.4233554986433165403e-05
1.4165516039577686206e-05
1.4109827055739476264e-05
1.4067410153849058276e-05
1.403794496038835987e-05
1.4019415633316598298e-05
1.4007880672531326343e-05
1.3999583341833241767e-05
1.4000723572049946156e-05
1.4035771803003132155e-05
1.414509740830984827e-05
1.4260968503651904625e-05
1.4362626864953943295e-05
1.4450125103732354897e-05
1.4523972514939736695e-05
1.4584286447418486716e-05