/*--------------------------------*- C++ -*----------------------------------*\
  =========                 |
  \\      /  F ield         | OpenFOAM: The Open Source CFD Toolbox
   \\    /   O peration     | Website:  https://openfoam.org
    \\  /    A nd           | Version:  12
     \\/     M anipulation  |
\*---------------------------------------------------------------------------*/
FoamFile
{
    format      ascii;
    class       volScalarField;
    location    "0.017";
    object      p_0;
}
// * * * * * * * * * * * * * * * * * * * * * * * * * * * * * * * * * * * * * //

dimensions      [1 -1 -2 0 0 0 0];

internalField   nonuniform List<scalar> 
75962
(
98645.921769959008088
98656.445200377958827
98575.340040095208678
98493.803490483900532
98652.769620596140157
98741.189394731758512
98711.498127455677604
98669.083103138560546
98587.005173774887226
98515.207732395661878
98537.926955727263703
98619.738638344453648
98686.534990277083125
98695.280263794047642
98692.515507094256463
98717.299651565306704
98724.855408301969874
98706.430202167670359
98738.263176873471821
98812.559360120707424
98808.004244209980243
98716.97686807635182
98662.589886458328692
98693.97271228612226
98726.191057341347914
98706.326329890463967
98682.402517053909833
98686.681729199815891
98697.963912657141918
98711.720965626824182
98730.383382494808757
98740.8744268520677
98732.741390098308329
98710.396603906803648
98689.158010986357112
98692.887028041528538
98734.841971226240275
98781.527177183219464
98774.592685348980012
98698.630796933095553
98611.198790897178696
98571.051740114984568
98588.278178106760606
98642.900831521707005
98710.047330869492725
98753.126461352629121
98746.067631797428476
98710.897094335523434
98691.551054568568361
98701.843279885870288
98717.208705905504758
98720.172420040282304
98723.003471957417787
98742.660460177270579
98769.755023725840147
98782.88563997138408
98788.34070068258734
98806.983493540436029
98836.126976151936105
98850.687426637960016
98831.649729532378842
98793.635657479171641
98767.451364289736375
98765.720415795512963
98773.271477734524524
98767.242712949999259
98740.605731193179963
98711.762590570928296
98705.69685173787002
98728.549420486335293
98766.789218358535436
98799.076271474245004
98814.882724407492788
98816.862425921906834
98811.609752077158191
98811.640374535738374
98828.655053344380576
98858.460878240541206
98883.73249780239712
98889.845739115349716
98876.588195457967231
98862.428987318897271
98864.809888613410294
98886.944478143122979
98914.59430607779359
98927.407442286901642
98915.12839174689725
98889.913635882010567
98876.913347830268322
98891.809023656169302
98924.295927318176837
98948.627347780682612
98949.706341643977794
98929.189365834914497
98902.547198795859003
98877.234398175220122
98854.171690312577994
98834.973551500224858
98824.633268283549114
98824.51906940137269
98834.174546915339306
98849.683825832602452
98871.611505883702193
98898.307060490653384
98925.156323826799053
98949.299089404856204
98970.595988889879663
98990.372496650117682
99007.823236328782514
99016.506951476141694
99011.425777647513314
98992.556531088819611
98967.313118092119112
98945.891972154160612
98934.519213703912101
98929.098624404388829
98919.660748489011894
98900.259817520389333
98874.421920660577598
98854.477057994503411
98852.943603346560849
98873.455451283472939
98908.465228907647543
98941.778805470414227
98960.20388640044257
98961.952701750444248
98956.481703094221302
98956.049140941075166
98964.72417016341933
98975.468858825668576
98977.839699862233829
98965.923566036639386
98942.744874391821213
98917.992190664313966
98902.691212536941748
98901.903591132955626
98910.596629339663195
98917.81007374067849
98915.427337166081998
98906.370844846780528
98902.978499625183758
98915.48850829838193
98941.690113026299514
98969.001425763141015
98983.597701946797315
98980.092504711574293
98965.35290148310014
98951.16333623106766
98946.115067586957593
98950.616072078322759
98959.536055125194252
98967.148651975090615
98971.71165397837467
98975.810997514374321
98982.370634610619163
98991.517085022613173
98999.615428273202269
99003.001562153120176
99000.025275579697336
98993.549609451685683
98988.427419410189032
98986.869691609143047
98986.555761509662261
98984.62952343946381
98980.140754806270706
98977.239757906572777
98982.393036663474049
98998.194013601998449
99019.91504283323593
99037.271743413628428
99041.160108949348796
99029.821777380362619
99009.812497459221049
98992.863002847661846
98988.713901097333292
98999.218526798227686
99016.463252842295333
99028.510426697670482
99027.491385051616817
99015.785409143136349
99004.833349405904301
99006.422542517117108
99025.283861011252156
99054.896934269054327
99081.146539061592193
99090.663470306040836
99078.989154110575328
99050.065847158781253
99102.997718687940505
99087.400802001953707
99072.173117198064574
99057.796302622926305
99043.229250027579837
99027.463247993873665
99010.571304864744889
98994.838334217478405
98983.328975798489409
98978.009336336777778
98978.731865169873345
98983.440047656273236
98989.140485489842831
98993.07533529761713
98993.883928423223551
98990.725144131589332
98983.587201901289518
98972.51809968148882
98958.274416718035354
98942.983182421288802
98929.850475249317242
98921.779779245393001
98920.048850630919333
98923.853994820659864
98930.806323446187889
98937.795621231780387
98941.926157614710974
98940.956788949377369
98934.237882027009618
98922.865885734121548
98909.81258598426939
98899.559306630733772
98896.615711679056403
98904.443744573771255
98923.89646687725326
98952.22947595641017
98983.778975358247408
99012.173743858060334
99032.456548342874157
99042.525357592632645
99043.50912705011433
99038.654069068463286
99031.572006548667559
99025.110457033239072
99020.75427432343713
99018.480097432737239
99017.117070731997956
99015.078151625391911
99010.702066498619388
99003.041801921601291
98992.426418335482595
98980.72050857260183
98971.163680844547343
98967.065380463129259
98970.935238612903049
98982.52647175702441
98998.965636073291535
99015.26142045162851
99025.915988273234689
99027.737110230271355
99020.742546798544936
99007.85799064868479
98993.20386156711902
98980.582948910770938
98972.161867106013233
98968.124531026638579
98967.72714736002672
98970.167356517296867
98974.839098817450576
98981.428758454974741
98989.017909700793098
98996.091685126928496
99000.603156579949427
99000.75942622149887
98995.860597438906552
98986.942011602790444
98976.101111069016042
98965.832172377791721
98958.083083819379681
98953.957827597521828
98953.413112500478746
98955.849242458003573
98960.108243899871013
98964.549077864343417
98967.470773577748332
98967.11820930110116
98962.033951727993554
98951.29785767744761
98935.127427784784231
98914.966843832604354
98892.970634000666905
98871.718717421565088
98853.490638798873988
98839.765281611355022
98831.009755343082361
98827.16270142213034
98828.007129858553526
98833.248632251139497
98842.430862495602923
98854.354964536818443
98867.241190178188845
98879.111053031403571
98887.851233381748898
98892.398932205382152
98893.221703290764708
98891.477257667880622
98889.589034044227446
98889.491367263210122
98892.444533197034616
98898.992202942783479
98908.279466128253262
98919.167121649341425
98930.636703767100698
98941.734377215703717
98951.663881641099579
98959.738258380311891
98965.205867941869656
98967.471494278215687
98966.549001594044967
98962.838052968436386
98956.954424818177358
98949.824056819401449
98942.313482829442364
98934.687866946915165
98926.78065912189777
98918.382233205804368
98909.579846020249533
98901.033737028512405
98894.694630059457268
98893.108664697778295
98899.220688058150699
98914.873961500998121
98939.842102532071294
98971.651290321286069
99005.996084394137142
99037.762927106450661
99062.502059433361865
99078.029907042597188
99084.831789354415378
99085.54721912991954
99083.68512542899407
99081.911995980597567
99081.141862938078702
99080.152718082332285
99076.686421371152392
99068.530975073445006
99054.602116559253773
99035.713864130957518
99014.529332284568227
98994.476387554052053
98978.502899945669924
98968.335420826464542
98964.233216489272309
98965.413796907931101
98970.784478962144931
98979.716816877262318
98992.330125208885875
99009.081638537973049
99030.15223318770586
99054.794241051640711
99080.912886235004407
99105.18579168272845
99124.046492894427502
99134.55401671474101
99135.449087940651225
99127.507184037182014
99113.46785890062165
99097.062436912296107
99082.017096295850934
99070.822748975348077
99064.903656166992732
99064.086148791160667
99067.489942401341978
99073.731363906612387
99081.752425438826322
99090.962707091341144
99101.001979563632631
99111.606923531886423
99122.4166071042564
99133.005270270863548
99142.950411672063638
99152.001528663691715
99160.152676929457812
99167.580307149648434
99174.392144861107226
99180.53360390009766
99185.552478752011666
99188.697189331200207
99189.148095966695109
99186.301565659319749
99179.895352905368782
99170.199346109555336
99157.969785342676914
99144.232068858065759
99130.000991330161924
99116.001887339371024
99102.757611293927766
99090.603447833040264
99079.8985701858619
99071.030333110771608
99064.508595771505497
99060.802983008354204
99060.075750204254291
99062.102588909066981
99066.241355395584833
99071.51262378274987
99076.864097561949166
99081.49925662491296
99085.073980558096082
99087.934152098576305
99090.966488928897888
99095.245352303143591
99101.660837603209075
99110.487979784636991
99121.105992079494172
99132.129124300583499
99141.598088791346527
99147.309722123129177
99147.521377011333243
99141.47251831034373
99129.561647944618016
99113.360495874803746
99095.209734443968046
99077.693396095113712
99063.228581442075665
99053.523316445804085
99049.358986819337588
99050.64374988610507
99056.734623169802944
99066.611992200181703
99079.174286595793092
99093.31906937866006
99108.02064357107156
99122.341530736535788
99135.358178211128688
99146.296296520522446
99154.575245100000757
99159.894225725191063
99162.254541275193333
99162.031729292895761
99159.869346195991966
99156.513154684522306
99152.621952045636135
99148.60573900314921
99144.695703718462028
99140.964191927982029
99137.502844706599717
99134.580713493836811
99132.609908894824912
99132.109953997816774
99133.631500258910819
99137.316576965924469
99142.751296759728575
99148.975700748880627
98746.984812134760432
98530.991756473449641
98549.970568273070967
98735.085426428166102
98904.108128364794538
98888.801768106844975
98777.824816064719926
98677.280442249189946
98599.005527773319045
98624.551199609573814
98732.943912184491637
98794.516333634033799
98774.150075658501009
98730.063069851559703
98707.788526379896211
98713.63288700162957
98708.021694278300856
98695.241612029334647
98743.996508789001382
98840.731863761131535
98873.015841062762775
98806.331626524421154
98736.393989955467987
98728.768898791400716
98743.134846212342381
98727.340545645536622
98708.712863640917931
98713.671766390354605
98726.7339051784802
98733.539973328486667
98729.697839298300096
98716.482407597344718
98702.918609752261546
98694.349223263256135
98695.415628466071212
98717.987256533582695
98765.997883072777768
98798.284538438500022
98768.394803410308668
98688.905169422752806
98617.105492308561224
98589.092051826242823
98599.326757923117839
98632.633807737583993
98682.020048659760505
98729.263289332346176
98750.904198762495071
98744.428327659348724
98735.818248410796514
98745.281151748888078
98763.08884424858843
98769.127432217748719
98765.321725569825503
98762.152011778904125
98762.147046082958695
98759.111463904730044
98765.796055249433266
98793.335721989642479
98835.502529813049478
98865.262858143629273
98861.614768287545303
98834.780308804169181
98811.602694687491748
98807.389955138976802
98804.991872463142499
98783.51203675265424
98744.232135234749876
98711.926775885163806
98706.461671114928322
98725.600214162535849
98749.970095839409623
98767.014608431694796
98782.706237356964266
98799.897495867873658
98819.646288231757353
98840.127634432123159
98864.28351731915609
98890.508282161812531
98909.231248615120421
98912.042134383300436
98902.307591115066316
98890.946811645102571
98890.964893326687161
98908.374410202915897
98932.456759472377598
98944.721964646145352
98934.363806056993781
98910.842642236035317
98899.040946597146103
98916.161484567201114
98951.662338781155995
98975.25961523904698
98966.082188234737259
98932.550709697461571
98896.539235257572727
98870.295198439343949
98854.11075463326415
98842.742492770441459
98835.273808817015379
98832.879465545964194
98837.333954330722918
98851.854185975636938
98877.349608806878678
98910.454912815359421
98944.041483508772217
98968.826719505537767
98982.1917014993669
98989.636962180040427
98997.164528338078526
99002.727689755236497
98998.403348067571642
98981.051706512575038
98953.144063171363086
98927.06395216358942
98911.794229997816728
98908.940459682955407
98910.87180728475505
98907.003781871433603
98893.795234641816933
98878.681175986435846
98875.475252470510895
98890.493013542465633
98920.394740888077649
98950.464658443059307
98968.520557931624353
98972.615795129997423
98969.836253166125971
98967.729253300145501
98968.467194702388952
98968.907000870836782
98965.488927564641926
98954.959988688773592
98936.947121900127968
98916.757840712205507
98904.700099680674612
98909.330731634618132
98927.037788836285472
98943.398536740874988
98945.56573454021418
98933.875284718320472
98922.375397994139348
98924.702495692763478
98943.263497452804586
98967.588467276669689
98984.191720188202453
98986.555319984574453
98977.589100412791595
98965.883862729344401
98958.08562050369801
98954.237998893673648
98951.845933693621191
98949.033405162510462
98948.061759130199789
98952.861494438315276
98964.574575038146577
98980.658373367972672
98995.382954763146699
99004.504808794852579
99007.392515904750326
99007.148045983776683
99006.755868560823728
99006.59003770093841
99003.283112663644715
98994.872870146893547
98983.923212691122899
98977.929838902957272
98983.169260176306125
98999.617559201593394
99019.588326617071289
99031.873687905375846
99028.841166346363025
99012.019122715122649
98990.673650499185896
98977.093553682949278
98979.307960849997471
98996.234127382253064
99016.987209065075149
99027.788521744223544
99021.077254933174117
99001.796064026784734
98983.815379781764932
98981.646493879467016
99001.006659004779067
99035.116597086074762
99067.987854647333734
99083.507123894742108
99075.633363548433408
99048.167282913738745
99012.32090281166893
99090.013261214524391
99079.113932398628094
99068.242521941880113
99057.824382437291206
99045.802859458926832
99030.18862258415902
99010.734206741588423
98989.955000097470474
98972.747544459925848
98963.117880090911058
98962.221783648550627
98967.885235356399789
98975.862443060279475
98982.1508249342005
98984.253784779692069
98981.72369293680822
98975.14434086541587
98965.43492847935704
98953.188608953307266
98939.478262675504084
98926.243572678882629
98916.138110919870087
98911.022479185077827
98911.16992155087064
98915.259078003524337
98921.325063819356728
98927.58139262496843
98932.739118936355226
98935.523465055332053
98935.092291631401167
98931.075021774988272
98924.265392322806292
98917.411410618791706
98914.399884279991966
98918.870592798179132
98932.860383233302855
98955.158174351556227
98981.335481580157648
99005.685344369907398
99022.872752867944655
99030.778840759769082
99030.101423752363189
99024.503758573046071
99017.977963918892783
99013.875993735302472
99013.644487458353979
99016.608787507910165
99020.435215226651053
99022.431017395778326
99020.055309444564045
99011.839667025313247
98998.665202936943388
98983.282867345871637
98970.286705695616547
98963.947526385076344
98967.083459706816939
98978.865298471224378
98995.623369089604239
99011.364470635831822
99020.183657308414695
99018.87991556317138
99008.158968266230659
98991.832061356879422
98974.931446043687174
98962.044719238561811
98955.218424350285204
98954.233770899212686
98957.631137130301795
98963.208208100826596
98969.394312608928885
98975.243053489059093
98980.165143709178665
98983.760834642467671
98985.304860888514668
98984.073994474456413
98979.713769829177181
98972.470091532086371
98962.855097649371601
98952.301384921331191
98942.35587668644439
98935.056804221181665
98931.775163241749397
98933.39660786735476
98939.438336340681417
98947.955489865838899
98956.19219583022641
98961.070844506102731
98959.775971685085096
98950.878171025193296
98934.706985037919367
98913.128211165894754
98888.796189376254915
98864.57059581244539
98842.873904619089444
98825.481541488305083
98813.273205096193124
98806.547115714565734
98805.661656755706645
98810.467040612493292
98820.560391570877982
98834.834202740486944
98851.074479392540525
98866.821994276760961
98879.594327377504669
98887.857579014395014
98891.603263471042737
98891.888581399878603
98890.782782230831799
98890.216348454865511
98891.218255381041672
98894.265360117249656
98898.977336824988015
98904.74878755203099
98911.250278314590105
98918.397277810436208
98925.912749119190266
98933.279125083150575
98939.739417026823503
98944.155005556240212
98945.707099195016781
98944.166907937440556
98939.668812244432047
98932.860127517065848
98924.704959782917285
98915.984938178909943
98906.983578887229669
98897.90650000081223
98889.472497717957594
98882.847468400999787
98879.822109491855372
98882.662418275911477
98893.441028636880219
98912.795915711845737
98939.708019867059193
98971.298772477734019
99003.269014710502233
99030.973703615090926
99051.083893933697254
99062.378586802951759
99066.273097951969248
99065.667753332003485
99063.448205981767387
99061.916291265602922
99061.136985530145466
99059.445568446506513
99054.324460884177824
99043.749534374132054
99027.316569579576026
99006.49714475046494
98984.404484192535165
98964.597360836982261
98949.81741555694316
98941.341401298166602
98938.982300466843299
98941.628433604157181
98948.024169260781491
98957.52585812471807
98970.416377847766853
98987.549194258637726
99009.475755041028606
99035.492246255671489
99063.278297930475674
99089.148044658999424
99109.265051182679599
99120.511875126336236
99121.787664260962629
99114.273448900261428
99101.077498144222773
99086.304780824677437
99073.670274509335286
99065.733778867623187
99063.287750832765596
99065.568260675267084
99071.114307124968036
99078.2859962155635
99085.57101616440923
99092.472437391712447
99099.182140165255987
99105.998712010696181
99113.111045412049862
99120.445018232698203
99127.783104379137512
99134.820294369361363
99141.396390189984231
99147.386294751326204
99152.687427886441583
99157.053594952696585
99160.052720774881891
99161.152240809809882
99159.930937043754966
99156.248446421304834
99150.223005908585037
99142.210799058433622
99132.828246729244711
99122.69441076721705
99112.198494671742083
99101.420190140401246
99090.378528463843395
99079.195297369587934
99068.190914813356358
99057.972537449910305
99049.326093696945463
99043.125279005587799
99039.952759984735167
99040.009696859458927
99042.815289846475935
99047.331510165953659
99052.346189141389914
99056.858704768965254
99060.465556027367711
99063.472193416106165
99066.712891557996045
99071.386829482129542
99078.562920775017119
99088.64606466027908
99101.088831440618378
99114.374722376145655
99126.274296230767504
99134.36132672704116
99136.652358720661141
99132.058089999656659
99120.836809791595442
99104.56154797768977
99085.669797958820709
99066.926360488520004
99050.890815212129382
99039.486062374373432
99033.564803311688593
99033.09059284311661
99037.34432157347328
99045.285821559635224
99055.779269572420162
99067.864933140415815
99080.749865945559577
99093.684677671044483
99105.856635485499282
99116.600146803204552
99125.285459662147332
99131.443427346050157
99134.918479950414621
99135.863254792187945
99134.841922979467199
99132.570989275700413
99129.705442764694453
99126.810690942307701
99124.166127047967166
99121.92510039213812
99120.174645116479951
99119.030816603422863
99118.793141715737875
99119.883204959056457
99122.682590186363086
99127.398763326767948
99133.838802175785531
99141.229882370724226
98453.275112788047409
98669.477553286109469
98833.621126291065593
98921.066705829900457
98839.813662960616057
98766.455257207722752
98694.224735600349959
98644.360598606450367
98607.765163659219979
98634.457440287253121
98745.165239842739538
98821.721776948892511
98808.63015934122086
98766.673818099952769
98714.17106761726609
98686.27947438195406
98677.474646697344724
98674.870772719135857
98733.374587022044579
98846.976984925771831
98887.312872704220354
98808.612724798251293
98709.94408839623793
98678.103632321173791
98694.724421964594512
98698.414868706138805
98698.360109190340154
98718.227205443035928
98750.511997547844658
98765.64714741044736
98748.810739171516616
98714.648357018260867
98690.184089029295137
98684.731225158713642
98695.127753053209744
98730.135977667116094
98784.450554364782874
98814.665699822508032
98788.099320411973167
98728.844175162375905
98678.459305364929605
98650.287533917231485
98638.645899652590742
98642.031247882623575
98670.952406717595295
98723.343925778885023
98774.8514992397686
98797.71947038306098
98796.544196255781571
98795.138353488000575
98798.777045786278904
98793.094278298478457
98775.351164434367092
98754.219178585786722
98735.61704294262745
98730.104524625159684
98746.34679937515466
98788.475445571006276
98841.853322410475812
98877.04515507708129
98877.609788947258494
98854.585023153282236
98834.86620285641402
98831.764634984079748
98828.114668518595863
98804.061850127967773
98762.003524374158587
98722.606363895829418
98703.969926877791295
98707.035528468593839
98719.385605303221382
98738.830689993264969
98768.108397437812528
98808.06496857116872
98849.793343223223928
98884.140506693001953
98906.234820827958174
98916.220218604314141
98918.998005622721394
98918.306911275532912
98918.00515969042317
98917.11047858450911
98916.339794570114464
98921.629224240052281
98936.528132761930465
98953.076090903661679
98958.388060254146694
98951.665030715827015
98947.648598961037351
98959.661475099099334
98978.398263104012585
98981.549370072796592
98957.071973024823819
98920.558317707356764
98892.50659989163978
98879.988937918969896
98874.589501803275198
98866.858462943549966
98856.764632674894528
98852.373431013940717
98857.79903959321382
98875.168158369750017
98900.52148430638772
98930.231725684454432
98954.545424007039401
98966.960725927536259
98969.28437934165413
98970.31950935383793
98977.06493342439353
98985.231592645897763
98983.003306186554255
98961.416507649744744
98929.97048583990545
98901.938368454881129
98891.078550030404585
98900.039822617240134
98917.803639042103896
98927.98715971915226
98923.158197684155311
98910.3080979961087
98905.130835993593791
98917.288413637550548
98944.227464945608517
98971.818059340570471
98989.160321884322912
98995.227872716379352
98994.211522101526498
98988.300853104243288
98979.542393724841531
98969.743762168538524
98960.190671553427819
98949.260582222690573
98934.205838378475164
98917.745207559550181
98911.037199488622718
98924.011992731378996
98952.190508693121956
98977.43930422187259
98982.755050820065662
98967.718528809273266
98947.420440773159498
98938.103574763576034
98945.456624700731481
98962.941494960075943
98979.573168520248146
98988.388697577523999
98988.207326038289466
98982.122743013314903
98973.37814174995583
98962.625341335035046
98950.494847512818524
98938.827303444661084
98931.900719665369252
98934.174822925284388
98947.687793747289106
98967.498941387282684
98987.391742713894928
99001.797233460092684
99010.06509129027836
99014.102890332171228
99015.532335841562599
99013.674478995453683
99006.467478934951941
98994.128081734670559
98980.673033147293609
98974.364270314676105
98979.93449160772434
98995.582625485592871
99012.258545563250664
99019.205030392346089
99010.803365003579529
98990.823468785107252
98970.034472060768167
98960.071678275999147
98966.924008773581591
98987.178152728127316
99009.113457561892574
99018.118928231444443
99008.454613568101195
98985.835451855469728
98965.120774267110392
98961.096835616612225
98979.229532076409669
99012.853067177289631
99046.467146424154635
99065.035680725763086
99061.338421793247107
99038.998581668740371
99007.891007291545975
99054.875595577730564
99047.514200563833583
99042.450495359036722
99037.116028571297647
99027.582803258730564
99011.748056685624761
98991.515571167488815
98971.590624367745477
98957.38734896738606
98952.341916606819723
98955.961590335951769
98964.181511781396694
98971.619129491620697
98975.066724249656545
98973.635889214929193
98967.996968716819538
98959.5822702448786
98948.98367943672929
98937.041788043497945
98925.121922997044749
98915.453149355817004
98910.131083318949095
98909.647714135295246
98913.197665575818974
98918.834562597781769
98924.774450850498397
98930.283117677812697
98935.635833488297067
98941.173351680961787
98946.049391102758818
98948.479982664139243
98947.552064883493586
98943.857718023573398
98940.031678326340625
98939.681076627297443
98945.79639097355539
98959.139792638306972
98977.32988732920785
98996.050604049349204
99010.419024665286997
99017.464121998069459
99017.317085120666889
99012.683071518738871
99007.719356309098657
99005.74866862106137
99008.258174626898835
99014.552566269354429
99022.075898271126789
99027.152221901182202
99026.662004924961366
99019.219629637911567
99005.300728264381178
98988.561683865438681
98973.877857459752704
98966.562299159370014
98968.489251029037405
98978.924071433517383
98993.587634528521448
99006.176969229694805
99011.414902795935632
99006.681203537722467
98993.054917359477258
98974.619041517406004
98956.944837486269535
98944.320387870451668
98938.773321654181927
98939.780515426929924
98945.093304252368398
98951.876121237364714
98958.038135182388942
98962.610278849213501
98965.756284806062467
98967.732592877233401
98968.769537978354492
98968.724918075793539
98966.738758921841509
98961.884680021816166
98953.362453674650169
98941.615539942955365
98928.616955361154396
98917.380358683338272
98911.178301960273529
98912.084419339968008
98919.974314199571381
98932.523451673274394
98945.584316782449605
98954.695776087537524
98956.206151839171071
98948.500710654290742
98932.327882631114335
98910.231385196064366
98885.250488987818244
98860.332483702790341
98837.766697819373803
98818.882360161063843
98804.686621415545233
98795.695471505372552
98792.507027658371953
98795.508904432237614
98804.59297939989483
98818.958486054805689
98836.757598166630487
98855.258929731557146
98871.671827247992042
98883.916132134763757
98891.016921837595874
98893.838404616981279
98893.754767824575538
98892.195124623263837
98890.462643142178422
98889.090898297348758
98888.435053586290451
98888.761913986338186
98890.218678236109554
98893.222934957506368
98898.072751641229843
98904.35767116273928
98911.182692533053341
98917.237185459482134
98921.044535874767462
98921.688662240820122
98919.024811621522531
98913.469688213750487
98905.931761404630379
98897.677453871132457
98889.372207937005442
98881.750416788068833
98875.638423632466584
98872.318712407766725
98873.261238341292483
98879.998545028953231
98893.582153535782709
98914.060264039202593
98940.043191321034101
98968.773433071517502
98996.305286508388235
99018.91150288785866
99034.237245824275305
99041.931961969283293
99043.646497932859347
99042.167152666443144
99039.81951795182249
99037.997238244381151
99036.468637617363129
99033.542678462952608
99026.893789633031702
99015.005345000798116
98998.086351502381149
98978.022391199992853
98957.748873685181024
98940.398711125322734
98928.287972720616381
98922.156603391442331
98921.397487936876132
98924.800706611800706
98931.351446375949308
98940.705338934523752
98953.366855801112251
98970.371441653260263
98992.29960515696439
99018.210018940226291
99045.56285731488606
99070.754808733210666
99090.052710926363943
99100.670604266779264
99102.000229575540288
99095.582716715260176
99084.759844294982031
99073.567759879748337
99065.21627382801671
99062.074407373380382
99063.769477109701256
99069.42548348348646
99076.834963583096396
99084.053225792653393
99090.323991903700517
99094.957805934871431
99098.203492124797776
99100.919968489339226
99103.892839510750491
99107.460678566247225
99111.533980620384682
99115.824465694051469
99119.998717916125315
99123.734397616935894
99126.766655294079101
99128.759853684750851
99129.341466961312108
99128.220213423264795
99125.344928171136416
99120.955745676648803
99115.440075977661763
99109.246120096315281
99102.752928259156761
99096.121954112008098
99089.347082502266858
99082.174140914270538
99074.368079212057637
99065.796215233538533
99056.685804679378634
99047.787378445616923
99039.825759828570881
99033.64697332153446
99029.588330373037024
99028.01485132824746
99028.650416498305276
99030.778973095788388
99033.442882547737099
99035.875500784328324
99037.915961992737721
99039.886918558258913
99042.617558232363081
99047.239844948562677
99054.767208398974617
99065.675759611302055
99079.498605302593205
99094.593053987191524
99108.546572704915889
99118.751600832081749
99123.006680366626824
99120.171505946927937
99110.396135917602805
99095.065081080188975
99076.528124658783781
99057.588858558097854
99040.818888170993887
99028.091936424185405
99020.299095220761956
99017.512583025411004
99019.10262461763341
99024.145075509863091
99031.670127148812753
99041.054914809254115
99051.833384710305836
99063.476564291704562
99075.344867872918257
99086.759200991247781
99096.905442468647379
99104.991931852171547
99110.478306642427924
99113.239814858767204
99113.711589436948998
99112.600538766142563
99110.73562928053434
99108.874577811089694
99107.427068469347432
99106.623536401093588
99106.51490311913949
99107.121003767926595
99108.524826549939462
99110.966447662867722
99114.63755093284999
99119.741294406368979
99126.223293391172774
99133.598811393763754
99140.968929628565093
98688.367835388067761
98711.638139982140274
98769.674992767337244
98674.364972770796157
98659.102420422670548
98630.960391016211361
98612.056951262813527
98722.278702427152894
98723.4005268443143