/*--------------------------------*- C++ -*----------------------------------*\
  =========                 |
  \\      /  F ield         | OpenFOAM: The Open Source CFD Toolbox
   \\    /   O peration     | Website:  https://openfoam.org
    \\  /    A nd           | Version:  12
     \\/     M anipulation  |
\*---------------------------------------------------------------------------*/
FoamFile
{
    format      ascii;
    class       volScalarField;
    location    "0.017";
    object      pMean;
}
// * * * * * * * * * * * * * * * * * * * * * * * * * * * * * * * * * * * * * //

dimensions      [1 -1 -2 0 0 0 0];

internalField   nonuniform List<scalar> 
75962
(
99657.551194499028497
99658.081916965340497
99657.78777185351646
99657.651695537962951
99657.603226956984145
99657.450172723125434
99657.222253871965222
99656.950747954237158
99656.654209383777925
99656.337985573205515
99655.980211657879408
99655.566579376114532
99655.113853315458982
99654.646227869088762
99654.1710225794086
99653.681574490357889
99653.175750656388118
99652.664271615387406
99652.147603584686294
99651.609849558008136
99651.05637452393421
99650.511877251730766
99649.986838616387104
99649.465603617019951
99648.937438516019029
99648.411375315001351
99647.895973314807634
99647.388149983074982
99646.882439488501404
99646.377220167953055
99645.872393041747273
99645.369426315650344
99644.87186806970567
99644.38203749366221
99643.900119030309725
99643.424256949962
99642.94912330758234
99642.47170129364531
99641.996348691041931
99641.535690663644345
99641.098272847331828
99640.68015568095143
99640.271132764042704
99639.86338446312584
99639.45186350181757
99639.037109814933501
99638.625625544125796
99638.224321263784077
99637.834550244529964
99637.452361815827317
99637.073651407394209
99636.699010584110511
99636.330218939867336
99635.964815356390318
99635.599576865686686
99635.235221751980134
99634.875445933619631
99634.519375405827304
99634.1631441564532
99633.806990170996869
99633.456364335550461
99633.116886362608057
99632.789503319974756
99632.470621781452792
99632.156793372909306
99631.847944107881631
99631.546511064239894
99631.254394880626933
99630.969263450519065
99630.685736001294572
99630.39921975004836
99630.1091852227255
99629.818122430850053
99629.528458581058658
99629.241710960282944
99628.957849552185507
99628.674936900017201
99628.390533846119069
99628.104343393933959
99627.818794674691162
99627.537434888392454
99627.262124325337936
99626.99082168188761
99626.720196581925848
99626.447311584866839
99626.17260621477908
99625.899319352713064
99625.631038969630026
99625.367717141954927
99625.105791061141645
99624.841374495590571
99624.573942470844486
99624.306819375196937
99624.044527432328323
99623.789366190118017
99623.541009770269739
99623.298486098457943
99623.061132322618505
99622.828387496076175
99622.598844206469948
99622.371217243184219
99622.144630502065411
99621.918326284881914
99621.691224240581505
99621.462946703686612
99621.233475850225659
99621.002892524222261
99620.771080106831505
99620.53750539959583
99620.30269586139184
99620.068269638140919
99619.836819710282725
99619.609678816545056
99619.386748090953915
99619.166168146810378
99618.946401080596843
99618.727705680968938
99618.512330041718087
99618.302752036994207
99618.099700057238806
99617.901054970920086
99617.702568073349539
99617.50031755110831
99617.292993212162401
99617.082006704629748
99616.870538815535838
99616.660957911110017
99616.453544926291215
99616.246997512324015
99616.040191234889789
99615.833517903796746
99615.628886262711603
99615.428520067638601
99615.233834190832567
99615.04449745133752
99614.858394507522462
99614.673024993317085
99614.487558717504726
99614.30335493858729
99614.122090253033093
99613.943720629889867
99613.765948891508742
99613.585682018048828
99613.401124959127628
99613.21306367701618
99613.024405926014879
99612.838036827248288
99612.655361925586476
99612.475649108848302
99612.297320479687187
99612.118808771454496
99611.939508920462686
99611.75956377357943
99611.578905606627814
99611.397444362330134
99611.214827457384672
99611.030923105063266
99610.84652365319198
99610.663191850631847
99610.482081220819964
99610.303508302211412
99610.127015415098867
99609.951973875708063
99609.778209203883307
99609.606182435207302
99609.436157441290561
99609.267354975920171
99609.098040904893423
99608.926737149871769
99608.753067393801757
99608.578380645136349
99608.404951866526972
99608.234832000467577
99608.068422057825956
99607.904406131099677
99607.740390849212417
99607.574404387181858
99607.406405643225298
99607.238229361333651
99607.072181743191322
99606.909079322300386
99606.747724627231946
99606.585477323766099
99606.419547334124218
99606.249243982849293
99606.076394825577154
99605.904056644401862
99605.735081033519236
99600.099820925766835
99599.964144645258784
99599.830896682513412
99599.699503012612695
99599.569479881451116
99599.440675448044203
99599.313131658476777
99599.186799379080185
99599.061344453759375
99598.936153337112046
99598.810533122639754
99598.68391217791941
99598.556109574055881
99598.427186173226801
99598.297331505309558
99598.166683410832775
99598.035575793925091
99597.90456738222565
99597.774146438023308
99597.644800099747954
99597.51668854712625
99597.389413446464459
99597.262309755082242
99597.134656800932135
99597.005994114981149
99596.876357821485726
99596.746387669219985
99596.617013255148777
99596.48919242231932
99596.363931990345009
99596.24202445228002
99596.123693560730317
99596.008385896624532
99595.894820342058665
99595.781338833490736
99595.66630694057676
99595.548708088404965
99595.428367609390989
99595.306013519642875
99595.182910347153665
99595.060448997202911
99594.939672468171921
99594.821140641099191
99594.704915664711734
99594.590681640576804
99594.477852662545047
99594.365932045053341
99594.254798992726137
99594.144648125977255
99594.035981105655083
99593.9294026264688
99593.825396585976705
99593.724048632779159
99593.624855108515476
99593.526778825893416
99593.428359508921858
99593.328224782599136
99593.225663163539139
99593.120722158957506
99593.01420122795389
99592.907261962391203
99592.800837858609157
99592.6953558359819
99592.590702864108607
99592.486522901410353
99592.382301361809368
99592.277464836457511
99592.171569409329095
99592.064281310362276
99591.95519086693821
99591.844006710191024
99591.730644037845195
99591.615352460430586
99591.498604560620151
99591.381105464577558
99591.26358022193017
99591.146503506533918
99591.030054877133807
99590.914024043173413
99590.797905083585647
99590.681048823200399
99590.562885227394872
99590.443039867866901
99590.321341898365063
99590.1979389723856
99590.073190472452552
99589.947718389812508
99589.822342416300671
99589.697951992900926
99589.575340820258134
99589.454926710954169
99589.336809979678947
99589.220698096833075
99589.106116720591672
99588.992493075245875
99588.879252897095284
99588.765835874350159
99588.651778542553075
99588.53670970958774
99588.420395571432891
99588.302803517653956
99588.18422404435114
99588.065036717671319
99587.945792533471831
99587.827115277163102
99587.709326941883774
99587.592518043064047
99587.476508925741655
99587.360870916818385
99587.245067851617932
99587.128617638969445
99587.011203620480956
99586.892731788757374
99586.773210211686091
99586.652690566945239
99586.531328456374467
99586.409405532991514
99586.287275136564858
99586.165409537730739
99586.044272168699536
99585.924308026747894
99585.805814954161178
99585.688859379006317
99585.573431937911664
99585.459483718601405
99585.347028838572442
99585.23614998665289
99585.126837972828071
99585.018991032935446
99584.912285473081283
99584.806037934540655
99584.699177892267471
99584.59040480038675
99584.478613308616332
99584.363044763260405
99584.243588842786266
99584.120772407113691
99583.99561678559985
99583.8692361881549
99583.742591101137805
99583.616277979759616
99583.490474776393967
99583.365072857079213
99583.239866575284395
99583.11482285670354
99582.990283164646826
99582.866931803335319
99582.74545456164924
99582.626291538370424
99582.509524560780847
99582.394900287938071
99582.281846058845986
99582.169714869727613
99582.057870384465787
99581.945809487660881
99581.833094458852429
99581.719310114800464
99581.603911994679947
99581.48628750978969
99581.365917779141455
99581.242395177381695
99581.115688569712802
99580.986211555064074
99580.854800489963964
99580.722470016786247
99580.59028977235721
99580.459181038619136
99580.329733747028513
99580.202105469084927
99580.076064420223702
99579.951122748389025
99579.826724047205062
99579.702324041994871
99579.577466237504268
99579.451788118836703
99579.32507776786224
99579.197085187217453
99579.067660219021491
99578.936719207602437
99578.804285476173391
99578.670472140307538
99578.535422400003881
99578.399345591242309
99578.262444601088646
99578.124808746186318
99577.98641652657534
99577.847178997195442
99577.7071201253857
99577.566403724587872
99577.425281118761632
99577.284024632215733
99577.142892126648803
99577.002180533920182
99576.862114539850154
99576.722796101734275
99576.584260969117167
99576.446480606173282
99576.309343252127292
99576.172738059161929
99576.036490250902716
99575.900357250589877
99575.764074474966037
99575.627353947449592
99575.489900288652279
99575.351437056146096
99575.211784343293402
99575.070882960906602
99574.928826243907679
99574.785784486914054
99574.641938614513492
99574.497446634719381
99574.352457650777069
99574.207023726252373
99574.061153546863352
99573.914901502314024
99573.768395873485133
99573.621881988656241
99573.475848138259607
99573.330980584592908
99573.188097656035097
99573.047943361074431
99572.911131619126536
99572.778113178865169
99572.649122951508616
99572.52413517954119
99572.402938212180743
99572.285162331623724
99572.170421934744809
99572.058362943687825
99571.948778032368864
99571.841555550519843
99571.736736592705711
99571.634494871468632
99571.535128517687554
99571.439071843284182
99571.34683827716799
99571.259065980324522
99571.176412746921415
99571.099578577224747
99571.029237142603961
99570.966013161334558
99570.910516511808964
99570.863241586324875
99570.824648886889918
99570.795244565117173
99570.775610121752834
99570.766370076438761
99570.768090636382112
99570.781313060870161
99570.806508886977099
99570.844104064628482
99570.894585693153203
99570.95850906985288
99571.036451964144362
99658.52993690961739
99658.773578167907544
99657.819896552027785
99657.727904997111182
99657.700930461476673
99657.467882464246941
99657.168619494521408
99656.873763872878044
99656.570706978702219
99656.23960761341732
99655.862969260735554
99655.443727726553334
99655.000685875857016
99654.546490271983203
99654.082610761077376
99653.605922515213024
99653.117096248679445
99652.623200472415192
99652.121520718152169
99651.59651382661832
99651.051880494080251
99650.50873953057453
99649.980529010848841
99649.460352455222164
99648.940310502206557
99648.422087291139178
99647.911631792740081
99647.404014244588325
99646.893788520348608
99646.380854207411176
99645.868908327625832
99645.363814160227776
99644.869402392709162
99644.385366379123298
99643.909867673268309
99643.438140188765828
99642.963072537037078
99642.482269535132218
99642.005897393581108
99641.548542394695687
99641.115171173354611
99640.6985426635365
99640.288140015894896
99639.878024573175935
99639.4670936363691
99639.055216611290234
99638.646053812466562
99638.244153825507965
99637.850328637709026
99637.462410794731113
99637.077728535106871
99636.696451948606409
99636.320840433007106
99635.951785543846199
99635.588380635745125
99635.230562706521596
99634.877916304933024
99634.526992111335858
99634.174699274633895
99633.821001330245053
99633.470860323985107
99633.129135900599067
99632.797634009286412
99632.473384822820663
99632.153382766075083
99631.839622362313094
99631.536186696888763
99631.243835830144235
99630.958562005398562
99630.674904001949471
99630.389927527154214
99630.104084381324355
99629.819096082283068
99629.535136672842782
99629.251600060029887
99628.968212853724253
99628.684657403820893
99628.399699906178284
99628.113578089003568
99627.828294548060512
99627.546789574043942
99627.27019306019065
99626.997498309137882
99626.725790803306154
99626.45225168626348
99626.176684277816094
99625.901910329659586
99625.631189339226694
99625.365023409365676
99625.099706321590929
99624.831357991570258
99624.559882431989536
99624.289848228596384
99624.027489859203342
99623.775045662070625
99623.530787499184953
99623.291826518339803
99623.056251574394992
99622.82384246190486
99622.594515826174757
99622.367343945647008
99622.141509815017343
99621.915781008210615
99621.689248173934175
99621.461114101242856
99621.23125880464795
99621.000491911327117
99620.769461271745968
99620.537943787348922
99620.305670913527138
99620.073652201026562
99619.843745132253389
99619.618305693977163
99619.397739638210624
99619.180573827165063
99618.96464947143977
99618.749060903457575
99618.534671793473535
99618.32342526235152
99618.116813186614309
99617.914265450992389
99617.71267493540654
99617.508466069673887
99617.300104187946999
99617.088920829308336
99616.877340122751775
99616.666992180544185
99616.458069462401909
99616.249985312664649
99616.042524458971457
99615.836295693268767
99615.632596226249007
99615.433157111896435
99615.239022847876186
99615.049919391996809
99614.863781268781167
99614.677546839448041
99614.489795554705779
99614.301659508360899
99614.1157475716318
99613.933532634546282
99613.753539736848325
99613.572734884350211
99613.388772805090412
99613.201636884477921
99613.013376346745645
99612.826668158260873
99612.642970347340452
99612.462128312778077
99612.283306149111013
99612.105847155180527
99611.929321752657415
99611.753284223261289
99611.57704629105865
99611.399431326848571
99611.219471949589206
99611.037048129903269
99610.853090717355371
99610.669031579789589
99610.486051967032836
99610.304720425556297
99610.125090141533292
99609.947151095417212
99609.7714261628862
99609.598816202153102
99609.429315937071806
99609.261521586668096
99609.093156758448458
99608.922710439059301
99608.750193367901375
99608.577256516669877
99608.406271941872546
99608.239097020035842
99608.075451125609106
99607.913185587458429
99607.74968091660412
99607.583378391791484
99607.414952442748472
99607.246812850105925
99607.081496652725036
99606.91988577657321
99606.760617082836688
99606.600520023901481
99606.436334222948062
99606.266807538791909
99606.093593283061637
99605.920097562979208
99605.749659328081179
99605.584126044239383
99600.243234164532623
99600.107422885019332
99599.973574003917747
99599.841155955000431
99599.709916023435653
99599.579923212892027
99599.451377991746995
99599.32455089846917
99599.199202080912073
99599.074644613196142
99598.949964760395233
99598.824232045168173
99598.696986418857705
99598.568506173192873
99598.439247536691255
99598.309630680450937
99598.179874956360436
99598.050201861129608
99597.921018989945878
99597.792657223151764
99597.665209963292
99597.538580344058573
99597.41248141824326
99597.286463054435444
99597.160097236861475
99597.03307440833305
99596.90537781441526
99596.777317733256496
99596.649293684196891
99596.521903302505962
99596.395990928882384
99596.272322779885144
99596.151348887913628
99596.032963039455353
99595.916471468226518
99595.800779874043656
99595.684591710669338
99595.566805352427764
99595.447086651285645
99595.325871893524891
99595.204165434784954
99595.083143258336349
99594.963871630592621
99594.846903069555992
99594.732124222995481
99594.618953429249814
99594.506661018254817
99594.394744659060962
99594.283084954688093
99594.172059444666957
99594.062436842621537
99593.955064438734553
99593.850646116261487
99593.749314456275897
99593.65043877637072
99593.552612525454606
99593.45427454750461
99593.35410695761675
99593.251377481792588
99593.146294157995726
99593.03983251270256
99592.933275010815123
99592.827580467637745
99592.723083995471825
99592.619583086911007
99592.516519042721484
99592.413144723919686
99592.308840818397584
99592.203154643299058
99592.095851144142216
99591.986832800044795
99591.875948603090364
99591.763273723176098
99591.649077663969365
99591.533796152158175
99591.417901018634439
99591.301901651881053
99591.186218357281177
99591.071114995473181
99590.956597272583167
99590.842392043428845
99590.727929354470689
99590.612495277469861
99590.495389969073585
99590.376094643070246
99590.254429384556715
99590.130633589520585
99590.005501502688276
99589.880161541397683
99589.755765371039161
99589.633309233176988
99589.513347824991797
99589.396058253405499
99589.281287162870285
99589.168582193917246
99589.057385377964238
99588.947009909315966
99588.836841611075215
99588.726232266752049
99588.614678417929099
99588.501796366108465
99588.38739159234683
99588.271547279320657
99588.154627091309521
99588.037180248342338
99587.919805016514147
99587.802978452353273
99587.686959570011823
99587.571738425467629
99587.457118286227342
99587.342691701764124
99587.228042578353779
99587.112906893045874
99586.997196719079511
99586.880879350603209
99586.763855677199899
99586.646060954299173
99586.527579000670812
99586.408631525890087
99586.289653209649259
99586.171121698454954
99586.053560126340017
99585.937397693196544
99585.822896820158348
99585.710183555391268
99585.599234750145115
99585.4899940926407
99585.382379107846646
99585.276319141048589
99585.171600010842667
99585.067744302854408
99584.963872339154477
99584.85887014157197
99584.751687330048298
99584.64148357124941
99584.527794233945315
99584.410714090277907
99584.290923126376583
99584.169433070361265
99584.047226778930053
99583.92506253560714
99583.803337190052844
99583.682059999380726
99583.561031010976876
99583.440115982128191
99583.319491650006967
99583.199732181077707
99583.081602185557131
99582.965795742129558
99582.852714783264673
99582.742361920594703
99582.634281716949772
99582.527789368628873
99582.422164959280053
99582.316775331128156
99582.211182283732342
99582.104996237554587
99581.997843589197146
99581.889220425349777
99581.778546252360684
99581.665242215123726
99581.548891487545916
99581.429436104139313
99581.307268324264442
99581.183241606297088
99581.058503846390522
99580.934210999650531
99580.811223993208841
99580.690011646205676
99580.570560476990067
99580.452520468650619
99580.335361836027005
99580.218589100113604
99580.101762836333364
99579.984489377355203
99579.866612783065648
99579.748121954529779
99579.628929793048883
99579.508983184132376
99579.388221474902821
99579.266638035769574
99579.144277890009107
99579.021197534399107
99578.897498753809487
99578.773265155105037
99578.648561016554595
99578.523431231515133
99578.397904588913661
99578.272094245374319
99578.146179078466957
99578.020343704134575
99577.894728437124286
99577.769519654786563
99577.644915003504138
99577.521073381052702
99577.398125037987484
99577.276103055235581
99577.155003290259629
99577.034832374716643
99576.915608891606098
99576.797336560412077
99576.679874185530934
99576.562952662643511
99576.446279072595644
99576.329494391990011
99576.21227575217199
99576.094419942121021
99575.975858656689525
99575.856641634003608
99575.736947334575234
99575.616981258353917
99575.496914498944534
99575.376853690933785
99575.256790993618779
99575.13662485560053
99575.016314757507644
99574.895934948552167
99574.775778060386074
99574.656391425043694
99574.538530635822099
99574.423067715557409
99574.310851372865727
99574.202610722961253
99574.09889327736164
99573.999992176817614
99573.905939530421165
99573.816554638222442
99573.731511811172822
99573.650413240335183
99573.572883928471128
99573.498658555326983
99573.427619418303948
99573.359780415281421
99573.295318463045987
99573.234517825680086
99573.177813234549831
99573.125714435125701
99573.078744061160251
99573.037504731473746
99573.002647978108143
99572.97484602946497
99572.954774607511354
99572.943047687818762
99572.940193561458727
99572.946634848238318
99572.962820484637632
99572.989321715780534
99573.026713205632404
99573.075568735410343
99573.136449577199528
99573.209883318064385
99573.296307974800584
99573.39615484517708
99573.509839718724834
99573.637817034803447
99656.221488367533311
99657.27493183389015
99657.080024571914691
99657.002565176400822
99657.001475169774494
99656.872324769588886
99656.667439473239938
99656.45699751470238
99656.230065459880279
99655.961051210702863
99655.632535239245044
99655.247345238778507
99654.823133820318617
99654.380108026176458
99653.928453645843547
99653.47165614979167
99653.005523529354832
99652.528571853792528
99652.038933708812692
99651.527016290288884
99650.992569158042897
99650.458041427657008
99649.939754594583064
99649.433349312312203
99648.926491922102286
99648.418418324305094
99647.915353526099352
99647.41635745196254
99646.916808054185822
99646.415287419309607
99645.91430162814504
99645.418599569122307
99644.930397504023858
99644.447760366689181
99643.969596944880323
99643.493249963779817
99643.014802228979534
99642.533648398224614
99642.058135684448644
99641.597107077017426
99641.153056015667971
99640.724142585138907
99640.307969483095803
99639.902247144651483
99639.503213517382392
99639.104455546999816
99638.702125921772677
99638.298365093985922
99637.899091535888147
99637.506589476150111
99637.12020978682267
99636.739874892111402
99636.365679190159426
99635.998049248126335
99635.636638404888799
99635.280728233585251
99634.928347695429693
99634.576126681888127
99634.221547550536343
99633.865067873673979
99633.511971977495705
99633.167727500054752
99632.833929407162941
99632.50762289299746
99632.186308450065553
99631.87184940467705
99631.568374348746147
99631.27687683844124
99630.993418346857652
99630.712856018231832
99630.432631787465652
99630.152028839394916
99629.870937635496375
99629.588063474890077
99629.302343166229548
99629.013549824929214
99628.722755964845419
99628.431857294941437
99628.143282312361407
99627.858029971946962
99627.576534683539649
99627.298353113583289
99627.023764243363985
99626.752054947661236
99626.481337353819981
99626.209564869772294
99625.93703054577054
99625.665848228454706
99625.397317460403428
99625.129481821568334
99624.86005421547452
99624.589475887434673
99624.322724023062619
99624.063868170283968
99623.813129892732832
99623.568127053920762
99623.326188401639229
99623.086957327337586
99622.850621546123875
99622.617474123588181
99622.387489120199461
99622.1593905253103
99621.931694733779295
99621.703000428460655
99621.472805214623804
99621.242177561842254
99621.012385722919134
99620.784143476616009
99620.556864032507292
99620.32934355699399
99620.10236471609096
99619.8776415551838
99619.65718741544697
99619.440835227884236
99619.226874223415507
99619.012834849054343
99618.79722495994065
99618.580987483277568
99618.367108574893791
99618.157523297282751
99617.951628763868939
99617.746578565900563
99617.539192773459945
99617.327991141515668
99617.114120610625832
99616.899390186081291
99616.685382666168152
99616.472959563994664
99616.262706404508208
99616.055108807981014
99615.850246385351056
99615.648245539181517
99615.449842521789833
99615.256097042758483
99615.066800446220441
99614.879222483781632
99614.690008369434508
99614.498180546928779
99614.305507221084554
99614.115422617076547
99613.93016566701408
99613.748755479522515
99613.567913406950538
99613.384827619433054
99613.198506806133082
99613.010214316644124
99612.822052431831253
99612.635775395639939
99612.451996208255878
99612.270854244954535
99612.092345700322767
99611.916158555846778
99611.7415929796407
99611.567276540212333
99611.391619639587589
99611.213324012671364
99611.032209997225436
99610.84901040387922
99610.665238998204586
99610.482236407682649
99610.300698634411674
99610.121078599564498
99609.943743108335184
99609.769186619698303
99609.597901982793701
99609.429576137888944
99609.262393541532219
99609.094116225096514
99608.923703113134252
99608.751679750508629
99608.580050028598635
99608.411068142129807
99608.245995653924183
99608.084083617126453
99607.922876591808745
99607.759593738854164
99607.59295673048473
99607.424243810004555
99607.256431566944229
99607.092109711709782
99606.93214356371027
99606.775077972837607
99606.617391511579626
99606.455835722226766
99606.288991409150185
99606.117961551761255
99605.945929051813437
99605.776123302901397
99605.610621826926945
99600.257044816433336
99600.123363817168865
99599.991300687470357
99599.860264914575964
99599.730180543483584
99599.601439873993513
99599.474486809165683
99599.349462695710827
99599.225856866905815
99599.102554466153379
99598.978444679567474
99598.852756987296743
99598.725323996884981
99598.596587130741682
99598.467150443888386
99598.337521095716511
99598.208009023874183
99598.079021003373782
99597.950796733872266
99597.823518490447896
99597.697232609643834
99597.571737213525921
99597.446527542051626
99597.320995707807015
99597.194842875207542
99597.068011463808944
99596.94065560476156
99596.812853165058186
99596.684821271075634
99596.556991131816176
99596.429983763722703
99596.304535944451345
99596.181282371719135
99596.060561772392248
99595.942159951213398
99595.825288155756425
99595.708803843197529
99595.591560688233585
99595.472974678312312
99595.353080505417893
99595.232597682086634
99595.11274411501654
99594.99452347191982
99594.878452576638665
99594.764319134512334
99594.651591751418891
99594.539649660684518
99594.427900638314895
99594.31617027860193
99594.204739027452888
99594.094452736491803
99593.986335245441296
99593.881195475012646
99593.779226094979094
99593.679793505172711
99593.581524130611797
99593.482825392406085
99593.382370586550678
99593.279548840102507
99593.1746602334606
99593.068703310607816
99592.962850114810863
99592.85802072500519
99592.754572805119096
99592.652276071370579
99592.550418037455529
99592.448106523224851
99592.344621302487212
99592.239486640726682
99592.132601621138747
99592.024138581822626
99591.91421047730546
99591.802921657043044
99591.690387087088311
99591.576745729558752
99591.462219338078285
99591.347261962218909
99591.232500296493527
99591.118368794268463
99591.005111706224852
99590.89261417988746
99590.780371003609616
99590.667405822445289
99590.552669921948109
99590.435384400494513
99590.315223405588767
99590.192481184669305
99590.068189365061698
99589.943684199417476
99589.820270395313855
99589.699010575364809
99589.580465311431908
99589.464737888338277
99589.351653269550297
99589.240728301345371
99589.131454972462961
99589.023415786228725
99588.916106360193226
99588.808821601691307
99588.700850711000385
99588.59151205906528
99588.480421709522489
99588.367561879305867
99588.2531876515568
99588.137829880608479
99588.022022918492439
99587.906337457330665
99587.79116240577423
99587.67668695935572
99587.562897443262045
99587.449613946911995
99587.336575822468149
99587.223598716504057
99587.110630808325368
99586.997588577185525
99586.884271698916564
99586.770506000088062
99586.656146583191003
99586.54125771363033
99586.426096950977808
99586.311062859444064
99586.19668283322244
99586.083455821411917
99585.971779884988791
99585.861860280740075
99585.753725142974872
99585.647406225034501
99585.542853060003836
99585.439884408333455
99585.338032471918268
99585.236579047268606
99585.134673172637122
99585.031414692668477
99584.925983457593247
99584.817722885301919
99584.706449854842504
99584.592415788196377
99584.47626562298683
99584.358894537057495
99584.241155875846744
99584.123611227812944
99584.006523173462483
99583.889872806335916
99583.773588962882059
99583.657711231324356
99583.542549628808047
99583.428644642946892
99583.31661026396614
99583.206976137196762
99583.100059382835752
99582.995811268512625
99582.893687255767873
99582.793012329289922
99582.69319864915451
99582.593768039048882
99582.494347123152693
99582.394591022806708
99582.29412799885904
99582.192448918067385
99582.088934669693117
99581.982931291291607
99581.874011497624451
99581.762177271419205
99581.647923138487386
99581.53212877792248
99581.415906280541094
99581.300338016371825
99581.186152164140367
99581.073722879038542
99580.962885661734617
99580.853178807752556
99580.74405461261631
99580.635059160049423
99580.52588022389682
99580.416461360771791
99580.306791079419781
99580.196881628056872
99580.086809424436069
99579.976613350518164
99579.866305231378647
99579.755867494634003
99579.645212115356117
99579.534321943312534
99579.423277474750648
99579.312135943386238
99579.200932317224215
99579.089740452327533
99578.978665217699017
99578.867814662051387
99578.757390313185169
99578.647577701412956
99578.538522647926584
99578.430296632606769
99578.322928205292556
99578.216416090974235
99578.110772418527631
99578.006050644151401
99577.902333720005117
99577.79976148228161
99577.698436642240267
99577.598372456923244
99577.499495094409212
99577.401659221490263
99577.304692852514563
99577.208299821140827
99577.112203050142853
99577.016217714961385
99576.920302286162041
99576.824508876161417
99576.728960030974122
99576.633817516805721
99576.539213320123963
99576.445176045453991
99576.351569703881978
99576.258201877746615
99576.16495609699632
99576.071896291425219
99575.979340819569188
99575.887803315214114
99575.797984030403313
99575.710730139195221
99575.627033380384091
99575.547768427946721
99575.473594167880947
99575.404875711581553
99575.341689218446845
99575.283951510427869
99575.231403746714932
99575.183723425710923
99575.140596803030348
99575.101753108086996
99575.067097072518663
99575.036628191461205
99575.010362857690779
99574.988416623295052
99574.971138943175902
99574.959035186548135
99574.952675866225036
99574.952662447365583
99574.959614315899671
99574.97411824685696
99574.99676916419412
99575.028165529642138
99575.068851582342177
99575.119308111388818
99575.180026059388183
99575.251539218152175
99575.334364087844733
99575.429003061712137
99575.535942603863077
99575.655674918132718
99575.78867640059616
99575.935379285452655
99576.096200362837408
99576.271599885163596
99576.462099532131106
99657.07680532419181
99657.850287261229823
99657.495681829983369
99657.26838051599043
99657.185976047971053
99657.075588560488541
99656.880679303809302
99656.612758185263374
99656.297122589123319