/*--------------------------------*- C++ -*----------------------------------*\
  =========                 |
  \\      /  F ield         | OpenFOAM: The Open Source CFD Toolbox
   \\    /   O peration     | Website:  https://openfoam.org
    \\  /    A nd           | Version:  12
     \\/     M anipulation  |
\*---------------------------------------------------------------------------*/
FoamFile
{
    format      ascii;
    class       volScalarField;
    location    "0.017";
    object      pPrime2Mean;
}
// * * * * * * * * * * * * * * * * * * * * * * * * * * * * * * * * * * * * * //

dimensions      [2 -2 -4 0 0 0 0];

internalField   nonuniform List<scalar> 
75962
(
1192642.7694301605225
1171835.8459701538086
1163307.157787322998
1157533.6483478546143
1153203.7479629516602
1149681.7432479858398
1146511.1630249023438
1143516.4000282287598
1140676.73655128479
1137950.7503623962402
1135329.6018409729004
1132815.8371829986572
1130406.49072265625
1128094.1141681671143
1125911.315860748291
1123889.2669162750244
1122014.3536605834961
1120256.5379867553711
1118579.8442420959473
1116971.7287616729736
1115402.279935836792
1113817.7682819366455
1112216.6016941070557
1110650.5900783538818
1109174.3207721710205
1107805.8802223205566
1106546.1347522735596
1105418.737398147583
1104444.1590442657471
1103601.0897655487061
1102858.2183113098145
1102194.5355072021484
1101579.5839614868164
1100985.1431121826172
1100391.019847869873
1099789.5810852050781
1099181.3520488739014
1098576.0104351043701
1097961.3725318908691
1097321.6370143890381
1096648.7743129730225
1095950.9071292877197
1095243.2255477905273
1094531.4195880889893
1093811.6993618011475
1093070.7590255737305
1092288.0208168029785
1091448.6396865844727
1090555.8208351135254
1089619.9115219116211
1088646.337797164917
1087635.2785034179688
1086583.3953876495361
1085494.4031047821045
1084384.6671829223633
1083265.2382850646973
1082138.4550094604492
1081014.821849822998
1079905.7645816802979
1078818.2405891418457
1077754.9714660644531
1076715.8776988983154
1075699.047212600708
1074699.9489364624023
1073710.6406440734863
1072722.2467842102051
1071725.1316013336182
1070713.9253158569336
1069693.0251369476318
1068669.3455181121826
1067647.728874206543
1066624.9401168823242
1065589.3791484832764
1064536.0348358154297
1063468.4714469909668
1062391.3130168914795
1061310.619291305542
1060229.4743957519531
1059149.4335632324219
1058065.8903636932373
1056972.9148712158203
1055871.7251682281494
1054771.3274002075195
1053680.258129119873
1052600.8360786437988
1051528.808952331543
1050457.8918151855469
1049387.2910099029541
1048324.9699687957764
1047284.7580661773682
1046275.5216217041016
1045294.807315826416
1044333.090124130249
1043383.9378662109375
1042449.9679126739502
1041538.1607971191406
1040650.1915912628174
1039778.8087329864502
1038916.1639022827148
1038056.4742069244385
1037196.77760887146
1036337.1333675384521
1035480.5427513122559
1034629.253511428833
1033780.8274803161621
1032931.9512062072754
1032079.2004051208496
1031218.5285205841064
1030345.5084972381592
1029455.6556129455566
1028543.397705078125
1027604.7235774993896
1026637.58376121521
1025640.4235744476318
1024611.5251445770264
1023547.9618892669678
1022448.2888355255127
1021311.3414459228516
1020134.5260200500488
1018916.5075378417969
1017660.210391998291
1016373.5180625915527
1015067.3350315093994
1013748.9149150848389
1012418.8538551330566
1011074.6657390594482
1009716.0986423492432
1008347.7657432556152
1006976.5274028778076
1005607.8629493713379
1004246.7249603271484
1002899.3238754272461
1001571.4407005310059
1000266.8329257965088
998986.26494979858398
997730.67751502990723
996502.92058181762695
995306.16185569763184
994142.63948059082031
993013.31491470336914
991918.33780860900879
990858.8460521697998
989835.21230888366699
988842.67815589904785
987871.02919769287109
986907.76998138427734
985944.05534362792969
984975.49145317077637
984000.33949661254883
983016.99025726318359
982021.72883987426758
981009.21002769470215
979975.63888168334961
978920.45910453796387
977844.68587875366211
976748.70355415344238
975632.46480178833008
974496.92005729675293
973343.8643741607666
972174.15135383605957
970986.64582633972168
969778.62481117248535
968548.98664283752441
967301.27936363220215
966042.67056274414062
964778.5887336730957
963510.73884963989258
962238.98656463623047
960965.48271179199219
959695.75594139099121
958434.07867622375488
957179.18144226074219
955926.36869239807129
954673.5119686126709
953424.58046531677246
952188.33890151977539
950974.18966484069824
949787.56996917724609
948628.14682769775391
947492.13362121582031
946374.97934150695801
945274.37472343444824
944191.67694473266602
943131.91983985900879
942100.26125144958496
941097.58891105651855
940118.30068588256836
939152.38810348510742
903577.98564720153809
902702.38926887512207
901818.6028881072998
900923.36836433410645
900015.96017837524414
899098.51797294616699
898173.27255058288574
897239.38838005065918
896293.497314453125
895333.11587142944336
894358.86388397216797
893374.46025276184082
892385.06105613708496
891395.34140396118164
890407.76320838928223
889420.99355125427246
888430.42981338500977
887430.44510650634766
886416.42545127868652
885386.06990242004395
884339.56438064575195
883278.48014640808105
882204.99348449707031
881121.5493278503418
880031.31852149963379
878937.78273010253906
877843.10814666748047
876747.19865989685059
875648.59035491943359
874546.98802757263184
873444.29790878295898
872343.92487335205078
871250.20878410339355
870168.40073013305664
869104.10883522033691
868061.83259201049805
867043.29767227172852
866045.94478416442871
865063.52427673339844
864088.26615905761719
863114.25634384155273
862139.98826789855957
861168.31942367553711
860203.96312713623047
859251.05742645263672
858310.95298957824707
857381.83650588989258
856459.84814262390137
855541.11462211608887
854624.22801780700684
853710.98285865783691
852805.49390029907227
851911.22437477111816
851028.5234432220459
850153.94474029541016
849281.33651351928711
848404.4855785369873
847519.80178260803223
846627.74523544311523
845732.09397315979004
844836.61655044555664
843942.0726318359375
843045.82863998413086
842144.03138160705566
841234.51701354980469
840318.00468254089355
839396.89932823181152
838473.70421981811523
837549.52434539794922
836624.26496696472168
835698.06204223632812
834772.19163513183594
833848.23834800720215
832926.05806922912598
832003.6135082244873
831078.38776779174805
830148.62461853027344
829214.07128524780273
828275.67340850830078
827335.38829231262207
826395.37063217163086
825456.35693740844727
824516.56515121459961
823571.88582992553711
822617.89731788635254
821651.83313369750977
820673.66951560974121
819685.81190299987793
818691.40605163574219
817691.87507438659668
816685.4166259765625
815668.86306381225586
814640.85083389282227
813604.04182624816895
812564.06100463867188
811526.52174949645996
810494.09392356872559
809465.50167846679688
808437.39592170715332
807407.1298656463623
806374.88425827026367
805343.56608390808105
804317.18425559997559
803299.3830623626709
802292.41756057739258
801296.55195045471191
800310.33392333984375
799331.7652416229248
798359.58261871337891
797393.28949737548828
796432.85462951660156
795478.79433250427246
794532.90009498596191
793597.89556503295898
792676.00996780395508
791767.53248977661133
790870.74873161315918
789983.39893531799316
789104.4252758026123
788234.37153244018555
787374.15967750549316
786523.5783748626709
785681.06906127929688
784844.91049194335938
784013.96627807617188
783187.5716381072998
782364.66825103759766
781543.2154369354248
780720.58091163635254
779894.87859153747559
779066.58823013305664
778238.89413070678711
777415.92548751831055
776600.21584320068359
775790.76223182678223
774983.45096588134766
774172.62758636474609
773352.83874893188477
772519.54254341125488
771669.56404685974121
770801.65156364440918
769916.95801162719727
769019.09857559204102
768113.01203918457031
767203.15766334533691
766291.80471611022949
765378.70416069030762
764461.77790641784668
763538.7448616027832
762607.95091247558594
761668.17520332336426
760717.96370124816895
759755.84888648986816
758781.30641555786133
757796.07256126403809
756804.07232666015625
755809.87052726745605
754817.29421806335449
753829.05373191833496
752847.42728424072266
751874.77554893493652
750913.53988647460938
749964.96859550476074
749028.21873474121094
748100.18279075622559
747176.86710548400879
746255.15679740905762
745333.86673736572266
744413.71305084228516
743496.63164138793945
742585.10039520263672
741681.68888473510742
740788.86130905151367
739908.63232803344727
739042.14141654968262
738189.56643104553223
737350.04974365234375
736522.30366706848145
735705.07560729980469
734897.66162300109863
734100.08381271362305
733312.6978816986084
732535.56162261962891
731767.87891960144043
731007.76907920837402
730252.46288871765137
729498.97061347961426
728745.03913307189941
727989.98951721191406
727234.92255592346191
726481.83723831176758
725732.02209281921387
724985.03645324707031
724239.11667251586914
723492.60511207580566
722745.23569488525391
721998.32404136657715
721253.79927444458008
720512.85926628112793
719775.08860778808594
719038.60720825195312
718301.02124977111816
717560.50069427490234
716816.5001392364502
716069.84332275390625
715322.09365653991699
714574.60563087463379
713827.67013359069824
713080.12405014038086
712329.53813934326172
711572.92305946350098
710807.70577621459961
710032.72732162475586
709248.72089958190918
708457.76035690307617
707661.86191368103027
706861.56388664245605
706055.6407642364502
705241.86758804321289
704418.34148216247559
703584.32173728942871
702740.5948657989502
701889.47614669799805
701034.60299682617188
700180.32420349121094
699330.69328689575195
698488.31381607055664
697653.80028915405273
696825.79677200317383
696001.37947654724121
695177.11869049072266
694350.58419036865234
693521.65335083007812
692692.95651435852051
691869.00224304199219
691054.24056243896484
690251.24831771850586
689459.81397247314453
688677.47765922546387
687900.90387916564941
687127.20330047607422
686354.87332534790039
685584.1241455078125
684816.71899032592773
684055.32096099853516
683302.48972702026367
682559.81748008728027
681827.53486442565918
681104.79395294189453
680390.28605079650879
679682.71950912475586
678981.061767578125
678284.73366928100586
677593.57374954223633
1201670.3128986358643
1177860.3834190368652
1168009.8158721923828
1160934.0515918731689
1155621.8539543151855
1151453.6990032196045
1147961.7878189086914
1144852.0665073394775
1141926.9852771759033
1139088.6406421661377
1136326.6192760467529
1133675.5814590454102
1131113.4638557434082
1128625.3031272888184
1126243.4708805084229
1124016.0903663635254
1121958.0336742401123
1120049.9896583557129
1118303.7874736785889
1116721.2302589416504
1115249.8318157196045
1113813.023157119751
1112363.8453979492188
1110910.8071193695068
1109473.520715713501
1108065.2623062133789
1106702.1116847991943
1105415.9671249389648
1104258.378942489624
1103251.141939163208
1102388.8917350769043
1101656.6762981414795
1101032.5264053344727
1100480.4817199707031
1099967.2423782348633
1099469.0033950805664
1098972.6335182189941
1098462.4270038604736
1097910.5691967010498
1097289.9295845031738
1096596.6748924255371
1095846.1970119476318
1095058.9700660705566
1094249.498254776001
1093423.6592082977295
1092582.2219276428223
1091719.8703269958496
1090827.7537975311279
1089901.7339687347412
1088944.2941856384277
1087956.3781147003174
1086935.7407073974609
1085884.1465530395508
1084802.5978622436523
1083695.9513969421387
1082566.1718082427979
1081418.9719619750977
1080265.5403232574463
1079120.2726211547852
1077997.7765331268311
1076906.8586597442627
1075855.9218940734863
1074848.0284690856934
1073879.6616096496582
1072941.2201290130615
1072016.4569625854492
1071091.6098899841309
1070159.2162857055664
1069219.9987850189209
1068277.343656539917
1067329.1107616424561
1066363.34202003479
1065370.0085830688477
1064352.9132823944092
1063322.6208820343018
1062285.7492980957031
1061243.0531024932861
1060192.4737701416016
1059130.2412338256836
1058053.825756072998
1056962.8202133178711
1055863.6701679229736
1054768.0370273590088
1053685.0325965881348
1052613.7016716003418
1051546.2361755371094
1050477.3354034423828
1049409.7285995483398
1048354.7998142242432
1047326.548002243042
1046333.2774791717529
1045370.5338668823242
1044425.4205989837646
1043487.6340351104736
1042558.4911708831787
1041646.773344039917
1040757.4151077270508
1039886.7239456176758
1039026.4390830993652
1038167.4605293273926
1037303.0660362243652
1036431.2231826782227
1035557.5659656524658
1034688.0970077514648
1033823.3290615081787
1032959.2421970367432
1032090.4398384094238
1031212.6149044036865
1030323.072359085083
1029419.1712169647217
1028496.3211650848389
1027548.4944515228271
1026570.2431163787842
1025558.0874805450439
1024511.0435333251953
1023431.295295715332
1022323.0785942077637
1021186.5393466949463
1020015.1967525482178
1018802.7865428924561
1017548.8590602874756
1016261.008415222168
1014950.8721332550049
1013626.8400688171387
1012291.4068508148193
1010942.5506477355957
1009578.7708015441895
1008202.4848804473877
1006818.9556674957275
1005434.1492881774902
1004054.9873886108398
1002688.3503704071045
1001340.3225536346436
1000013.1862659454346
998706.94146728515625
997424.88493919372559
996173.70061683654785
994958.64600372314453
993780.2236213684082
992635.96038627624512
991523.61555099487305
990443.94585990905762
989398.95766830444336
988385.52835273742676
987392.47902297973633
986406.63693428039551
985420.33375358581543
984432.14850616455078
983441.95690536499023
982447.56499671936035
981443.87885665893555
980424.89522743225098
979387.62576866149902
978332.88235473632812
977262.4953727722168
976176.00542449951172
975072.64488220214844
973953.39579010009766
972820.94405937194824
971676.92027282714844
970519.84138679504395
969345.67516136169434
968151.89090156555176
966940.53743934631348
965716.95330047607422
964486.03134536743164
963250.09160995483398
962008.94755554199219
960762.97725486755371
959514.63834190368652
958266.16974449157715
957017.29156684875488
955767.17590522766113
954517.38564491271973
953274.02562141418457
952045.21371841430664
950837.53544998168945
949654.02111625671387
948493.88230323791504
947353.73557662963867
946229.85055160522461
945121.1467113494873
944029.84566307067871
942960.77170944213867
941919.22031402587891
940906.84579849243164
939919.04484748840332
938946.20833969116211
937978.72958374023438
904338.28819847106934
903460.45991516113281
902581.2437629699707
901695.79899597167969
900800.03858184814453
899892.86133575439453
898976.09853744506836
898051.95398902893066
897119.66906356811523
896175.81967353820801
895217.99337959289551
894246.83159637451172
893266.49035835266113
892282.98219299316406
891301.04808235168457
890322.03437232971191
889343.03496551513672
888357.95094299316406
887360.74978828430176
886347.15038871765137
885315.93139266967773
884268.8629264831543
883209.13156318664551
882139.63352012634277
881062.33470344543457
879978.79716873168945
878890.74184989929199
877799.56121063232422
876705.4557056427002
875607.54061889648438
874506.22613143920898
873403.54147911071777
872302.98782730102539
871208.88111877441406
870126.55827331542969
869062.09080505371094
868020.22963905334473
867002.0467643737793
866003.97897911071777
865018.98577308654785
864039.31759834289551
863060.06603813171387
862080.79916191101074
861105.1949462890625
860137.93214225769043
859182.23891830444336
858238.00502014160156
857302.02341651916504
856369.77075958251953
855437.77872848510742
854505.3726863861084
853575.47799301147461
852653.69560432434082
851744.81955718994141
850849.41971588134766
849963.1981372833252
849079.02470779418945
848190.38675117492676
847294.0841007232666
846390.59267997741699
845482.11951446533203
844570.58817863464355
843655.83713531494141
842736.22380638122559
841810.5265064239502
840878.95117950439453
839943.08323097229004
839005.01466369628906
838066.36618423461914
837127.67596626281738
836188.50593757629395
835248.8419246673584
834310.21276473999023
833374.67070770263672
832442.49316596984863
831511.39801597595215
830577.95515060424805
829639.80273628234863
828696.55820083618164
827749.75054168701172
826802.18334579467773
825856.50213241577148
824913.39340019226074
823970.52381706237793
823022.81661224365234
822065.08922576904297
821094.59971046447754
820112.14293670654297
819120.70838737487793
818123.35983276367188
817121.20793914794922
816112.35522842407227
815093.49720001220703
814063.09986877441406
813023.43438720703125
811980.32356262207031
810939.79514503479004
809905.00027847290039
808874.91239166259766
807846.00130271911621
806815.44861030578613
805783.41227149963379
804753.24754333496094
803729.50360679626465
802715.88238716125488
801714.12167549133301
800723.97888565063477
799744.0545711517334
798772.85419273376465
797809.80297088623047
796854.72104454040527
795907.16901397705078
794966.53347969055176
794033.17392730712891
793109.03244209289551
792196.51612091064453
791296.88350677490234
790409.16441345214844
789531.23347473144531
788662.04829216003418
787802.51125717163086
786954.22658157348633
786117.36638259887695
785290.07599258422852
784469.63999176025391
783653.89738273620605
782841.74591827392578
782032.33100700378418
781224.21744537353516
780415.34021186828613
779604.12784385681152
778790.67609977722168
777977.06424140930176
777166.2944221496582
776360.36913871765137
775558.99263572692871
774759.42306137084961
773957.44419288635254
773148.3705005645752
772327.53003120422363
771491.17410469055176
770636.9524040222168
769764.81010818481445
768877.2685546875
767978.50022888183594
767072.70540237426758
766162.4564380645752
765248.19706344604492
764328.88066673278809
763403.19302368164062
762470.05901145935059
761528.2716178894043
760576.41339492797852
759613.31835174560547
758638.94604301452637
757655.18898582458496
756665.50287628173828
755673.91850471496582
754684.18029975891113
753699.63219451904297
752723.24355888366699
751757.29282379150391
750803.07447624206543
749860.26291656494141
748926.91327667236328
748000.21793746948242
747077.75227737426758
746158.20797920227051
745241.6248950958252
744328.70668411254883
743420.33431434631348
742517.51879119873047
741621.51376342773438
740733.94994163513184
739856.57315063476562
738990.90324211120605
738137.76735305786133
737297.04458427429199
736467.99714088439941
735649.54568481445312
734840.95951652526855
734041.98344802856445
733252.56434631347656
732472.30314826965332
731699.95889091491699
730933.50585556030273
730170.40558624267578
729408.01405906677246
728644.28855514526367
727878.60287857055664
727112.26042938232422
726347.87231254577637
725587.77227210998535
724832.56401824951172
724080.77330207824707
723329.93158721923828
722578.15133285522461
721825.24712562561035
721072.65707588195801
720322.25875854492188
719575.0518627166748
718830.50787544250488
718086.90625381469727
717342.45887184143066
716596.21763610839844
715848.26035308837891
715099.22928237915039
714349.58123397827148
713599.08290100097656
712846.64344215393066
712090.37763404846191
711327.89173698425293
710556.84785270690918
709775.93307113647461
708985.7216796875
708188.47003936767578
707386.73179626464844
706581.78522872924805
705772.86173248291016
704957.53450965881348
704132.93730163574219
703297.1126594543457
702449.70584297180176
701592.17275619506836
700727.63016510009766
699860.46769332885742
698995.65200042724609
698137.65406036376953
697289.29496765136719
696450.60080909729004
695618.6137638092041
694788.55066108703613
693956.02284812927246
693118.99529075622559
692278.57549285888672
691438.41524887084961
690603.11119270324707
689776.58681488037109
688960.95850372314453
688156.303955078125
687361.06533241271973
686572.77245330810547
685788.77200889587402
685006.97385787963867
684226.5953540802002
683448.50564002990723
682674.98245048522949
681908.70164680480957
681151.77913284301758
680405.33706092834473
679669.73047828674316
678944.85043334960938
678230.28011131286621
677525.24919128417969
676828.53789138793945
1186170.7453708648682
1169796.6694984436035
1162493.4458866119385
1156418.1084098815918
1151477.9317111968994
1147551.8534488677979
1144440.4067134857178
1141870.4886779785156
1139577.141149520874
1137382.687837600708
1135197.4125843048096
1132981.1096019744873
1130713.7381839752197
1128423.2708988189697
1126135.0140419006348
1123895.491081237793
1121770.2117080688477
1119786.1816940307617
1117966.0443782806396
1116325.046594619751
1114826.5344371795654
1113388.2291049957275
1111947.6976356506348
1110509.018648147583
1109103.3619499206543
1107749.5129127502441
1106451.8318042755127
1105225.6754493713379
1104097.016077041626
1103084.1040439605713
1102189.965856552124
1101402.1959781646729
1100720.5835456848145
1100125.7640113830566
1099583.5223960876465
1099071.6342296600342
1098579.7902545928955
1098091.7968769073486
1097579.4230041503906
1097002.6464977264404
1096344.6719131469727
1095612.6379623413086
1094818.8954601287842
1093972.7629127502441
1093088.4592704772949
1092179.2487506866455
1091255.162691116333
1090321.411642074585
1089369.2525386810303
1088388.1688766479492
1087376.9613399505615
1086336.4698753356934
1085270.3879566192627
1084182.2948684692383
1083071.7311325073242
1081934.5105018615723
1080772.2693176269531
1079595.9738273620605
1078422.0584888458252
1077269.7454471588135
1076149.489294052124
1075065.4518260955811
1074021.9495143890381
1073022.726095199585
1072062.3365173339844
1071127.4139423370361
1070205.0540676116943
1069292.7860813140869
1068390.0222625732422
1067493.8432998657227
1066597.8041954040527
1065684.9103565216064
1064744.9873809814453
1063785.783971786499
1062820.2260494232178
1061854.5092754364014
1060882.5334529876709
1059896.0890140533447
1058887.2395420074463
1057851.5394401550293
1056790.7411403656006
1055715.1270008087158
1054637.4697036743164
1053564.1371879577637
1052493.5823554992676
1051420.9539394378662
1050345.4476470947266
1049274.6094875335693
1048220.9196720123291
1047196.0325374603271
1046206.049259185791
1045246.3655605316162
1044302.2786655426025
1043363.1101551055908
1042429.7008533477783
1041513.4852561950684
1040622.9960460662842
1039753.5416946411133
1038893.0474815368652
1038030.0407085418701
1037158.3351230621338
1036278.3560276031494
1035394.9343643188477
1034514.9728927612305
1033639.4716892242432
1032762.0345134735107
1031875.3832187652588
1030977.4478721618652
1030070.6875247955322
1029156.1415386199951
1028228.9171581268311
1027278.7850780487061
1026296.6111488342285
1025277.3386631011963
1024221.7231750488281
1023137.1769161224365
1022032.6737651824951
1020908.5926113128662
1019755.6501789093018
1018562.4809246063232
1017325.7463474273682
1016052.7222747802734
1014754.2260475158691
1013438.3412914276123
1012108.2408199310303
1010763.4995288848877
1009403.2011451721191
1008028.1759300231934
1006641.8156871795654
1005249.9157447814941
1003859.9984722137451
1002480.1557521820068
1001116.5963687896729
999770.75385856628418
998443.41116523742676
997139.55846977233887
995867.45538902282715
994632.92867469787598
993434.9533519744873
992269.7611026763916
991134.95277214050293
990031.05562782287598
988959.55120849609375
987916.78788757324219
986892.07551383972168
985874.20044136047363
984858.09662818908691
983845.29133987426758
982837.06582450866699
981830.29327201843262
980817.82099342346191
979792.66495704650879
978752.75787734985352
977699.54622650146484
976634.68765258789062
975558.19018936157227
974470.34944725036621
973373.03025436401367
972268.71797943115234
971158.59058380126953
970040.18603324890137
968908.44610786437988
967760.7207145690918
966598.52641296386719
965425.26426696777344
964243.75508880615234
963054.55668067932129
961856.52755546569824
960648.79025459289551
959432.06962203979492
958208.15976524353027
956978.06333923339844
955743.68523406982422
954509.34622192382812
953281.0982551574707
952064.77689743041992
950863.89157676696777
949680.35593605041504
948514.34683418273926
947364.51185607910156
946229.5822639465332
945110.0437126159668
944007.84387588500977
942926.4636344909668
941869.95413017272949
940840.29536819458008
939834.27861595153809
938844.46819305419922
937863.33903884887695
904207.38870429992676
903319.56207656860352
902432.51430511474609
901539.99711227416992
900636.96977615356445
899722.41754913330078
898799.1449146270752
897870.36257934570312
896935.9533576965332
895992.49882698059082
895036.93306732177734
894069.16137886047363
893092.71304321289062
892112.91090393066406
891134.04434585571289
890156.93939971923828
889178.53327369689941
888193.18810272216797
887194.9998836517334
886180.14256477355957
885148.15535926818848
884101.70693206787109
883045.28340721130371
881983.0044994354248
880917.19839668273926
879848.14445304870605
878775.34884262084961
877698.47455596923828
876617.19194412231445
875531.3389720916748
874441.88807487487793
873351.15598678588867
872262.43869018554688
871179.59071922302246
870106.91776275634766
869049.27255821228027
868010.95978355407715
866993.08476448059082
865992.08161354064941
865001.08171463012695
864013.60662078857422
863026.95832824707031
862042.26747512817383
861063.10994529724121
860093.10138130187988
859133.73557090759277
858182.97074317932129
857236.3359489440918
856289.47633743286133
855340.06460189819336
854389.04718971252441
853440.55768394470215
852500.78703689575195
851574.72699356079102
850662.66535758972168
849759.55305671691895
848858.01483917236328
847952.25102424621582
847040.05694389343262
846121.87959671020508
845198.28460121154785
844268.73157501220703
843332.39435577392578
842389.43356132507324
841441.37674903869629
840490.10126304626465
839536.95305633544922
838582.92103576660156
837628.71648979187012
836674.60298538208008
835720.70561790466309
834767.36264038085938
833816.09040260314941
832868.8090763092041
831925.8730583190918
830985.03698348999023
830042.79240226745605
829096.84823799133301
828146.83889579772949
827194.51390647888184
826242.61640167236328
825293.60564422607422
824347.70611381530762
823402.20243263244629
822452.03743171691895
821492.35767364501953
820520.99004173278809
819539.00614929199219
818549.02194404602051
817553.18073463439941
816551.83981895446777
815543.38365936279297
814525.42828941345215
813496.91653060913086
812459.65105247497559
811418.34911155700684
810378.69116973876953
809344.31926918029785
808315.18954849243164
807288.41634941101074
806261.30918312072754
805234.19525718688965
804210.58732604980469
803194.9232292175293
802190.14143371582031
801196.82248878479004
800213.98015975952148
799240.56576156616211
798276.46195983886719
797322.33661460876465
796378.46236419677734
795443.71688652038574
794516.14929008483887
793594.9289665222168
792681.42786026000977
791778.59097480773926
790888.75415229797363
790011.91836547851562
789146.3878231048584
788290.74454689025879
787445.10626411437988
786610.64646911621094
785787.60776519775391
784974.41624641418457
784168.30903816223145
783366.72208595275879
782568.07838249206543
781771.02409172058105
780974.0802116394043
780175.75022506713867
779375.21342277526855
778572.72450256347656
777769.51733207702637
776967.16999816894531
776166.83568954467773
775368.77441596984863
774571.83479309082031
773773.5577449798584
772970.61175918579102
772158.75240707397461
771333.6682186126709
770491.78128623962402
769631.55787086486816
768754.40365791320801
767863.90791702270508
766964.07659339904785
766057.66058921813965
765145.48695945739746
764227.08529090881348
763301.43557357788086
762367.32862854003906
761423.34693908691406
760468.50241851806641
759502.98287200927734
758528.44801330566406
757547.73088645935059
756563.94755935668945
755580.00237655639648
754598.71173095703125
753623.14291000366211
752656.20804405212402
751699.76919174194336
750754.03008460998535
749817.44673919677734
748887.54678153991699
747961.94952774047852
747039.48677062988281
746120.47822761535645
745206.08168792724609
744297.46063804626465
743395.34167289733887
742500.05579948425293
741611.74285697937012
740730.45531272888184
739856.41497802734375
738990.42359352111816
738133.74324798583984
737287.61217308044434
736452.72816848754883
735629.0118579864502
734815.790283203125
734011.98075675964355
733216.40481185913086
732427.82693481445312
731644.81744003295898
730865.95684051513672
730089.7737922668457
729314.63643074035645
728539.11552619934082
727762.73153114318848
726986.48163795471191
726212.56571769714355
725443.1702823638916
724679.22255516052246
723919.79766273498535
723162.6844539642334
722405.47518730163574
721646.6881160736084
720886.42400360107422
720126.01333045959473
719367.14346885681152
718610.93147087097168
717857.49014854431152
717106.10888481140137
716355.76070976257324
715605.57866287231445
714854.78779411315918
714102.5638427734375
713348.01366424560547
712590.24247741699219
711828.14816665649414
711060.05630111694336
710283.95107650756836
709498.41283798217773
708703.60009765625
707901.45247650146484
707094.58115005493164
706284.67833709716797
705471.45909309387207
704652.75833702087402
703825.62807083129883
702987.67662239074707
702138.03508186340332
701277.54397010803223
700408.39468574523926
699533.79261016845703
698658.04496574401855
697786.20801162719727
696922.88504600524902
696070.22310638427734
695226.76958465576172
694388.16635894775391
693549.25134658813477
692706.44558906555176
691858.95533561706543
691008.59059715270996
690158.6818790435791
689312.92136764526367
688474.4499340057373
687645.36602401733398
686826.55029106140137
686017.67875099182129
685217.22806930541992
684422.8223762512207
683632.19178199768066
682844.25094795227051
682059.58073616027832
681279.97152900695801
680507.44486808776855
679743.54536819458008
678989.30450439453125
678245.62671279907227
677513.47512054443359
676793.49839401245117
676085.44313049316406
675387.72868156433105
1196790.5551414489746
1174998.6759700775146
1165394.9280776977539
1158068.2361392974854
1152112.5385627746582
1147296.2070846557617
1143415.3567638397217
1140308.0429153442383