/*--------------------------------*- C++ -*----------------------------------*\
  =========                 |
  \\      /  F ield         | OpenFOAM: The Open Source CFD Toolbox
   \\    /   O peration     | Website:  https://openfoam.org
    \\  /    A nd           | Version:  12
     \\/     M anipulation  |
\*---------------------------------------------------------------------------*/
FoamFile
{
    format      ascii;
    class       volScalarField;
    location    "0.017";
    object      rho;
}
// * * * * * * * * * * * * * * * * * * * * * * * * * * * * * * * * * * * * * //

dimensions      [1 -3 0 0 0 0 0];

internalField   nonuniform List<scalar> 
75962
(
1.142933147168625041
1.1434064137528889837
1.1431827203794044934
1.142668943884772359
1.1439019894000304056
1.1444864622235155771
1.1441484192717497059
1.1438457342274388484
1.1433001937571842799
1.1428080652517509375
1.1430759852989580416
1.1438598555136247903
1.1444963116757367327
1.1445217835135694795
1.1442964475097776589
1.144275919038180378
1.1442486003845593334
1.1441720219502329314
1.1446046228743038675
1.1454135869757673394
1.1455375333413682082
1.1448598995176202386
1.1443952112663398069
1.1446113196031013626
1.1448739199104738251
1.1447790160870467968
1.1447252666193390436
1.1449496191701773462
1.1452025959132701161
1.1453748881520506853
1.1454728265602363013
1.1454326587394623171
1.1452364812595894339
1.1449830074169222716
1.1448264599931976537
1.1449506873240387073
1.1454286253949592655
1.1459415724325698882
1.1459703163148018401
1.1453687560388181588
1.1446297504847426918
1.1442890238974410266
1.1444802200219215127
1.1450542065291957616
1.1457819426374724614
1.146308456662681774
1.1463491697758563248
1.1460405577546033395
1.1457619487173700268
1.1456991001069702918
1.1457340187965905365
1.1457737087017820787
1.1459154302608933751
1.1462506915450962897
1.1466276680215325978
1.1468035647103096419
1.1468082933528700451
1.1468626411803413134
1.1470321180035540909
1.1471860952366945696
1.1471890170727299108
1.1471193633439813464
1.1471465986511351076
1.1472850293293064272
1.1473507775277915766
1.1471565453256804545
1.1467115786326507187
1.1462741242832377164
1.1461544761591626607
1.1464542013877787596
1.1470348945313668665
1.1476239077049936732
1.1480132178982718205
1.1481383186136555619
1.1480442538233424088
1.1479048087577481407
1.1479345942168266426
1.1482007507116471778
1.1485923908532975624
1.1489325041860232179
1.1491028994136096575
1.1491391318643462416
1.149126419818636391
1.1491148041013115044
1.1490790654332094789
1.148965122162321828
1.1487713404914008386
1.1486203715927769675
1.1486839332597584828
1.1490221899094994473
1.1494770611938096572
1.1497866718566289723
1.1498175947503008754
1.1496184019276050048
1.149377571696285516
1.1492159346508239448
1.1491671637484177637
1.1492287378232259876
1.1493908537360448818
1.1495998632096289249
1.1497958023234058356
1.1499187105241623907
1.1499834325819624503
1.1500206179675442897
1.1500495888222010965
1.1500969624306449646
1.1501895261868055886
1.1503392410770427734
1.1505209451433391354
1.1506539348239905873
1.1506720464574806684
1.1505611897327665538
1.150386227280502327
1.1502473094709879664
1.1502191127283598604
1.1502867242370069523
1.1503738135333072545
1.15042105945873252
1.150432100285925463
1.1504733306536640836
1.1506097759092626109
1.1508373833608307457
1.1510737255048157923
1.1511855605523146906
1.1510892146800055791
1.1508175114227328084
1.1505085206274452414
1.1503202457115164759
1.1503225616405832188
1.150461444022912838
1.1506216550019603417
1.1507035746669684873
1.1506780980208719534
1.1505866194324918528
1.1505083244344966875
1.1505019739720319105
1.1505622528373855573
1.1506380110066458666
1.1506888602646736519
1.1507434984435147562
1.1508855453667501401
1.151164382835400124
1.1515194610995072022
1.1518070012771355337
1.1518880837893405999
1.1517180352788709552
1.1513810493370553178
1.1510229961973481583
1.1507699023606388078
1.1506697002862302792
1.1507009285885341221
1.1508090696169273048
1.1509493706618121323
1.151102536001993748
1.1512558247842832326
1.1513897740491827459
1.1514748836295516377
1.1514998011953017087
1.1514791130689416843
1.151461598542975695
1.1514994418514590269
1.1516042980978624666
1.1517321062236975937
1.1518233277810749904
1.151834764610851547
1.1517777169845333507
1.1517040597247552025
1.1516573201106456992
1.1516383986408254003
1.151609236588161167
1.1515349913634149726
1.151424444530367408
1.1513317967023326549
1.151332036753573318
1.1514682861901377464
1.1517137925673457399
1.1519672364585267221
1.1521086557054225352
1.1520712962616721509
1.1518918499466164196
1.1516955887746702647
1.151615112437417876
1.1517193985430644876
1.1519721900754276156
1.1522582523611846206
1.1524543340752897436
1.1525025603175176325
1.1524130477713636633
1.1548403425762499008
1.1547797682311575773
1.1547479396323487855
1.1547480678668142762
1.1547661742217969483
1.1547847090388381197
1.154792881604684629
1.1547984071370582804
1.1548180850142395482
1.1548635754527560859
1.1549328145222570452
1.1550109712184828403
1.1550768414141758811
1.1551116676157004992
1.1551077468088575273
1.1550610065197435272
1.154973620840360482
1.154848050737336207
1.1546924815347665572
1.1545263857506335992
1.1543785723061250614
1.154275398466550806
1.1542292079186662335
1.1542342325833891969
1.1542706971288254625
1.1543124605568750862
1.154335577889386677
1.1543224490552221884
1.154269804659059151
1.1541890192482817667
1.1541062916020812246
1.1540585555791531558
1.1540805141892098717
1.1541959942119959237
1.1544059170486531407
1.1546812176863399113
1.1549693281155628544
1.1552134112249041742
1.1553703475197982797
1.1554228675064606158
1.1553822624984009249
1.1552785563408807246
1.1551450194503403157
1.1550080072637263218
1.1548816068729912399
1.1547666330914003741
1.1546545409981552321
1.154534415116607704
1.1543965927878907518
1.1542392942591070959
1.1540725973493115575
1.1539191407811988377
1.1538111388600928997
1.153778445943598463
1.1538405230503869792
1.1539903598117398076
1.1541961665071804877
1.1544068597564136613
1.1545672261421915383
1.1546428771993280105
1.1546292790587584509
1.1545499726890451342
1.1544416420543728297
1.1543402215425675461
1.1542677318011700383
1.1542277020326048298
1.1542128053035622948
1.1542122861501673547
1.1542152755788825935
1.1542137354914563385
1.154196773332670789
1.1541524044364896984
1.1540687261524085194
1.1539403538155730278
1.1537738982207133009
1.1535911570173618124
1.1534206597737519662
1.1532897256776895034
1.1532147943395403278
1.1531985773670687667
1.1532287067115281065
1.1532856595267799715
1.1533459112082196096
1.1533861632493487281
1.1533889460095061441
1.1533434400537554421
1.1532470468435740418
1.1531048103743626321
1.1529310145931370712
1.1527467927689849514
1.1525736624774221006
1.1524303866143921216
1.1523275022873564755
1.1522649773233233361
1.1522328791840876772
1.1522179066414719451
1.1522088376022396883
1.1521986886176853737
1.1521849150417762253
1.152164182576442597
1.1521323750273806397
1.1520857426162949277
1.1520195881315409281
1.1519360679704815364
1.1518468457123649529
1.1517659213984510203
1.151713815185070322
1.1517036527127550993
1.1517398592563703463
1.1518189660900248761
1.1519248824091721239
1.1520392069040021887
1.1521462093502710111
1.1522334863058310006
1.1522933042662786285
1.1523223051539257522
1.1523195274777053854
1.152286994072455828
1.1522322388820058769
1.1521652156822437263
1.1520955635063243605
1.1520325253923247022
1.1519815689132986147
1.1519398621393888149
1.1518979335423336074
1.1518439356590350897
1.1517677318437280487
1.1516653406329602216
1.1515464736340337293
1.1514307814807960284
1.1513467239425139166
1.1513191218723688447
1.1513593329619971062
1.151461485241818794
1.1516034270581345655
1.1517529605689504901
1.1518782419948616624
1.1519604954083098036
1.1519980236929414641
1.1520030421363158801
1.1519933747018076264
1.1519797689833934928
1.1519607665073658964
1.1519204849427415738
1.1518387522683186663
1.151700359164061771
1.1515034475247785117
1.1512645184706788992
1.1510163415905567685
1.150796870557520668
1.1506368741188284233
1.1505521527381283864
1.1505408064270312707
1.150587132428125603
1.1506690872903011513
1.1507669087596275048
1.1508680529699286677
1.1509662310909405392
1.1510579707533692417
1.151137882300677262
1.1511948843894099781
1.151212113790611058
1.1511733138564772538
1.1510679005530988217
1.1508982179023239389
1.1506806273364871274
1.1504440827427895311
1.1502216756126271147
1.1500421659327957347
1.1499204540949892195
1.1498598578842142981
1.1498490081612884328
1.1498709231505870321
1.1499062281161285259
1.1499412363747465449
1.1499701627181497798
1.1499931699083947301
1.1500145558381702493
1.1500399296327776799
1.1500748023851905533
1.1501234409315574947
1.1501887390080081097
1.1502718432389269498
1.1503713191737721111
1.150481425403023561
1.1505923106515434373
1.1506894267985952052
1.1507558688182546458
1.1507758271695067709
1.150738235010744237
1.1506386585007937207
1.1504810827598166423
1.1502774212925630515
1.1500449231467138045
1.1498028566752940272
1.1495688020794541107
1.1493579716116741896
1.149181926762727235
1.1490492651814929737
1.1489651939028182603
1.1489321161671184335
1.1489486276876192949
1.1490080519600458508
1.1490988312086858336
1.1492054282166965784
1.1493102432125703594
1.1493969628703080144
1.1494541530966067011
1.1494772862954716341
1.1494707328387829826
1.1494463091454094616
1.149419576452162417
1.1494058457955069752
1.149415619925990395
1.1494510460367903804
1.149506177861493228
1.1495678876506543187
1.1496181676794836601
1.149640136917512212
1.1496228654874580677
1.1495636070321011424
1.149468906521806888
1.1493522760579957254
1.1492306888622272343
1.1491216672901425344
1.1490389739932078683
1.1489905603364711784
1.1489785059829458191
1.1490009333867470254
1.1490527336526232816
1.1491272559844720735
1.1492165392799431611
1.1493117872129134938
1.1494035949260152929
1.1494817294376868944
1.1495368249488397971
1.1495612565782427072
1.1495503625092660105
1.1495030924138065487
1.1494229764859733578
1.1493174931581717768
1.149196603455864274
1.1490710672584529828
1.148950695965723412
1.1488443309873477283
1.148759380457214041
1.1487024286013447494
1.1486798693801363314
1.1486970222204089254
1.1487573596024147626
1.1488618366250040737
1.149005468980707656
1.1491766117846136108
1.1493576989199205673
1.1438372640087706156
1.1425210861240759908
1.1429488432013141797
1.1446004051865894535
1.1459878606314028993
1.1457878749907410842
1.1447924639956088555
1.1439541736553009432
1.1433539357362449973
1.1436395608757727871
1.1446717971600099961
1.1453599792379989264
1.1452950547582601004
1.1448497781103761373
1.1444222000380241955
1.1442227789210490663
1.1440891304280214058
1.1440884623898472938
1.1447013499471367926
1.1457182317763872081
1.1461345800116224947
1.1456214356982705738
1.1449830024863798528
1.1448333001633244077
1.1449211271926407196
1.1448598480913891873
1.1448758344511944518
1.1451469573301171767
1.1454583241890259337
1.1456031792221701426
1.1455125994658819089
1.1452359024876770377
1.1449373433564566938
1.1447568738305604619
1.1447841835545575773
1.1451049022071932981
1.1456919048410461048
1.1461334076318290265
1.1459850782159681781
1.1453339342597448347
1.1446950045300212651
1.1444379188067135278
1.1445699995690161721
1.1449744966093065024
1.1455605290918848826
1.1461201746940663515
1.1463947972562014144
1.1463224689056850103
1.1461310591013975646
1.1460568808711164568
1.1461092018762986111
1.1461805899503780815
1.1462850671224771304
1.1464515575674629755
1.1466168485748957639
1.1466585497381573955
1.1466639307074319998
1.1467738748272042759
1.1470258860154296521
1.1472768724670734386
1.1473806612499608537
1.1473874915298256649
1.1474379324394097246
1.1475701393377204518
1.147581126598531176
1.1472917190719957858
1.1467722727816798134
1.1463321334783675987
1.1462373816933835169
1.1465179913233225495
1.1469820173831686283
1.1474288914820101049
1.1477938795898237068
1.1480235305213448704
1.1481208752417160213
1.1481400625277629057
1.1482171721302116829
1.1484397753890422944
1.1487644980846443143
1.1490732893838953022
1.1492828582712779628
1.1493650509934683068
1.149356168779176679
1.1493169501948004019
1.1492442593143845642
1.1491027770774220329
1.1488990989324785463
1.1487476266320411078
1.1488257887396216006
1.1492047385699555306
1.1497164737331728723
1.1500496846709364895
1.1500128279768935258
1.1497032043037880289
1.1493631722871182621
1.1491574538806657024
1.1491251268533333452
1.1492183520479573033
1.1493888270194123624
1.1495846219488665696
1.1497606864264831028
1.149905089738538333
1.1500247564135648304
1.1501270863503607611
1.1502111320361889657
1.1502576241306179394
1.1502813534314364485
1.1503362984670055802
1.1504554621131446446
1.1505902449102598517
1.1506424444383074324
1.150563521468345396
1.1503688049490730094
1.1501739831740089848
1.1500775341673399321
1.1501178537871870056
1.1502485076436319567
1.1503823312293395276
1.1504719132405638593
1.15054622059962397
1.1506793619498525416
1.1508858216654949125
1.1511125226727609849
1.1512323963321771103
1.1511638044789123114
1.1509347035097359235
1.1506640248339523591
1.150473343313142216
1.1504191401443994991
1.1504807801626346642
1.1505995470986749574
1.1506965057093048177
1.1507119353359380742
1.1506474415506928732
1.1505738807045249317
1.1505796773153895707
1.1506754535012744256
1.1507872564219490119
1.15084127455962415
1.1508501859808843992
1.1509161997037768987
1.1511187959075677156
1.1514333547317290307
1.1517283954303736415
1.1518606523887178206
1.1517696940574222442
1.1515031949954863677
1.151180754119986327
1.1509152274476033284
1.1507555361466836885
1.1507041502110539888
1.1507381285677207305
1.1508432746404917424
1.1510072066421912496
1.1511986271562459905
1.1513733483845849381
1.1514837078897857126
1.1515155898719877658
1.1514973254023901372
1.151487831312890231
1.1515331661037748745
1.1516378175559698338
1.1517528068681874842
1.1518237702901032993
1.1518282490509634819
1.151794516972896254
1.1517621515207712157
1.1517447653055574719
1.1517147336921578216
1.1516272108219614001
1.1514644631426314003
1.151270591258288345
1.1511319870061351711
1.1511369658829671003
1.1513198068302181731
1.1516298848138177835
1.1519367023084401414
1.1520973369942115738
1.1520390134856999254
1.1518137714731835342
1.1515643883014274884
1.1514469920853067642
1.1515419925480585572
1.1518148520856918982
1.1521385453479828787
1.1523693879847889399
1.1524373147859423572
1.1523511973000839514
1.1521859815912847136
1.1547132979703322864
1.1546706292599415722
1.1546457054490861793
1.1546456167579393082
1.1546536795696926703
1.1546500922236941911
1.1546260846942046907
1.1545932954849558172
1.1545828214606494999
1.1546196202732950109
1.1547072823093420535
1.1548243534423110468
1.1549348968107768787
1.1550068481058211045
1.1550225143668264582
1.1549822661036226457
1.1548958071406858483
1.1547758600790170025
1.1546322006926097448
1.1544779515102949752
1.15433266203584739
1.1542211152064025814
1.1541602321895150229
1.1541518214922181773
1.1541822589956560741
1.154231296271655216
1.1542802264572482596
1.1543160365369888876
1.1543287104093440387
1.1543144379473841976
1.1542751581235766167
1.1542225972696449343
1.1541830525554348519
1.154189529531955305
1.1542695017377808675
1.1544339920396595733
1.1546649470454544151
1.154917113453631794
1.155135442048999872
1.1552706562289338788
1.1553036414537845022
1.1552418251236213909
1.1551200594719124304
1.1549771486448272562
1.1548463502249410872
1.154744227696177683
1.154668479332137121
1.1546021153744117083
1.1545252511643189219
1.1544198505280061084
1.1542776228009294925
1.1541104081544246718
1.1539453870122096113
1.1538241870956933433
1.1537835947555263871
1.1538458325536851135
1.1539993822183514105
1.1542061816929187756
1.1544069286097269345
1.1545427759033701776
1.1545791814430632627
1.1545180056300803351
1.154391483161509413
1.1542460808031997921
1.154126554581432762
1.1540559949439683773
1.1540361415447843996
1.1540543931769877695
1.1540881180159359154
1.1541175752144356981
1.1541277423573736982
1.1541085171666154441
1.1540550449476343342
1.1539646180441940349
1.1538392207743888296
1.1536874936496024358
1.15352443123273396
1.1533660117225357222
1.1532317244960670344
1.1531359047537228513
1.1530902308626020947
1.1530950605849743518
1.153143254913911786
1.1532164710631107596
1.1532877209656859918
1.1533292580521059545
1.1533180092564856434
1.1532395526492966731
1.1530950951085421341
1.1529014563557626882
1.1526858570079832056
1.1524768709110020382
1.1522978908877477
1.1521620607562186311
1.1520720909258466147
1.1520206539024748782
1.1519960057400095987
1.1519898776925057149
1.1519951111958104395
1.1520081664524279841
1.1520253841869623201
1.1520379931249939975
1.1520372850890798766
1.1520146028409956607
1.1519677938114392113
1.1519045515575467853
1.1518381456781483507
1.1517869750826157382
1.1517651861992832529
1.1517765100034569326
1.1518183448984107287
1.1518797953631052522
1.1519478908327207556
1.1520128613863038769
1.1520689762112767962
1.1521116108325415439
1.1521370646091153578
1.1521426158121763628
1.1521246242103517776
1.15208316667919064
1.1520231168842907099
1.1519509152804814356
1.1518744872901718335
1.1518010433016012684
1.1517329293588058903
1.1516652091252994605
1.1515903553904869305
1.1515047105918005954
1.1514096205611228374
1.1513149572859153746
1.1512385002077223373
1.1512015461825548801
1.1512178486623771967
1.1512905186187276652
1.1514086733046848821
1.1515488904787951618
1.1516818689441019608
1.1517846786500149925
1.1518466987388837897
1.1518740530991276039
1.1518816296071070493
1.1518816030057592581
1.1518814180869236807
1.1518716016624823695
1.1518317043229024943
1.1517384335827292041
1.1515772805057540307
1.1513514946214145063
1.1510830626356365336
1.1508090165753672718
1.1505695311057648755
1.1503953686322472283
1.1503007570589935948
1.1502826025640473517
1.1503250196404082306
1.150406803799128852
1.1505094575326499928
1.1506220136124589715
1.1507404055071794868
1.1508620548564993946
1.1509790150793848262
1.1510752467537090915
1.1511281692103587648
1.151117434530932071
1.1510304022722352979
1.1508710975242546493
1.1506604498724333219
1.1504319670791340879
1.1502229431420309957
1.1500627468809081488
1.1499667424678716721
1.1499326825944520269
1.1499435720579456177
1.1499771405128214052
1.1500117879849931501
1.1500304363235269722
1.150028385661147956
1.1500108508753499326
1.1499871984812812808
1.14996771752064042
1.1499608438015862522
1.1499726366796487742
1.1500060621977414854
1.150062081010213344
1.1501383545135175357
1.1502292400656777271
1.1503248586339316351
1.1504116899993273027
1.1504744729178142393
1.1504994026733235124
1.1504769992411734147
1.1504032528220964338
1.1502802689739066722
1.1501167561912133408
1.149925419349705491
1.1497201263484060352
1.1495137066328777742
1.149318315867587259
1.1491451661750504698
1.1490037848019294398
1.1489020455100324991
1.148845001684858147
1.1488346481006435074
1.1488676547967442421
1.1489358989900413377
1.1490252955621345077
1.1491180233786575382
1.1491967835985905655
1.1492487332960517055
1.1492690776560969823
1.1492619707978111165
1.1492386860997081399
1.1492155632343232785
1.1492090404889232502
1.1492302063741648421
1.1492814275865579354
1.1493554369012954908
1.1494367742200048976
1.1495056955051532466
1.1495435855899858169
1.1495370560115050207
1.1494823910719098592
1.1493862074259528772
1.1492626944838479908
1.1491298985011595413
1.1490059841347912695
1.1489060114574993765
1.1488382244279262689
1.1488051696244057087
1.1488047836890915576
1.1488326928168497432
1.1488832331203058246
1.1489511567485064525
1.1490311266909722931
1.1491164917874228113
1.1491983801544953803
1.1492678232717921105
1.1493154924568083075
1.1493333968019499025
1.1493168615309188318
1.1492651652732153167
1.1491830036533234871
1.149078832971024644
1.1489631280484597919
1.1488476885026595031
1.1487431616403041001
1.1486591400421179987
1.1486035850626654664
1.1485826435917230182
1.1486011762141614678
1.1486621209716563197
1.1487650862812652797
1.1489056310136191996
1.1490740016022182868
1.1492543331035078857
1.1412964770541875748
1.1435358814897169655
1.1453159659906890777
1.1462912595131766746
1.1455976339154108068
1.1447890647413798693
1.1440010663809423441
1.1435545910305089379
1.1433600730575710358
1.1437212130880181071
1.1447852274502006154
1.1455858448956475204
1.1455845340018022682
1.145186617433831433
1.1445338263097963871
1.1440362295862576136
1.1438307640126024189
1.1438836941453436324
1.1445829520190371476
1.1457694722244557983
1.1462796495875009484
1.145673207630371282
1.1447874799892616693
1.1444264548811668991
1.1445320556666451761
1.1446406934264832245
1.1448161046441593935
1.1452011209393850866
1.1456542752188387801
1.1458565067485282363
1.1456593756749768875
1.1452237570903978092
1.1448606324214336549
1.1447319168816079138
1.1448474289698531425
1.145260216485038729
1.1458756328060575314
1.1462739877304433112
1.1461324715548850683
1.145636726836497532
1.1451715829363378063
1.1449134779015348595
1.144865469843034278
1.1450239775746953175
1.1454419733335903242
1.1460421724436409274
1.146561283868874348
1.14673366645750896
1.1466125727472218365
1.1464655906963858722
1.1464257060903382257
1.1464271321880215027
1.1464355729042183807
1.1464548017668347857
1.1464480081099557296
1.146439551636224019
1.1464964641902446463
1.1467105334858989085
1.147051454434848905
1.1473553758053822715
1.1475104585078086394
1.1475665614972807571
1.1476583281522472202
1.1477986265667803334
1.1477811079074100586
1.1474407380284510349
1.1468725653212905602
1.14637191206305733
1.1461988802954434785
1.1464012593096670756
1.1468217344235971389
1.1473192519545971635
1.1477879120465686036
1.1481625607870293848
1.1483861471547434085
1.148480092274583475
1.148536339362272285
1.1486558421250290252
1.148894500740642588
1.1492051834788115094
1.1494867081714785773
1.1496096907614303806
1.1495276193335466353
1.1493307836224138097
1.149160575491170011
1.1490790260582577353
1.1490653571823894463
1.1491236703309328782
1.1493194113314728622
1.1496736470274919739
1.150025943235816861
1.1501435835023583465
1.1499273646507455204
1.1495565321208995879
1.1492761130636528488
1.1492094652274462696
1.1493113716113163569
1.1494771458445314227
1.1496444588337986215
1.1498097583704458557
1.1499528017601854391
1.1500723977405258314
1.1501532028430792032
1.150214671944892908
1.1502361245884860086
1.1502121645845724274
1.150181513327284577
1.1502127547259826112
1.1503396685216171758
1.1504967597604056628
1.1505582700685381692
1.1504340140808058113
1.1502016454965566794
1.1499864933777723675
1.1499253694084645705
1.1500641912493114738
1.1503261517068330555
1.1505742057212946516
1.1507280840533757882
1.1508138351840484503
1.15092314464991885
1.1511002181772607145
1.1512992244354642857
1.1513973491831255291
1.1513239152804666254
1.1511166872073641532
1.1508730141468097585
1.1506690075387495664
1.1505550593147861882
1.1505451099900541045
1.1506163199737537983
1.1507016742969926604
1.1507228306941283957
1.1506629761736597573
1.150606309413443773
1.1506604822092401097
1.1508358062288457369
1.1510297200397219264
1.1511301504857398559
1.151135300287449148
1.151146990469084086
1.1512604810967952407
1.1514765706809584334
1.1516990062544167905
1.1518115349284951954
1.1517575778283557497
1.151557217320297255
1.1512871756445708371
1.1510300798992179061
1.150834402987498839
1.1507225011898873923
1.1506972568418594172
1.1507586568019296802
1.1508980915655433463
1.151093421589316268
1.1512828770023042502
1.1514187678890215327
1.1514802187011399237
1.1514985729681261883
1.1515247292197627882
1.1515920423019179175
1.1516912210241132541
1.151778109399564709
1.1518115080641060377
1.1517798444298263938
1.1517208329769035302
1.1516686380479641549
1.1516316999830791268
1.1515793361845165776
1.1514735060108278741
1.1513094127989393911
1.1511396458421059297
1.15105012546877572
1.151112272353684185
1.1513372441866904783
1.151656232479389308
1.1519392670376333854
1.1520475358833410784
1.1519345654759369779
1.1516666573927756279
1.1513974229900674207
1.1512822916794061001
1.1513925764156489606
1.1516852687121041932
1.1520296166995624976
1.1522867679164459087
1.152377230404991737
1.1523132206562254343
1.1521647914293144943
1.1545698744579442341
1.1545601325447685248
1.1545810188550273967
1.1546144737135075609
1.1546278334226265372
1.1545999072570645172
1.1545403969327252547
1.1544815217315109734
1.1544622207370269784
1.1545065941160306267
1.1546078563073471912
1.1547305205179390075
1.1548289565362102049
1.1548763597939493142
1.1548667707478659228
1.1548084889617413751
1.154717378040102993
1.15460264114890232
1.1544752857715443461
1.1543502773552591911
1.1542489816955181503
1.154190760849379771
1.1541803412658122596
1.1542099312712295056
1.1542604914047347453
1.1543131687199941204
1.1543580322095952084
1.1543952526912479861
1.1544282265296732515
1.1544531367221588791
1.154460155779784003
1.1544466659585577162
1.1544211079806063758
1.1544065969115175907
1.1544312402483869473
1.1545152928464248454
1.1546584937772439439
1.154833872413905338
1.1549987483886685613
1.1551075331712798988
1.1551332470952275777
1.1550778634401646094
1.1549674313307556339
1.1548418799261976897
1.1547345400578652441
1.1546628104311926766
1.1546246525652048565
1.1546014143404217389
1.1545647043697957468
1.1544907427115025378
1.1543703355145884526
1.1542104181918750871
1.1540446137470254939
1.1539161546363065902
1.1538707254969224891
1.1539229003180657696
1.1540623990266107857
1.1542462314093857589
1.1544121802781330821
1.1545060868406156196
1.1544979986061947308
1.1543930554823922385
1.1542268989117483446
1.1540525168283377599
1.1539148258085116794
1.1538395942196248978
1.1538280096219211135
1.1538621590217081891
1.1539139254354970898
1.1539577279810495636
1.1539756051734517683
1.1539607499017250358
1.1539109245898109268
1.1538293308539226967
1.1537221328219720018
1.1535943002158786097
1.1534524468356459614
1.1533033116555637676
1.1531594966596392382
1.153039602932565133
1.1529636131365803564
1.152947354539522129
1.1529930351138037992
1.1530844576227328169
1.1531903913193570776
1.1532705788838830685
1.1532896307302282768
1.1532260304427466302
1.1530800511451420043
1.1528732789312541307
1.1526401566613242444
1.1524141092784609963
1.1522208348056328653
1.1520734706654751633
1.1519717040443309131
1.1519093941374214385
1.1518759914375311659
1.1518640657537733141
1.1518688277077779869
1.1518870710615638497
1.1519155609651721139
1.1519470495123411702
1.1519702824046635925
1.1519748096989703701
1.1519549805911941665
1.1519121889396719549
1.1518595037071717169
1.1518106751826842071
1.1517761423260517439
1.1517623179872260586
1.1517668469987887292
1.1517845333816090214
1.1518093588289197715
1.1518351134390740764
1.1518595568251968064
1.1518822259697165666
1.1518997038455442983
1.1519073690217809247
1.1518996917277060099
1.1518711228197764385
1.1518209662682814542
1.1517540767461484918
1.1516777785671461487
1.1516005427050348686
1.1515304603495517544
1.151467464130070617
1.1514095867526248362
1.151354269063120217
1.1513032750490936884
1.1512619781200477131
1.1512399341288959143
1.1512472206525217189
1.151290395458075988
1.1513678728569287646
1.1514690790428365741
1.1515734421650363206
1.1516598171203118461
1.1517141837748683386
1.1517343614503752214
1.1517296126112244181
1.1517152473119869338
1.1517003530274270151
1.1516859763350322243
1.1516612483447714599
1.1516061828681336543
1.1514994515700665012
1.1513307654996707274
1.1511082372503393945
1.1508569881543648794
1.150611975267075815
1.1504088327339250242
1.1502733824142163943
1.1502136992880580557
1.1502212837304568449
1.150277685782841175
1.1503625975371949419
1.15045977612613326
1.1505607592130513428
1.1506643574252801709
1.1507701482704815188
1.1508704723684752835
1.1509497474605792089
1.1509880553525870805
1.1509671580288016735
1.1508778251543680948
1.1507275739096889389
1.1505388278823376336
1.1503447685053509453
1.1501791676971930833
1.1500647237449259652
1.1500133720220484523
1.1500122696424026625
1.1500439125891541714
1.1500812289603039584
1.1501017004978060232
1.1500966731198092319
1.1500620936223351354
1.1500049640253191541
1.1499402041273356634
1.1498835377327998319
1.149846802668951895
1.1498364801841509664
1.149854416445300398
1.1498983319376410162
1.1499621822871297638
1.1500369532164114172
1.1501105410328695822
1.150169211766135513
1.1502000066462789718
1.1501934060298637519
1.1501451574625218832
1.150056117248503762
1.1499321917546854177
1.1497829525537428541
1.1496197344933747342
1.1494545999122443014
1.1492977700632418525
1.1491579838494143662
1.1490414087641391827
1.1489529754490142022
1.1488973602892187387
1.1488751894911730655
1.1488852427507534326
1.1489204239730013146
1.1489736692941172613
1.14903368616508339
1.1490874857340029891
1.1491225825890631906
1.1491309466737154033
1.1491125559407127099
1.1490742424167443847
1.1490292426709751705
1.1489947543213758774
1.1489874618069184642
1.1490188876973399523
1.1490910577957158534
1.1491936324071170272
1.1493069195713929709
1.1494067368272467
1.1494698912140770553
1.1494804577611117402
1.1494328444350006002
1.1493324204794852506
1.1491941414102919694
1.1490389310851354399
1.1488882425972142265
1.148759921424779229
1.1486652359761611031
1.14860933776958829
1.1485914538428365628
1.1486073945181518585
1.1486510579437398949
1.1487174329073668311
1.1488010963961792221
1.1488945173173024106
1.1489880751323415797
1.1490712534672589129
1.1491327147948886545
1.1491622538595747116
1.1491533976801375783
1.1491052247838702272
1.1490237912339562598
1.1489196490082664859
1.1488062254931337147
1.1486976651319189546
1.1486058075318199556
1.1485405622326305686
1.1485089345912102843
1.1485151939480420236
1.1485608426319460218
1.1486451012644101066
1.1487633493347737534
1.1489083006424136713
1.1490689790295953721
1.1492306322414151953
1.1493761195270679742
1.1432441980025596084
1.1440091773966329924
1.1449108868680197837
1.1442370084093671512
1.1440274736862947602
1.143653112057014587
1.143323598878955849
1.1441606422337180504
1.1442747244746889201