/*--------------------------------*- C++ -*----------------------------------*\
  =========                 |
  \\      /  F ield         | OpenFOAM: The Open Source CFD Toolbox
   \\    /   O peration     | Website:  https://openfoam.org
    \\  /    A nd           | Version:  12
     \\/     M anipulation  |
\*---------------------------------------------------------------------------*/
FoamFile
{
    format      ascii;
    class       volScalarField;
    location    "0.0125";
    object      alphat;
}
// * * * * * * * * * * * * * * * * * * * * * * * * * * * * * * * * * * * * * //

dimensions      [1 -1 -1 0 0 0 0];

internalField   nonuniform List<scalar> 
106891
(
1.1336944394967014881e-05
1.1331867176496433541e-05
1.1326172812978345213e-05
1.13201154215574097e-05
1.1314115724235772139e-05
1.1308276748930972793e-05
1.1302325846185936576e-05
1.1295780151146390179e-05
1.1286743095155975209e-05
1.1276120580267333794e-05
1.1263812082337719704e-05
1.1858166045697105355e-05
1.1857982560249325906e-05
1.1849034536313631202e-05
1.1837638756942938617e-05
1.1818770821621673225e-05
1.1784316150462896213e-05
1.1757968560758568191e-05
1.1742000523732540215e-05
1.1732382016755018577e-05
1.1728481615461614675e-05
1.1744616008802992961e-05
1.1800946701734929683e-05
1.1857369200040736616e-05
1.1907391245075308028e-05
1.1955353776516069176e-05
1.200316994263424486e-05
1.2051240835811737851e-05
1.2099277654710018564e-05
1.2145826472439505203e-05
1.2188661755700156742e-05
1.2227102274045831886e-05
1.2258924818785659996e-05
1.2282760530138820364e-05
1.2297008260619347167e-05
1.2301117553350259442e-05
1.2297096467606832577e-05
1.2288555085181332796e-05
1.2279278266545682387e-05
1.2268227081244946681e-05
1.2253724063055805739e-05
1.2241747163592425136e-05
1.223246085894383217e-05
1.2224461292923137376e-05
1.2217338575367681509e-05
1.2210092940280259916e-05
1.2201762813577492136e-05
1.2192621763233580574e-05
1.2183435148680989206e-05
1.1945726936640809349e-05
1.1939464929164307386e-05
1.1934878481890748362e-05
1.193535186063820245e-05
1.1938473888986933421e-05
1.1940320518010975797e-05
1.1940578750297351624e-05
1.1938972008727936363e-05
1.193582531434394732e-05
1.1931365144460696562e-05
1.1925844758937526735e-05
1.1919519180362061361e-05
1.1912894016145314649e-05
1.1906351507372448439e-05
1.1899738528424625843e-05
1.1892818546069420301e-05
1.1884422450253571171e-05
1.1871244835838261133e-05
1.1858240794588294651e-05
1.184317664565338284e-05
1.2456468276479444143e-05
1.244514187378355993e-05
1.2433106953267722276e-05
1.2414812429095144038e-05
1.2386341536290048013e-05
1.2364431288031322155e-05
1.2350863689925312854e-05
1.2341929669096789074e-05
1.2343335028930786353e-05
1.2380089330746398129e-05
1.2462826189755332686e-05
1.2536310587691585581e-05
1.2600563608716242825e-05
1.2659268051560125428e-05
1.2714701500855551917e-05
1.2767678213098486445e-05
1.2817352494934126705e-05
1.286123659880919152e-05
1.2897091320987147872e-05
1.2923499797801240674e-05
1.2939392212214916253e-05
1.2945595270949109077e-05
1.2942801835227937384e-05
1.2934031034047319375e-05
1.2922322087649087385e-05
1.291010096120118288e-05
1.2896810430326615751e-05
1.2878827484509803303e-05
1.2860313127911294167e-05
1.2843935028834036472e-05
1.2829140843585677277e-05
1.2814792069440565162e-05
1.2800944044804024653e-05
1.2787567957757841957e-05
1.2775089319557188217e-05
1.2763772495363147959e-05
1.2587969219280984389e-05
1.2581846204614997449e-05
1.2577699576670009019e-05
1.2577895498174906236e-05
1.2578395665268115973e-05
1.2577430618804921812e-05
1.2574798965010684291e-05
1.2570714051203930829e-05
1.2565183811666614323e-05
1.2558471099563726261e-05
1.2550903746624418513e-05
1.2543003170590311107e-05
1.2535104153439868217e-05
1.2527088879442363684e-05
1.2518756501112131036e-05
1.2508050363870361273e-05
1.2494927541162236732e-05
1.2483397002781937318e-05
1.2473437923595282373e-05
1.2464717729652152373e-05
1.310749399930151092e-05
1.3095172964026594476e-05
1.3079761431239389369e-05
1.305107204534117343e-05
1.3018258733203635677e-05
1.2995257062395672174e-05
1.2981265706492657681e-05
1.2972309047829738837e-05
1.297753341400261069e-05
1.302507054034546778e-05
1.3095854979982561294e-05
1.315837549934990279e-05
1.3218216255086052743e-05
1.327999432843688655e-05
1.3345375414578147547e-05
1.3412557320464412385e-05
1.3477340061003341613e-05
1.3535226175954653775e-05
1.3581953347732448877e-05
1.3615276982347210286e-05
1.3634597983504358001e-05
1.3641381440052302557e-05
1.363782513714038737e-05
1.3627969016334622962e-05
1.3615444562283171356e-05
1.3601219906759564411e-05
1.3582645747294007059e-05
1.355239181058252042e-05
1.3522596121515445528e-05
1.3498225618300026867e-05
1.3478661536783139168e-05
1.3462988081228725114e-05
1.3449996950958125686e-05
1.3439050248459706536e-05
1.3429064463466756913e-05
1.3421474324707473877e-05
1.3262685267215516637e-05
1.3255667843813399298e-05
1.3248196437574784857e-05
1.3240300851195847476e-05
1.3232021335307494667e-05
1.3223382923677838422e-05
1.3214367230187820223e-05
1.320504676812149504e-05
1.3195398617736790202e-05
1.3185219014499942699e-05
1.3173924549669732212e-05
1.3163180876550579997e-05
1.3153499728148470693e-05
1.3144746886712795745e-05
1.313662366029190661e-05
1.3128825580344295624e-05
1.3121268431202045727e-05
1.3113929662559900796e-05
1.3109689414977357394e-05
1.3831846479472514796e-05
1.3818665169889828126e-05
1.3797321068869379158e-05
1.3752615909360147665e-05
1.3706473136028671152e-05
1.3674591456886889913e-05
1.3654070435063545117e-05
1.3641731349123277473e-05
1.3632857203326066421e-05
1.3632959848449981803e-05
1.3661487303044668898e-05
1.3740588517661582658e-05
1.3824734215848489088e-05
1.3908855350074165319e-05
1.3991027645798685764e-05
1.4069291294726119938e-05
1.4141146428204341912e-05
1.4203440354967818035e-05
1.4253593035465019853e-05
1.4289786588839530792e-05
1.4311514887342015396e-05
1.4319670373326833044e-05
1.4316440828283319108e-05
1.4306376716637741027e-05
1.4293729859962015172e-05
1.4280715234467872531e-05
1.4266182496898540937e-05
1.4252623094159934058e-05
1.4242326746429123226e-05
1.423427401315354155e-05
1.4225467253292954083e-05
1.4213827934955514232e-05
1.4199060777103330024e-05
1.4183546013757612278e-05
1.3952259662858673526e-05
1.3941990843553214596e-05
1.3931713084308743067e-05
1.3921132396161074108e-05
1.3910657933669558624e-05
1.3900242062544595416e-05
1.3889840828308989002e-05
1.3879533426089221126e-05
1.3869332477320587884e-05
1.3859410183749041413e-05
1.3849674340889637247e-05
1.3840105530079246075e-05
1.3831184049369303691e-05
1.3824659542204384763e-05
1.3820146748711474428e-05
1.3818939025435827625e-05
1.3814403067049453637e-05
1.381385127179897563e-05
1.3808724596214886642e-05
1.3808782522416418077e-05
1.4543718401744813354e-05
1.4531335214782481569e-05
1.4515282638724691407e-05
1.4485490215067912801e-05
1.4441160712282250547e-05
1.4407997385056753e-05
1.4386545044900195012e-05
1.4373408042069431767e-05
1.4363766562239485919e-05
1.4364713713029724886e-05
1.4403695894350432332e-05
1.4523479023936761455e-05
1.4648947716949816504e-05
1.4756614770317231087e-05
1.484548640740147575e-05
1.4913332227510614456e-05
1.4961014778521123915e-05
1.4990689643012104223e-05
1.5006860497724846336e-05
1.5015293021445728255e-05
1.5021085109127289717e-05
1.5027552660760661556e-05
1.5035621988066717627e-05
1.5043525330361852716e-05
1.5048452846985254587e-05
1.5048347512632540452e-05
1.5043617934376795296e-05
1.5036743099985074037e-05
1.5029391845541978696e-05
1.5020938462058532111e-05
1.5006725660601171626e-05
1.4985629901139486082e-05
1.4965245142877221148e-05
1.4698825056751939978e-05
1.4690128754996353085e-05
1.4680878633393807864e-05
1.4670342497577757216e-05
1.4659217929598108919e-05
1.4647964697478971225e-05
1.4636503895892568391e-05
1.4624975701462735369e-05
1.4613516260989979119e-05
1.4602096539305165396e-05
1.4590871477987695588e-05
1.4579845228315740739e-05
1.4568998223339183108e-05
1.4558400917468686269e-05
1.4548088641033249724e-05
1.4538289780373147642e-05
1.4530443322549178959e-05
1.452419293918942082e-05
1.4526069331179362147e-05
1.5291925064972190898e-05
1.5275818356046050236e-05
1.5246607156669558341e-05
1.5204168245231132372e-05
1.5173678250711941957e-05
1.5155118528872460286e-05
1.5143590969664006817e-05
1.5139901651023934443e-05
1.5169622553391423625e-05
1.5282973953425359512e-05
1.5409108636529613253e-05
1.5514747178119469461e-05
1.5605575763946506372e-05
1.5684679676581093731e-05
1.5753667631762452092e-05
1.5811170371540990317e-05
1.5855489322683598871e-05
1.5884730442272696149e-05
1.5898699335241930133e-05
1.5899457225138760233e-05
1.589089829572854832e-05
1.5877501397092932972e-05
1.5863442500723841356e-05
1.5848327581662145503e-05
1.5829138559608418255e-05
1.5799446622070214598e-05
1.5767468248392862599e-05
1.5736362722390947945e-05
1.5706187964773105217e-05
1.567872221287042124e-05
1.5654923939184044532e-05
1.5636435781821172189e-05
1.547422365415430023e-05
1.546341575301756144e-05
1.5450027523768599693e-05
1.5435960550890730041e-05
1.5422355447811242194e-05
1.5409080797451599106e-05
1.5396307027670665075e-05
1.5384029722265664722e-05
1.5371955278541581997e-05
1.536009232391218239e-05
1.534826318854126925e-05
1.5336311989183582741e-05
1.5324320577440896286e-05
1.5312560657626006103e-05
1.530150514705757038e-05
1.5292367091263682689e-05
1.5289256228510158967e-05
1.5283404963901980368e-05
1.5283762246203248678e-05
1.611797115242537238e-05
1.6072067716547387445e-05
1.6022535782767073783e-05
1.5987067498322857033e-05
1.5964407771932287146e-05
1.5949287980627347263e-05
1.5937930356714384106e-05
1.5941179421441454661e-05
1.5996832678338742924e-05
1.6116767640853785426e-05
1.6229947080485677605e-05
1.6335138063831426577e-05
1.6433258850793084867e-05
1.6522333580449594527e-05
1.6598444367967931528e-05
1.6657862196053237588e-05
1.6698330710008231975e-05
1.6720575428121383911e-05
1.6727039105222689174e-05
1.6722243703009060278e-05
1.6711027924729429873e-05
1.6698339540442543938e-05
1.6686427717596999496e-05
1.6672874276828527322e-05
1.6650381607029109718e-05
1.6610790247203143215e-05
1.6569767033219454696e-05
1.6530197323833260473e-05
1.6495024654467663308e-05
1.6466181648680778507e-05
1.6271642086818766375e-05
1.6253269682454300846e-05
1.6234586285845834051e-05
1.6216612037621926557e-05
1.6199626459779781315e-05
1.6183857565665388722e-05
1.6169289541197692827e-05
1.6155540851411495179e-05
1.614254762002164802e-05
1.612983042899072359e-05
1.6117012328326885107e-05
1.610438851824991748e-05
1.6092357296622821172e-05
1.6083699806334031033e-05
1.6081895174914592923e-05
1.6083504305576639797e-05
1.6079310130007628854e-05
1.6081322598299257277e-05
1.6881280125090190647e-05
1.6835193568637129441e-05
1.6796346739471485485e-05
1.6768275363739581444e-05
1.6748868527365146298e-05
1.6734454368328205887e-05
1.6731788710336983124e-05
1.6775405597945510069e-05
1.6910296658610405885e-05
1.7046389486567901862e-05
1.7168645523423745492e-05
1.727856026678836968e-05
1.737477361886018555e-05
1.7453733468609369193e-05
1.7512962936237997719e-05
1.7551366969550767221e-05
1.75692665224651803e-05
1.7570402093960503406e-05
1.7560095923425813149e-05
1.754543384431583839e-05
1.7530863228006884007e-05
1.7513142622216689565e-05
1.7492068467285973418e-05
1.7476502510201002066e-05
1.7463769657456489694e-05
1.7450619025496095474e-05
1.7435561104167752251e-05
1.7417674049064461221e-05
1.7110216198261855776e-05
1.7087870257201955005e-05
1.7066969069111569227e-05
1.7048487008342724569e-05
1.7032138113494191663e-05
1.7017988150512522645e-05
1.7005691823835575305e-05
1.6994057931547119358e-05
1.6982529491167631177e-05
1.6970972746160753133e-05
1.6960001042071617912e-05
1.6953410068141605126e-05
1.6955551754531016843e-05
1.6956227690733880181e-05
1.6954613954460818809e-05
1.6950241256838734233e-05
1.6943530575065385985e-05
1.6937035954059612044e-05
1.7623133964607646878e-05
1.7603093866108046308e-05
1.7584859496046515245e-05
1.7570217894702667023e-05
1.7568941605266277177e-05
1.7619002694649867421e-05
1.7743092757997916924e-05
1.7852490015866510952e-05
1.7937447658021753784e-05
1.799880898417188747e-05
1.8044384783751690862e-05
1.8084462145205139132e-05
1.8126333540646235849e-05
1.8169508525371925989e-05
1.8212038501366795845e-05
1.8249872706356786638e-05
1.8279907978772801547e-05
1.8300525805976945634e-05
1.8313228090207527617e-05
1.8321807377901527277e-05
1.8327479014160408315e-05
1.8329944568281440601e-05
1.8328032793025139468e-05
1.8321438978392345849e-05
1.8309858437406147769e-05
1.8295409449840254211e-05
1.827676149608072325e-05
1.7915014034219184472e-05
1.7901804301193622942e-05
1.7887529893475896317e-05
1.787506269730207637e-05
1.7862623107095471569e-05
1.785108246659363181e-05
1.7838013802142101659e-05
1.7824167097473228761e-05
1.7807409082116306602e-05
1.7789468358568428868e-05
1.7769171586846621401e-05
1.77496620808806654e-05
1.7728963324140841617e-05
1.7708799599130367364e-05
1.768891420869867008e-05
1.7668948146391780148e-05
1.7651498423286283795e-05
1.8426424457928009698e-05
1.8493756387898767335e-05
1.8555256174666990676e-05
1.8619656987601842889e-05
1.8690220875155278741e-05
1.8758112604302021038e-05
1.8807438836312155757e-05
1.8831134454220336823e-05
1.8831896158854995795e-05
1.8820835228400581115e-05
1.880070929346595789e-05
1.8738161164852875523e-05
1.8639435378454438267e-05
1.85734954077299553e-05
1.8537592032715378699e-05
1.8517598303015931678e-05
1.8505789798400077768e-05
1.8524387700733822653e-05
1.8604242046162274525e-05
1.8681681965597667203e-05
1.8748526795560252202e-05
1.881561907102738049e-05
1.8891706999350193471e-05
1.8973867172237110425e-05
1.9055041693388677197e-05
1.9133330327691501445e-05
1.920480677228292925e-05
1.8402655887965769783e-05
1.8393084077614348625e-05
1.8382837406253763393e-05
1.8372202437535369176e-05
1.8361161604006187272e-05
1.8349094729133425522e-05
1.8334498099370595076e-05
1.8313864925595614759e-05
1.82784144408147763e-05
1.8235929465657086464e-05
1.8189250690687757002e-05
1.8147966329764495381e-05
1.8097799112932465461e-05
1.8066876551564872656e-05
1.8016804620786721079e-05
1.8005972695567342464e-05
1.4781757399006738806e-05
1.4933163011370619469e-05
1.5043908852853183679e-05
1.5111260343168409937e-05
1.5140553426684990218e-05
1.5143042889773849032e-05
1.5132810746823051749e-05
1.5114415601559258402e-05
1.5069619466503218663e-05
1.4947502869063697474e-05
1.4789904341994073656e-05
1.466746559624931472e-05
1.4583694456139108248e-05
1.4535093618936507055e-05
1.4511868258490850272e-05
1.4500242931465168132e-05
1.4499611307887088808e-05
1.4537910384338873049e-05
1.4589244428820351222e-05
1.4612498549739284418e-05
1.4619985772058123664e-05
1.4630921875532854678e-05
1.4666917343774066185e-05
1.4764883480196447352e-05
1.4919687713794154655e-05
1.5106475488851108167e-05
1.5300967015737161771e-05
1.5477216963804182859e-05
1.4301887024674234591e-05
1.4294994265020107065e-05
1.4287394786796687142e-05
1.4279194010356826701e-05
1.4270244304509497902e-05
1.4259768805028862288e-05
1.4246194947539902675e-05
1.4224361305571090209e-05
1.41954661414358863e-05
1.4162853499420913059e-05
1.4135324480448289511e-05
1.4100658483901749377e-05
1.4079123146578065591e-05
1.4045416141872997285e-05
1.4040906924883443321e-05
1.3866438442518054061e-05
1.3936557299383785447e-05
1.4002301320398808827e-05
1.4059034350345261507e-05
1.410403750426203099e-05
1.4135002423890956881e-05
1.4149138872044229688e-05
1.4147394879224879641e-05
1.4136109398365884836e-05
1.4120127939182960329e-05
1.4087956098190314999e-05
1.4033460357326590979e-05
1.3995516387231947612e-05
1.3975313229639004485e-05
1.3965312083099108611e-05
1.3961607173138224715e-05
1.3979244164593072601e-05
1.4048289221422790142e-05
1.4120317343086948839e-05
1.4170098719165234299e-05
1.4197558092871092328e-05
1.4207619006304543759e-05
1.4208037368492267794e-05
1.4206980572130084703e-05
1.4212115715661300001e-05
1.4233040717174887035e-05
1.4292135991992203103e-05
1.3646538849749494899e-05
1.3639152434187406713e-05
1.3631230991477009474e-05
1.3622638292401021199e-05
1.3613446957368267e-05
1.3603680054362613688e-05
1.3592804329383739425e-05
1.3580606018754488309e-05
1.3564018487472580753e-05
1.3547709245753619911e-05
1.352426346837368244e-05
1.3507210554499934931e-05
1.3481856208374318263e-05
1.3471032231503260381e-05
1.3235010077525602096e-05
1.3310870150452785101e-05
1.3388849538672493712e-05
1.3459827039960114184e-05
1.3515200492520943354e-05
1.3548606660106889829e-05
1.3558564617167167835e-05
1.3551630540459596918e-05
1.353764544450905228e-05
1.351406919078114243e-05
1.346926481113100157e-05
1.3434467739562831208e-05
1.3416733675813490533e-05
1.340851792315318457e-05
1.3407112124568311111e-05
1.3427936124244350339e-05
1.3496622611309331825e-05
1.3559495972826874987e-05
1.36018813012326198e-05
1.3626408751928229286e-05
1.3637075517884849867e-05
1.3639073564030981735e-05
1.3637478189900857501e-05
1.3638327206040039402e-05
1.3648599689903802897e-05
1.3684716392530329646e-05
1.313000093980145896e-05
1.3128124049894649781e-05
1.312374777909660836e-05
1.311722268436326202e-05
1.310878419358385929e-05
1.3099373621617311917e-05
1.3089303028293922714e-05
1.3078425404535490252e-05
1.3066086280691883965e-05
1.3046893438775671788e-05
1.3028064124155885111e-05
1.2997371362645890092e-05
1.2983536639587546841e-05
1.2822601291556664526e-05
1.2872327310471326983e-05
1.2913246724670191066e-05
1.2942364983490849332e-05
1.2956615786397898861e-05
1.2956546185841067814e-05
1.2946136703406166133e-05
1.2931882829690054113e-05
1.2909969146657287138e-05
1.2886272900262060273e-05
1.2873914748659469597e-05
1.2867708503485127626e-05
1.2873714342596502433e-05
1.2915810644508045425e-05
1.2973987878134120964e-05
1.301168451303545798e-05
1.3034741647674086493e-05
1.3049951751091823864e-05
1.3064392296015783421e-05
1.3083588263734390974e-05
1.3111646135258978762e-05
1.3149097398874072049e-05
1.3193790861605940673e-05
1.3242945727774944772e-05
1.3292739547659789754e-05
1.2629934143068461289e-05
1.2625073154799404566e-05
1.2618267446269146231e-05
1.2609723953454236362e-05
1.2600461837652813637e-05
1.2590696643683682855e-05
1.2580393259404626025e-05
1.2569091689982162967e-05
1.2553021304872423729e-05
1.2537062029866947546e-05
1.2510977437041248327e-05
1.2497990452525673848e-05
1.2392204196032313558e-05
1.2453540213779003008e-05
1.2504918240225757579e-05
1.2540791395423308611e-05
1.255696371921291487e-05
1.25562249416811821e-05
1.2545256014958745456e-05
1.2530251696786795588e-05
1.2503102127048675143e-05
1.2475875379828494787e-05
1.2462253977805853077e-05
1.2456080061627113165e-05
1.2454753024761527105e-05
1.2469577764313851358e-05
1.251196887200871382e-05
1.2544721710477442527e-05
1.2566838093907758132e-05
1.2584094425964601049e-05
1.2602113652476871908e-05
1.2626235102219553463e-05
1.2659247862907660221e-05
1.2701136246815545997e-05
1.2750220277619392091e-05
1.280221542993798816e-05
1.2020216078301527429e-05
1.2066033260718927813e-05
1.2094983719008107109e-05
1.2104920851580226322e-05
1.2100536102150456246e-05
1.2089252083538023e-05
1.2071623387429301701e-05
1.204093444380543674e-05
1.2019482826091233105e-05
1.2010449519716422987e-05
1.200656511977747942e-05
1.2014513747090766266e-05
1.2052259843488325418e-05
1.2089420701969464205e-05
1.2112930594500373189e-05
1.2128624939640240182e-05
1.214338238315254704e-05
1.2163181175940666374e-05
1.219182268489825855e-05
1.2229634684693884106e-05
1.2274595578149770695e-05
1.2323997535783256588e-05
1.2373098947332943933e-05
1.1576875733437366335e-05
1.1568747198635541724e-05
1.1557944553206659161e-05
1.1540399707723211523e-05
1.1518433772925778868e-05
1.1504976704180878115e-05
1.1497786957500790724e-05
1.149816710169699913e-05
1.1525116532545688514e-05
1.1602915411707473691e-05
1.1666255964845842377e-05
1.1703089005965291929e-05
1.1718583665370338321e-05
1.1720492490165491947e-05
1.1716267450465072162e-05
1.1712832383992152725e-05
1.1715634425930129367e-05
1.173642957850256362e-05
1.179973034350688689e-05
1.1874827448139244426e-05
1.1942763679763192239e-05
1.1068211769074711684e-05
1.1061222778115758393e-05
1.1059616317185455071e-05
1.1077673188882394438e-05
1.114000647607579955e-05
1.1201627982972058931e-05
1.1244924719615377161e-05
1.1270267302235469743e-05
1.128042868687848297e-05
1.1280531145384821085e-05
1.1275574510862898886e-05
1.1270497820461605062e-05
1.1269196241082904888e-05
1.1279618124256894572e-05
1.1329046014091489428e-05
1.1421083920170738886e-05
1.150541126970092834e-05
1.0717595622783473387e-05
1.0721246549360701492e-05
1.0761527975872913775e-05
1.0837980863362506353e-05
1.0890619101042156098e-05
1.0918847410777524786e-05
1.0928864687784452459e-05
1.0927922333092824253e-05
1.0924046567136549312e-05
1.0924070918604626419e-05
1.0937297942380103314e-05
1.0987677358492822492e-05
1.105596469576100833e-05
1.0247132630505238741e-05
1.0266747743080047544e-05
1.0335450284316759033e-05
1.0404090986003146054e-05
1.0452188180914062437e-05
1.04814844927508062e-05
1.0494599850129628603e-05
1.0496410394292070731e-05
1.0493226533709613046e-05
1.049247299876924018e-05
1.0501863978677243258e-05
1.05378580602079909e-05
5.8358541466588863896e-06
5.7685856227958787895e-06
5.7409709949480816369e-06
5.7353082294834618998e-06
5.7378304969242052933e-06
5.7654955680489154325e-06
5.8541107252160512491e-06
5.9295399584260906491e-06
5.9688263439974353813e-06
5.990770776359715588e-06
6.0230046091372098786e-06
6.0982224148194845808e-06
6.2557064729322612551e-06
6.4401641307035835615e-06
6.6182069757917301727e-06
6.7622110995121279288e-06
6.857512471565441943e-06
6.9054445212109374835e-06
6.9170886544743256881e-06
6.9116055856195777741e-06
9.0580879775729606631e-06
8.8514539457519365482e-06
8.7068176149546298035e-06
8.6258858939700012081e-06
8.5951521443587501468e-06
8.5889700056559912167e-06
8.590161283351194037e-06
8.6087478267839365154e-06
8.6729515889523275593e-06
8.8172986957845764228e-06
8.9835321718522451271e-06
9.1693026673469718699e-06
9.3787776676547584582e-06
9.6005434298506469362e-06
9.8157816751411002513e-06
1.0003077024935099466e-05
1.0142371168940442149e-05
1.0227415230514608183e-05
1.026554086202176579e-05
1.0269158343931721053e-05
1.0258523791022842493e-05
1.0234407417322693206e-05
1.6358924963639089967e-05
1.6217270672886276042e-05
1.6091070111633582845e-05
1.6028201589819195062e-05
1.6010636559454667616e-05
1.6008372714922252679e-05
1.6026592972018233576e-05
1.6075637498715001847e-05
1.6198797495899409801e-05
1.6381347967843339259e-05
1.6578706147113587689e-05
1.6785980106914978892e-05
1.6998180311748156663e-05
1.7215612697673148701e-05
1.7431858962944652564e-05
1.7633110532935569362e-05
1.7807849297493248025e-05
1.7941477707732864555e-05
1.8027835911051930676e-05
1.8074317919985218955e-05
1.8090833863059440739e-05
1.8088204620398695992e-05
1.8077520684183618314e-05
1.8065595424884687593e-05
1.805523143470097889e-05
1.8050722239810141825e-05
3.5994676364446283562e-05
3.6007516446942403922e-05
3.6056923551822462942e-05
3.6167620865359166257e-05
3.63509951696600533e-05
3.6603321161198826446e-05
3.6908299113541708034e-05
3.7247044571759156824e-05
3.7600535753754117478e-05
3.7958695422447822254e-05
3.831589093182630819e-05
3.8669587903733682727e-05
3.9017534407746709048e-05
3.935178878794413763e-05
3.9662475686209444398e-05
3.9934989181452217456e-05
4.0156024404741837988e-05
4.0322539237961193192e-05
4.0431983838862679522e-05
4.0492557370976444537e-05
4.051894753183862938e-05
4.0522421069502991291e-05
4.0523321138335282579e-05
4.0551913743199673656e-05
4.0655410803207168915e-05
4.0820304529386935782e-05
4.1013333918724426195e-05
4.121290041505081274e-05
7.3859198898586198544e-05
7.3924329088992526233e-05
7.4022354057952312496e-05
7.4169623179298706152e-05
7.4369941905506721318e-05
7.4612727705872892579e-05
7.4878221720884840227e-05
7.5146517141156030897e-05
7.5399710564582502598e-05
7.5624653599951335153e-05
7.5815776760907864799e-05
7.5975384772379245062e-05
7.6109842686005528783e-05
7.6225536298483171217e-05
7.6318262071056692858e-05
7.6380210795008493638e-05
7.6400810697758978515e-05
7.6378680942197315403e-05
7.6324423874142053952e-05
7.6254058983742442753e-05
7.618405024880917011e-05
7.612496220316486038e-05
7.6084304894458650872e-05
7.6072694984410880992e-05
7.6087652357902755694e-05
7.6110019893522364172e-05
7.6132609759254192571e-05
7.6153894355899696619e-05
7.6169865656455163893e-05
7.6177178513498538192e-05
0.00010809647350156818498
0.00010795047494692888051
0.00010780226593706740683
0.00010764935857056978717
0.00010749257126846633583
0.00010733152265879618596
0.0001071623855639210562
0.00010698268990686010205
0.00010679275652892983718
0.00010659380573475026944
0.00010638246031286143509
0.00010615405716035358568
0.00010590816544389961788
0.00010565056660576411791
0.00010538859964714419654
0.00010512489900591236213
0.00010485728981089427947
0.0001045839102940088704
0.00010430812731485132041
0.00010403864229920725172
0.00010378462333622742308
0.00010355040877953319563
0.00010333313629251578798
0.00010312310225925062283
0.00010290785103938765248
0.00010267819019791013741
0.00010243324507894535126
0.00010218198957262444881
0.00010193570027749182939
0.00010170098057487575167
0.00010147388518602655147
0.00010124494010037782884
0.00012540229621738061059
0.00012504570718541746402
0.00012467123077729015375
0.00012427422875741845395
0.00012385995044650999599
0.00012343626464403266939
0.00012300777720492808362
0.00012258014210579832887
0.00012216151447108378821
0.00012175753939737494406
0.00012136624477756189743
0.00012098056511324624775
0.00012059702254320670586
0.000120219406339540827
0.0001198527761901453507
0.0001194953608261050044
0.00011913791807495230477
0.00011877088359281309619
0.00011839157474613044776
0.00011800711330857982799
0.00011762972318912266289
0.00011726863699367926928
0.00011692658672127022638
0.00011659841658059944046
0.0001162739728255514414
0.00011594435322800669924
0.00011560853470783663739
0.00011527348473801337931
0.00011494743375613736757
0.00011463166585143443521
0.0001143177516271708322
0.00011399318214434878897
0.00011365135507705598759
0.00016671559695270561576
0.00016579920229116727271
0.00016488918464548950392
0.00016397487841142120994
0.0001630626896122740286
0.00016217670284817084525
0.00013237521162904851966
0.00013196971758116832381
0.00013154406578756448255
0.00013109281847391301848
0.0001306239595887953998
0.00013014699009402568367
0.00012966852182754408569
0.00012919494466118712104
0.00012873544307600323471
0.00012829616254103571801
0.00012787415333124973137
0.00012745987479114082573
0.0001270482894753459499
0.00012664303281632917635
0.00012624990066347125707
0.00012586750726414566584
0.00012548547731923491389
0.0001250929699463714179
0.00012468703923137721464
0.00012427518455282690374
0.00012387152884927771809
0.00012348683677534702768
0.00012312435799981515864
0.00012277791048300208264
0.00012243520518684882403
0.00012208670491077963259
0.00012173206476196727938
0.00012138060674165659816
0.00012104313309671907049
0.00012072046787179295394
0.00012040126652945408036
0.00012007025575787334262
0.00011971988620591383868
0.0001193564530777737584
0.00015933928568332022158
0.00015834816559930927184
0.00015734715329690683529
0.00015634020433026650336
0.00015532483428718055121
0.0001543204029983707851
0.00015335790331731910031
0.00012255295650729960944
0.00012207944878507727806
0.00012158009699520991699
0.00012106104151664084522
0.00012053896771506261416
0.00012002735172093070858
0.00011953311661502385305
0.0001190619543908792374
0.0001186195672212233301
0.00011820676900473924063
0.00011781477543908225639
0.00011743161827563496145
0.00011705243032215965026
0.00011668099775848543912
0.00011632098457196953748
0.00011596821747107387561
0.00011561270383623573023
0.00011524851437306339434
0.00011487989619886159105
0.00011451965873662983849
0.0001141821257236139321
0.00011387318951855542959
0.00011358794754945740382
0.00011331360337204697769
0.00011303583457316112627
0.00011274786260200395538
0.00011245415778383519619
0.00011216676532751327397
0.00011189407815815777139
0.0001116330720348973545
0.00011137101421068906412
0.00011109684100050798471
0.00011081205308294927298
0.00011053220426448971344
0.00011027794657610088288
5.649348456389973834e-07
5.6408504230811266012e-07
5.6337466704906087322e-07
5.6278036035586453098e-07
5.6226284955179147912e-07
5.6181067297287771941e-07
5.6147983518846224285e-07
5.6145001248856508886e-07
5.6219518756796661635e-07
5.6487291481434021268e-07
5.7175737721436079207e-07
7.6718342375866384686e-07
7.829813327240926812e-07
7.8887466846745703722e-07
7.8917200882315709688e-07
7.8759987966716727055e-07
7.8499075678767767553e-07
7.8399965605334068428e-07
7.8485590367331296418e-07
7.9278509648230298772e-07
8.0439769982149923925e-07
8.1072169769503496064e-07
8.1300359946060425452e-07
8.1319795815869692341e-07
8.1272761918424130386e-07
8.1147423888924157244e-07
8.0709346765375028529e-07
7.9437932807632862143e-07
7.7945472572199044515e-07
7.6701120322682770097e-07
7.574791118353642033e-07
7.5155550211624688445e-07
7.490943451896995715e-07
7.485203402932986023e-07
7.5041506413765911343e-07
7.6142812092234684785e-07
7.7972792126069014931e-07
7.9100768867552419866e-07
7.9575982980952562859e-07
7.9652462133890769799e-07
7.958973527090185663e-07
7.9396317776200087865e-07
7.9018392883567625414e-07
7.8766926640105664982e-07
7.8625783961393408286e-07
7.8548317800291189129e-07
7.8512975902806819959e-07
5.8751222258069451282e-07
5.8719066705536682802e-07
5.8689342908642322912e-07
5.8660192407556647239e-07
5.8628357880072029781e-07
5.8595234297646307695e-07
5.856231064740618046e-07
5.8532579691232945742e-07
5.8497137489428958802e-07
5.8456486097421546254e-07
5.8410494534203009151e-07
5.8355094204700221238e-07
5.8298342338795249737e-07
5.8244346008837721813e-07
5.8194323372260297018e-07
5.815168341481533005e-07
5.8132919440153995835e-07
5.8173210009675620586e-07
5.8438594279577041134e-07
5.875408797541020422e-07
5.9170711165119643979e-07
8.3059461094849952225e-07
8.5147837104036346793e-07
8.5961461579288167236e-07
8.6025918330139634824e-07