/*--------------------------------*- C++ -*----------------------------------*\
  =========                 |
  \\      /  F ield         | OpenFOAM: The Open Source CFD Toolbox
   \\    /   O peration     | Website:  https://openfoam.org
    \\  /    A nd           | Version:  12
     \\/     M anipulation  |
\*---------------------------------------------------------------------------*/
FoamFile
{
    format      ascii;
    class       volScalarField;
    location    "0.0125";
    object      k;
}
// * * * * * * * * * * * * * * * * * * * * * * * * * * * * * * * * * * * * * //

dimensions      [0 2 -2 0 0 0 0];

internalField   nonuniform List<scalar> 
106891
(
0.028813551378272656001
0.028829292618788433106
0.028840482912532165033
0.028847900726457161025
0.028853333091188083231
0.028857497539895166083
0.028859169946355463232
0.028856989631570142962
0.028841819550993762211
0.028819523936984284967
0.028789968431098947321
0.019739937452004408663
0.019778569450461594426
0.019784318405940016367
0.019778564449195644437
0.019746330946697140257
0.019661939482751526059
0.019604991199003045377
0.019583259046578725682
0.019582776452271424827
0.019601079678242705473
0.019686355305295336754
0.019908205048574923596
0.020133446117247773277
0.020338538452645264776
0.020536549064093058414
0.020732769180021270311
0.020927872202898843701
0.021121425544224508436
0.02130975482369093163
0.021486384823241579806
0.021649833847740069387
0.021792752663913464439
0.021910508762992428333
0.02199717831253385214
0.022049605752758390242
0.022072781830465036668
0.022077087147972948578
0.022074558474271734065
0.022061871957465787469
0.022034571549869427093
0.022016467018437894942
0.022009738513419866562
0.02200958892946199702
0.02201391311918846419
0.022018552443143359076
0.022020180080220191909
0.022020410155212156306
0.022022381651102401756
0.030024789711068484988
0.030028244739442544464
0.030041007908748775662
0.030080355171266361797
0.030134741070814839714
0.030184328010983352969
0.030227403678933627978
0.030262274415570541986
0.030290042302348628434
0.030311169445606245265
0.030326189411817933844
0.030335695725431092995
0.030341830884818697667
0.030346294814070015611
0.030348622302441171511
0.030347793213816726121
0.03033899200597236015
0.030305652667483182205
0.030274220240969856172
0.030233454581126157495
0.020741643504003686588
0.020742005731203497915
0.020735938700509767146
0.020706940735000751302
0.020643631559232031303
0.020603004767141698539
0.020590958071844626953
0.020594363580226870969
0.020631626767388253768
0.020786542977373076435
0.021099002233168382553
0.021383892317872365413
0.021640503385052925478
0.021879454291683798212
0.022106898267142478104
0.022324361899531505737
0.022528450545146974648
0.022710805725674288597
0.022864480010677565996
0.022985698787425394574
0.023071965734312045032
0.023127359979731892947
0.023154736781604658147
0.023163920494435611547
0.023163438250059391332
0.023159025851937024149
0.023146318017102106984
0.023111570309988203192
0.023070780751108473094
0.023035891646792251014
0.023007138101465773178
0.022982010376130488499
0.022961305850243717008
0.022944965663333059813
0.022934444446942234969
0.022930293364030268632
0.03167007122605489805
0.031674855161683161675
0.031690434683743363975
0.031729159366787156038
0.031771159313758165488
0.031807544651062308327
0.031837218256888934198
0.031860979225892892275
0.031878329281413146645
0.031889941067198106228
0.031896743461778079287
0.031900706723738847526
0.031903122410925813246
0.031903164635611942768
0.031900160770830826573
0.031883909478105910973
0.031854848071772176588
0.031833809911393236292
0.031821834142559284053
0.031817117686979472235
0.021826167150587272303
0.021823814241453607515
0.021807770272061859779
0.02174595689208740773
0.021670463520670306401
0.021629216195070643386
0.021619107029454930069
0.021625711035696416895
0.021678047528246778552
0.021870516241835041144
0.022142626146296615769
0.022388655631704425242
0.022627605156925769542
0.02287515668650893369
0.023136280877130006167
0.023404307756856836814
0.023664107846317842393
0.023899586772090013892
0.024095885292346404943
0.0242455334548670777
0.024347173259578497317
0.024407089260634836497
0.024433596738389989911
0.024440377822194794127
0.024438476999978610976
0.024428771350064062973
0.024399390076337523076
0.024322915594940340556
0.024243298751023319854
0.024180541239072005089
0.024134764552095094858
0.024104925067232871316
0.024088307211357483373
0.024083135140161374133
0.024084867372877263175
0.024097207795772249139
0.033425241387132029192
0.033428926540351670826
0.03343133342104114003
0.03343285522659922987
0.033433902877309344681
0.033434619288643371848
0.033434734672497343211
0.03343418937128599111
0.033432368523566340091
0.033427677268128355714
0.033416570924862949721
0.033407117618907043732
0.033401732687987968629
0.033400006454055580773
0.033400611297659650589
0.033402820767886864939
0.033406436558602072007
0.033412230228274004962
0.033434472918987830081
0.023139098963561095801
0.023132317534368736223
0.023096798235249346026
0.022982925934238090937
0.022864648641569906146
0.022794522160597376764
0.022762732501900837662
0.022757971248149874016
0.022764562857259282996
0.022801324949449634782
0.022933487473911443738
0.023237450578412803537
0.02356091723079187239
0.023885487160489521363
0.024203697445211919126
0.024508272126686148767
0.024790603344996799823
0.025040314046520250474
0.025249226751706321803
0.025411797723764534274
0.025526903845944859395
0.025597676448269286037
0.025630795354019152155
0.025640268292169515058
0.025638482774668600733
0.025631119163256704113
0.025612804383500428762
0.025592844809343158474
0.02558118165157476781
0.025577257014006711533
0.025573524217294786587
0.025564836957069327072
0.025550576005313355848
0.02553771903393019238
0.035104796182785072411
0.03509173109275915553
0.035079372946309833603
0.035066381398746258868
0.035054984623048547621
0.035045178788270056613
0.035036920860495389396
0.035030664339380054861
0.035026259715088312041
0.035024267263608237222
0.035023823977976091537
0.035024368103673139685
0.035027926259329593417
0.035042906636424196731
0.035067542951566124665
0.035108303416051964141
0.035131998617551118969
0.035175829200389134577
0.035197078652787733288
0.035244881864996892296
0.024311025568348409998
0.024309806525682649964
0.024294612123617911198
0.024232208464048127922
0.024119804745043209315
0.024044206292181305451
0.024008302104697374496
0.02400159246658048473
0.024008602959601089977
0.024052744847107041665
0.024225170621267205079
0.024671752380369130209
0.025141582832228059896
0.025551447049542978796
0.025895698089802438036
0.026165510244360614539
0.026363994084798586526
0.026499690502114411905
0.02659012338352665164
0.026657095949034575327
0.026719194191299689561
0.026787924979482503202
0.0268652441412723271
0.026942519477627126928
0.02700702358705337966
0.027048908003885593215
0.027068155178339079608
0.027073880519061351013
0.027074150956820773606
0.027070201256291216013
0.02704915621587960714
0.027009210572612508267
0.026978019226495269373
0.037043832157729564281
0.037043024719469797024
0.037039845176748714684
0.037030658492702116236
0.03701912288810004642
0.037007910185282440196
0.036997010148582351596
0.036987316705642703241
0.036979559088511686216
0.036973365255032281107
0.036969211570488165475
0.036966744742065398011
0.036965269984930944347
0.036964801812453908225
0.036965001661998474203
0.03696709353209359783
0.036978177432926737089
0.036997129374255498246
0.037056823554659362729
0.025578869268609860654
0.025565114578024027842
0.025506251023513844267
0.025401027158711630277
0.025335061559183112007
0.02530982106213219146
0.025310878145912964199
0.025341512136039232028
0.02548653863198091854
0.025915677820602129461
0.026392560054138234499
0.026799429727913277877
0.027153124738045597564
0.027463515560165251833
0.027737420302874852412
0.027972114101491175886
0.028163406870652746283
0.02830597082390150579
0.028399538653437497032
0.028450407829177855323
0.028470359833707492569
0.028472831125458571144
0.028470729668791393968
0.028461274919007455153
0.028432728439573101004
0.028362247944736119348
0.02828045083032339202
0.028200976297415750876
0.028126442925871061873
0.028065274651226133212
0.028021692444189023191
0.028000530351027667908
0.038994577139242904418
0.038986727995262704383
0.038965835434666556969
0.038941248468417330453
0.038918957120475536349
0.038898630157586183698
0.038881781188213969391
0.038869017975826695988
0.038859378592842344635
0.038853097371385633685
0.03884915637842363545
0.038846422704405678128
0.038844552620597286308
0.038844199243897821472
0.038846763020830531177
0.038857889208293965033
0.038898051903718790234
0.038923192179204979535
0.038978373407853185439
0.027037576400688684286
0.026923631072289108679
0.026796244293144064891
0.026716137932262691568
0.026680577081446957277
0.026673730857884648399
0.026683367602578524774
0.026744431092023093072
0.026981708147547082272
0.027436790201889330737
0.027867169845644704229
0.028266713690405682879
0.028638910580965556973
0.028979568740470963012
0.029278914438021091254
0.029526504933943230335
0.029715586499120937719
0.029847505721359263858
0.029927445008381473035
0.029967311842455119503
0.029980416326427554441
0.029981753286918492313
0.029979201787706043214
0.029966151079294844894
0.02991917374150800113
0.029812091979920282703
0.029703343968356669264
0.029604474376027731936
0.029525031116828172328
0.029470345586272865546
0.041010323418487995561
0.040967657774937694948
0.040922573424370563278
0.04088036871218089785
0.04084280987920394651
0.040811810608373674802
0.040788219791220096944
0.040771066430029985483
0.040760623746456330074
0.040754629853517979066
0.040750919170920656132
0.040750130380239099614
0.040753326405444934011
0.04077314545108014221
0.040826502003290070231
0.040895380229444854014
0.040932511269068133641
0.040998717721781874346
0.028211260694139362465
0.028098104613673676594
0.028011509333392844989
0.027963988737674562446
0.027948560122688113905
0.027952754890569361107
0.02799761661996206033
0.02819580637140403287
0.028699709937582199709
0.029206608329275771802
0.029661979219653324819
0.030071897861031510191
0.030435867006086868986
0.030746426102117144913
0.030998253871694088357
0.031187766804181837887
0.03131297855047653067
0.031381902116050200413
0.031407814789844973324
0.031411605304509496173
0.031407074068093558672
0.031383052924645847559
0.031341616619446448222
0.031319178890642819513
0.031310388994652917083
0.031305879269122920128
0.031300276750227590261
0.031288046709402723977
0.043068418477208825212
0.043010095280367810489
0.042958097801468704546
0.042917065528332451474
0.042885838865953838928
0.042865515705293677495
0.042855409923670866046
0.042850713410776550272
0.042849544131243491596
0.042851665200371945319
0.042860164191858021732
0.042893293503718177284
0.042972574119409197302
0.04304506037887882719
0.043104975169339899976
0.043148411485638575591
0.043176934953240923842
0.043202898993605506894
0.029250187172673015185
0.029231800533557488614
0.029222160205816239548
0.029226353413492674183
0.029275551455321398991
0.029495150431292454368
0.029964453374346011055
0.03038371486943554009
0.030715039487719909134
0.03095892930013858721
0.031144957381144398184
0.031313795278217648743
0.031496869973687086075
0.031696283582257588074
0.031904379865763228541
0.032103164998726688162
0.032276598646039170171
0.032413906709432491193
0.032516528537345781857
0.032596053965671507868
0.032657826971517554815
0.032703458290688505739
0.032732266122349952531
0.032746865110901447748
0.032748800063098576496
0.032745388754256844754
0.032729913734046156559
0.044903451656194887098
0.04489419943467851809
0.044877751710517721495
0.044868692774637987386
0.044858857305630536749
0.044853674257183465124
0.044842284948061361671
0.044829643426491719294
0.044805847816587029975
0.044779940415914383511
0.044745515353792911228
0.044717596423759088664
0.044684774941129774828
0.044654228372793612623
0.044623082989594949066
0.044588555106487293145
0.044562913242689808357
0.030329393631804400094
0.030599290331297879231
0.030856081196036045516
0.031125663590079465787
0.031417158056169854075
0.031700561237385536939
0.031922148746483060278
0.032056136245418656583
0.032108381811426250918
0.032113980305754810662
0.032082447517168280471
0.031903448659697353218
0.031603256983016352055
0.031421829353361782622
0.031351512672943539217
0.031342598554602869865
0.031364842637131913616
0.03148939167891285501
0.031820428266321587607
0.032141956452545264455
0.032424155036452413647
0.032704019424643779312
0.033012080277735535161
0.03333964032281909462
0.033663943930724103681
0.033980786850656113929
0.034278433368238846179
0.045045609638622405302
0.045055321470937763351
0.045059912887886272026
0.045061507275223053326
0.04506106308808639771
0.045056821757891385438
0.04504249412488148252
0.045001672695795073842
0.044891557813761369389
0.044749506226963414734
0.044589224110865778583
0.044456688842615582624
0.044280446164623794847
0.044197003723477366888
0.044017319948113524386
0.044026240163830082652
0.025767038052801300579
0.026341197771476542594
0.026778792090098767903
0.027063238040167691967
0.027209240684152605216
0.027257100509939968108
0.027259568753194182017
0.027234652532095067479
0.02711620177117856148
0.026720330268596593354
0.026196566605068815486
0.0257985442355980997
0.02553822547535281734
0.025403821326745814474
0.025361289817480935777
0.025362078984210792432
0.025402268697054683488
0.025578978206527699935
0.025803888588108704616
0.025931052565543864785
0.026003138977555125683
0.026086211670002388413
0.026255587775942928336
0.026643511958396103728
0.027237743244315829744
0.027955430769222699289
0.028713047630596798959
0.029415054128676027673
0.035933207740102376948
0.035939985971342049142
0.035942989976719519341
0.035943673292892136528
0.035942190762091798251
0.035935273765519908096
0.03591532613833653409
0.035856449209494933861
0.035763807879338173346
0.0356538399418349361
0.035570175939172894719
0.035450366290338833353
0.035395524934142531814
0.035277758767024498809
0.035304536574388908909
0.023618805157497910208
0.023896723141958210734
0.024157217597283685978
0.024383769001613282007
0.024568612177809111274
0.024706856524823052335
0.024790929613369566686
0.024824007923219260086
0.024825805556369824612
0.024810960099435546561
0.024738012489359563484
0.024584171491386780373
0.024486550376031934045
0.024450230592531572299
0.02444929478798283165
0.024470247951470167069
0.024566865893729594034
0.024847801817620522591
0.02514603676708693572
0.025369998878791533842
0.025515531438453267765
0.025595947410867271599
0.025636534726144799556
0.025666528660194740108
0.025715642463099236403
0.025821468178646538733
0.026067958467616475504
0.034026834301867307786
0.034027498536615269353
0.034026909908928010262
0.034025136007538300809
0.034022921319797810868
0.034020405660459267227
0.034014613737953607042
0.034003858394569416723
0.033972177244787224448
0.033942001696349421991
0.033875602007584805497
0.03384008582717230873
0.033761570763838212594
0.033754241290274308862
0.022407572791702325826
0.022694217543428409078
0.022985071793046627647
0.023251849791778553961
0.023468434040863725421
0.023615044512137434857
0.023686381169792297685
0.023703117284005363608
0.023696808837288734634
0.023655910429420320962
0.023537694866104606067
0.023450511737713335136
0.023419909011932381337
0.02342077280997826097
0.023445139622475800328
0.023549121253319378611
0.023826109290698085225
0.024089914789662911915
0.024285130278559722422
0.024417830484599577223
0.024498252205863352282
0.024542732123616496642
0.024569867842769353011
0.024603452223742328098
0.024671099773807905059
0.024833612960166815548
0.032760213971426054014
0.03278820953969783375
0.032806152915388193947
0.03281602393599084011
0.032818804862609927964
0.032818656175130724029
0.032816415478634904102
0.032810590148470201999
0.032797240379384563769
0.032748963943663188247
0.032701345283900555561
0.032593086875397879465
0.032568343485270538629
0.021892387104351367089
0.02208290593472566482
0.022242611635792004787
0.022365026041727287948
0.022442278387756833119
0.022476755603354815066
0.022480433161535511716
0.022472569624797215232
0.022436760423582936125
0.022390649724612191745
0.022379244387554061285
0.022385022873824149403
0.022430657359488147262
0.022602585576361401004
0.022836078091913753624
0.02300377860463456714
0.023125244249649515998
0.023222024212264519294
0.023315915805826536999
0.023424418231359690756
0.023561306444635689988
0.023729372514585792692
0.023923079694076272023
0.024134390593680363907
0.024350053386175785769
0.031524376656137768904
0.031539472631890434762
0.031547432056536740819
0.031548952230233268113
0.031548439817791221196
0.031546147252463289934
0.031541108306392055816
0.031530410470062768258
0.031494913831405395299
0.031458816845824300046
0.031371070280011743858
0.031348347189828533466
0.021273613251129901841
0.021502419088633421829
0.021701030865952569693
0.021852270604475150517
0.021941478677480998755
0.021976262846993679934
0.021976850066210210088
0.021962114332272082706
0.021901331423800785708
0.021835402148291334357
0.021813069080785344594
0.021814871500618119443
0.021834705637695298736
0.021914913811546161276
0.022098146888245569913
0.022252949026645148928
0.022372493748781765999
0.022474191742553443346
0.022576243258649784929
0.022697734001840809415
0.022849979876029921644
0.023034499783933432004
0.023246514937246918336
0.023470658098217182796
0.02081688092136209714
0.020997720160349512414
0.02112572253367325098
0.021192480437355581957
0.021212336424897993564
0.021208961353484358237
0.021182014528951693955
0.021106026741525583945
0.021058235802541638848
0.02105074895407236385
0.021060042573107819186
0.021112251783558431961
0.021273409921990702603
0.021438604115346326234
0.0215592860281227372
0.021653451324004417688
0.021743283780401058414
0.021849243117061489805
0.021985781658766908458
0.022155517185604385599
0.02235216935626764892
0.022566658153310791002
0.022780695609894062448
0.020119474681664587662
0.02012030908738988294
0.020113756275475416779
0.020084193010418287945
0.02003799650048685918
0.020019189907425370689
0.020019691503035379893
0.020044373071081512949
0.020161048964679576662
0.020459104436501496932
0.020712611061781537047
0.020876828051818584198
0.020967639791899049528
0.021010248545151270078
0.021029736144454035801
0.021050586622306799445
0.021093132748153976819
0.021200368334553992833
0.021462286500286583552
0.02176961929459845374
0.022051858138116706143
0.019225276129397554647
0.019227146860146576007
0.01924613789433723271
0.019332216602317455617
0.019573774231813584334
0.019816925956445439333
0.019999142617799798433
0.020120633845166394083
0.020189485693101950903
0.020222534158120433756
0.020236930771013645486
0.020250729594068227202
0.020278453951011198714
0.020348685214412416677
0.020559733041814166887
0.020927450848450934728
0.021268694620964589959
0.018832745745924570069
0.018870818281993242266
0.019039139672219193566
0.019339448674733715483
0.019557562056868336986
0.019688899818480792847
0.019755013101810603438
0.019782349353365081407
0.019800299850672591767
0.019833291941333347497
0.01991388113141820751
0.020128763710982794377
0.020409385158894111784
0.017920452444275380283
0.018014120543455948431
0.018281630137662884666
0.018552098113169698812
0.018751026319225167632
0.018884034791846547596
0.018960680951098932839
0.018998334235145155485
0.019018842880908926746
0.019047517395988811106
0.019110660637555360736
0.019267858634846576904
0.01065468323271237007
0.010425931860522437422
0.010339152675298985892
0.010330364652057820798
0.010351259385461683213
0.010463945333730047607
0.010802129074030927813
0.011098189126143036612
0.01126134028977865062
0.011359789625064585505
0.011498648890727802482
0.011805157293853835512
0.012442790858646810351
0.01321046206528075917
0.013976652876939438599
0.014619688594029530901
0.015064921283131414362
0.015307701722284796156
0.015390978126191856915
0.01539765009314717284
0.026614798508216627043
0.025465171705012373121
0.024682366292341505892
0.024260712387941509027
0.024118119672645741552
0.024111670174108219139
0.024147132578917842455
0.024281734933520742609
0.02467539494481902837
0.02553559477889259452
0.026543071367352285422
0.027692383339186964208
0.029018546041069872427
0.030459360567156999744
0.031896804900511020742
0.033184735278299723471
0.034176587378009319618
0.034815580791014974493
0.035141725204088550272
0.035235365688454513278
0.035233944203936974626
0.035142071634606454611
0.089762573521255106801
0.0884111480487566187
0.087232744112342552878
0.0867365456003291041
0.086715251467162399179
0.086836524795332423188
0.087157989217872419707
0.087801056433083488062
0.089255659192622280318
0.091389229452635681317
0.093720173491388822362
0.096199080608534090486
0.098777583714604141885
0.10146967566496686852
0.10420622356736861103
0.10681576627015991476
0.10914093279986260276
0.11098218964762009142
0.11224604416894029546
0.11301682348239600051
0.11341987800037729717
0.11359599488778832077
0.11368794689261159381
0.11377739494294772382
0.11388672250774728445
0.11405424023485018215
0.45102711701723979809
0.45223473552126325359
0.4544308229756333084
0.45820051106879905456
0.4638123959333000923
0.47116864369345617947
0.4798582464571866657
0.48942166622058824732
0.49941992221234859928
0.5096527435228873637
0.52000125722604551015
0.53038107667327205608
0.54070934748891630317
0.550776118005332882
0.56034032199259420359
0.56901316174776872536
0.57638912739784553541
0.58231021814827721439
0.5866254241812379755
0.58951330345885899487
0.59137775960308347489
0.59255586772056068057
0.59366751498522296604
0.59562106457247077085
0.59980090965291876781
0.60578842630258089574
0.61256280153041930969
0.61947753671321781344
1.9751063577476897226
1.9815151592720237073
1.9901004591007303013
2.001620402084020256
2.0161763141962620871
2.0331664669565774339
2.0514863635226188165
2.0699436177026475647
2.0874675142989587151
2.1033721876282132079
2.1174488283546906153
2.1298320311479863598
2.1407612256542387641
2.1505275512958914597
2.1590344183788587884
2.1661245410584801796
2.1714233827829900747
2.1748252584541618582
2.1766385615600158943
2.1773830680750183575
2.1776862499781470817
2.1780365381840209871
2.1789785429651105098
2.1813956436036221476
2.1854413372767851342
2.1901373257225955626
2.1949655907345495542
2.199662133059380853
2.2039491120989627149
2.2077884465300634531
4.4005181167031173217
4.3937999448999800478
4.3882025442765666412
4.3836140583039986396
4.3796341528424171941
4.3757187344963019981
4.3712617370651782878
4.365761805330384604
4.3589095681970464469
4.3505913179692363713
4.3407355859880532023
4.3293463270311001168
4.3165392276363485635
4.3025867776820643229
4.2878757028099681037
4.2728130839996287804
4.2577678568609220733
4.2430872462618660634
4.2291138234672880358
4.216099821229923883
4.204115483090665073
4.1930008629879740312
4.1823710792409869441
4.1717086408442396461
4.1605146129730341542
4.1484777851910568103
4.1355754572732834617
4.1221685150131799347
4.1087729720953305446
4.095920037452866147
4.0837632123757554581
4.0721918451959222551
6.1677673789311917574
6.1393286625116507693
6.1109211827170923925
6.0823515757092838641
6.0535967587159822401
6.0247310597092758044
5.995768699837944915
5.9667823471536634017
5.9379562926112701149
5.9094729677210002805
5.8813691044097486937
5.8535864648543523003
5.8260966147468158383
5.7990215785577738927
5.7725042049218142637
5.7465394049852696057
5.720952220211065864
5.6955215423305212141
5.6701382988135957675
5.6449006670370085459
5.6200286551465374885
5.5956929822107035477
5.5719409554374559335
5.5486734852107293392
5.5256817511493094841
5.5027436588006874985
5.4798209239352928535
5.457042593225845728
5.4346004380326284888
5.4125940978353099808
5.3909035845033024259
5.3692524821804452628
5.3474239680276944853
10.469713855415138326
10.367617806417603887
10.267858381182810135
10.170022491835021938
10.074335574059515963
9.9816230989751737468
7.1384477632404355063
7.1017826136061499298
7.0650806038776652329
7.028143329059322042
6.9911464709396451411
6.9543200131527180829
6.9178211232114312779
6.881786120840253318
6.8464297870919192945
6.811928870474626585
6.77824388189774929
6.745141789706455171
6.7124865151804780083
6.6803531525813903968
6.6488943378740383849
6.618096686494202352
6.5877026166819989683
6.5574388250611574946
6.527217184924729132
6.4971838297183683864
6.46766872259926906
6.4389374669879027024
6.4110957663151237895
6.3839869227913270677
6.3572639911787742761
6.3306470754153254532
6.3041064724147233278
6.2779010534368442364
6.2524085793759756058
6.2277050042902031279
6.2035142696122136385
6.179390655863267412
6.1551163067593810396
6.1307000876915882515
9.9368060100448314387
9.8239914282577345261
9.7117715065199057278
9.6004338419184733766
9.4905462717608646273
9.3838151697280931529
9.281902713418951123
6.3426369860896540942
6.2995315113811534147
6.2557281251742891115
6.2121873651097079261
6.1700249498598118691
6.1298943690874745371
6.0920342629058792383
6.0565061971649374328
6.0232171828130987024
5.9917759327774620104
5.9615355821403026582
5.9319717552025226226
5.9029771652912872426
5.8746603386360085608
5.8469797480040055504
5.8196037342502275891
5.7922662470213461816
5.7651350723730097059
5.7388249696709205949
5.7140707977509821447
5.6912878740035095504
5.6702890274735207043
5.6503932974540527212
5.6307602281458928317
5.6107961304444362582
5.590463470749804209
5.5701898467069881349
5.5505279705140546653
5.5316365999337095971
5.5132067431132822932
5.4947958451286877946
5.4763637501834105947
5.458526549167642905
5.4422702025044449314
5.4282527203547141781
7.1492371192903562027e-05
7.1389922784210362635e-05
7.1326112255384513773e-05
7.1293229073243253755e-05
7.1279079069516782592e-05
7.1279303240312437721e-05
7.1305313095177655413e-05
7.1402285628601613486e-05
7.1689186492530522347e-05
7.246276372926343677e-05
7.4325982903914025518e-05
8.2902570509998658836e-05
8.6492083256608541584e-05
8.7927332418981976039e-05
8.8117438743993525396e-05
8.7900914106375156753e-05
8.7468866934333318547e-05
8.7415505986801491875e-05
8.7783573838957955566e-05
8.974234840345289327e-05
9.2577405622681728644e-05
9.4212806343817751139e-05
9.4894093870076184709e-05
9.5061586460526520891e-05
9.5047128504399544741e-05
9.4831689426348367679e-05
9.3886025313358683849e-05
9.1036758736570561339e-05
8.774128644862535728e-05
8.5080492490324772072e-05
8.3119841906643672329e-05
8.1980294543732785463e-05
8.1603396508806146656e-05
8.1629420774505028965e-05
8.2173454805808019102e-05
8.4707628241836334577e-05
8.8938234895081502425e-05
9.1637571650757522978e-05
9.2848943560021866307e-05
9.3137780478089816959e-05
9.3109861434422064547e-05
9.2791259852454969419e-05
9.2055533802026532687e-05
9.1628517311102237e-05
9.1467534429749515674e-05
9.1453512741252444449e-05
9.1525698831835595364e-05
7.2557166644143935652e-05
7.2555252889972566004e-05
7.2560127480089089882e-05
7.2567562317510505903e-05
7.2570033231625708024e-05
7.2571732160944983701e-05
7.2577272462391698464e-05
7.2595075973236211793e-05
7.2604023618417414128e-05
7.2605646939509260783e-05
7.2599789093444192564e-05
7.2575665902761794064e-05
7.255176454406315372e-05
7.2536451607852660945e-05
7.2530035897170136113e-05
7.2539055800402457057e-05
7.2601551452887373825e-05
7.280501559720796499e-05
7.3564463629389995384e-05
7.4453391281016200604e-05
7.5600987554944647988e-05
9.23500703843511744e-05
9.7203653813932787376e-05
9.9213075689199726873e-05
9.9502147669605910422e-05
9.9082857335525934168e-05
9.6787839468896014975e-05
9.3303439997484760647e-05
9.1271276546772299237e-05
9.0349223936138551867e-05
9.0016580141066534007e-05
8.9900614812797558862e-05
8.9816034862700151438e-05
8.9670250603581709852e-05
8.9343687177776529473e-05
8.8442971427009272343e-05
8.6397010076804496028e-05
8.4214704679650478078e-05
8.2270449464040838793e-05
8.0743128580830955655e-05
7.9803353511802928213e-05
7.9455116726486214721e-05
7.944274095882152345e-05
7.9701841596206191888e-05
8.1051245536809329796e-05
8.5216017631385804448e-05
8.9342575849873644036e-05
9.1935165390239907994e-05
9.3194585721009362057e-05
9.3576498054678079589e-05
9.3588437030258593064e-05
9.3379857346616892662e-05
9.2655194467184664726e-05
9.2074328650932639917e-05
9.1808376681693377444e-05
9.1706118235993077932e-05
9.1708007593117659719e-05
7.2518004224585592152e-05
7.2518949441653307651e-05
7.2526408776114171086e-05
7.2539560527183294197e-05
7.2560051039745817616e-05
7.2603067197099646472e-05
7.2707699755156305742e-05
7.3025423351181720103e-05
7.3526632220700786392e-05
7.4037552975347934977e-05
7.4437464126747741812e-05
7.4852498287868114496e-05
7.516555909227631675e-05
7.5483625249093489265e-05
7.5672183048753146771e-05
7.5865248618498136641e-05
7.59630104660683782e-05
7.6107857326925660267e-05
7.6184555773098320435e-05
7.6379415011227920051e-05
7.6410310582849635583e-05
9.4230727063849620815e-05
9.6251706569913726588e-05
9.6648409347561896701e-05
9.6415357028556137849e-05
9.4885358400187142913e-05
9.2082727739194566085e-05
9.0453845630113563492e-05
8.9774525702913097504e-05
8.9600927280268801139e-05
8.9585864372304706239e-05
8.9606846076196525739e-05
8.9613451007104110487e-05
8.9589925166772577136e-05
8.9447559269045177465e-05
8.8880214342540328704e-05
8.6987280716130596929e-05
8.4233875491699337652e-05
8.1980150239421256913e-05
8.0379837971443276611e-05
7.9508125275263861532e-05
7.9228817050351876198e-05
7.9225976191602136864e-05
7.9421677114217408304e-05
8.0380966125099138279e-05
8.2230560338716727911e-05
8.3506490575417484119e-05
8.4116753422718370885e-05
8.4293133910634806074e-05
8.4297458289341530794e-05
8.4167450488608543265e-05
8.3750883810849351347e-05
8.3475123451663533645e-05
8.337467247124545535e-05
8.3348210915998088627e-05
7.6540006866447388395e-05
7.6929610506331627066e-05
7.7291449145684609149e-05
7.7607417040468555745e-05
7.7898075406068940409e-05
7.8186782880058510142e-05
7.8486860533383639538e-05
7.8807805651650542317e-05
7.9163951386562888234e-05