/*--------------------------------*- C++ -*----------------------------------*\
  =========                 |
  \\      /  F ield         | OpenFOAM: The Open Source CFD Toolbox
   \\    /   O peration     | Website:  https://openfoam.org
    \\  /    A nd           | Version:  12
     \\/     M anipulation  |
\*---------------------------------------------------------------------------*/
FoamFile
{
    format      ascii;
    class       volScalarField;
    location    "0.0125";
    object      k_0;
}
// * * * * * * * * * * * * * * * * * * * * * * * * * * * * * * * * * * * * * //

dimensions      [0 2 -2 0 0 0 0];

internalField   nonuniform List<scalar> 
106891
(
0.028813548586649265215
0.028829271828782771642
0.028840457807871245494
0.028847886274006452612
0.028853339421795177328
0.028857519333740280082
0.028859197081622028208
0.02885698925810635182
0.028841679135000072159
0.028819350135588898271
0.028789834267275420804
0.019739595476934278934
0.019778071814504513681
0.019783769726781995357
0.019777984789594423021
0.019745580766621903535
0.01966112987839524831
0.019604394323543192918
0.01958281908854839562
0.019582409756262894596
0.019600881316230604756
0.019686641387395301117
0.01990887920051192389
0.020133941317628915174
0.020338950878856523752
0.020536936194220419688
0.020733165882915304684
0.020928294270087577367
0.021121866076307348886
0.021310188961260162488
0.021486790817715269164
0.021650184743123447595
0.021793007874736081836
0.021910625466989668703
0.021997121489728301003
0.022049382348233143025
0.022072446429265743517
0.022076719704707297581
0.022074195694651271848
0.022061461405142094444
0.022034176849728383946
0.022016127959341803833
0.022009441804793507258
0.022009313282795473637
0.022013677124585042527
0.022018305316382429104
0.022019911597013757526
0.022020110516344549439
0.022022060446978707071
0.030024733265683119232
0.030028234306163484324
0.030041104043306333243
0.030080656896493269264
0.030135022945227647045
0.030184559334052417368
0.0302275713621450344
0.030262378995123052905
0.030290095533189856369
0.030311184295312584847
0.030326179961215879444
0.030335679622388578985
0.030341826091653104069
0.030346305800921041795
0.030348642217234420015
0.030347809382544957413
0.030338909177511814985
0.030305401481492695581
0.030273971318802991165
0.030233274398505177727
0.020741064618572960243
0.020741418950446177671
0.020735327690555655639
0.020706183142595237234
0.020642887278730488732
0.02060241293450941133
0.020590492878109861036
0.020593993947791492533
0.020631558758814227961
0.020787347696547719966
0.021099896632064667895
0.021384626390828172238
0.021641100160312762984
0.021879969902997530029
0.022107372323715221429
0.022324811811815489793
0.022528862316851253761
0.022711149257765621268
0.022864727005866575943
0.022985822447711717897
0.023071947492400914081
0.023127190292352148293
0.023154426088047484755
0.023163512520017363189
0.023162991850955608891
0.023158565953633986761
0.02314584458241283893
0.023111049186162638952
0.023070317538550089848
0.023035478536832350999
0.023006755879142058024
0.022981644511008716969
0.022960951443068599448
0.022944616676290663371
0.022934095567635953694
0.02292993707289333466
0.031670036007295877811
0.031674873534110352391
0.03169057691437485863
0.031729417898597268854
0.031771380406631008486
0.031807713672366164093
0.031837331244056438218
0.031861039040130073596
0.031878342569941126028
0.031889922680467162885
0.031896712839008280194
0.03190068265911449874
0.031903110147943343489
0.031903167735161670759
0.031900140629057237296
0.03188375094884553923
0.03185470258184602832
0.031833704592137412881
0.031821757982669778009
0.031817049029254099168
0.021825545627712019531
0.021823173413141657567
0.021807049569793863358
0.021745033632349898556
0.021669672997479596382
0.021628595654707701706
0.021618612280250453644
0.021625338008052368693
0.021678071932134432287
0.021871310723716619329
0.022143328310983777241
0.022389248715461555067
0.02262816150529637152
0.022875735389706025602
0.023136903934524926524
0.023404950999955740493
0.023664721610914148803
0.023900110525188512922
0.024096264411031121516
0.024245733069022341877
0.024347178897065498843
0.024406904884220478186
0.024433250652027286437
0.024439927781481542851
0.02443797107087392409
0.024428217916046709307
0.024398741642644578009
0.024322163933337810626
0.024242675018855273233
0.02418003358130195804
0.024134347772432677287
0.024104568385533983038
0.024087980093721549774
0.024082806669368024555
0.0240845245729779181
0.024096919766145339509
0.033425252047242261233
0.03342893706027579015
0.033431341031405235886
0.033432855760152480062
0.033433891935769843862
0.033434593080899861761
0.033434693970266764207
0.03343413269040276109
0.033432296996142481238
0.033427582278911113778
0.033416466079853733573
0.033407054501881250363
0.033401711889032931202
0.033400014287479955211
0.033400634651852716128
0.033402850436007637536
0.033406458277800719914
0.03341225698166372382
0.033434541054800745452
0.023138468457054677668
0.023131632738967879137
0.023095919515270946915
0.022981764449538148037
0.022863706828464443882
0.022793806076159352919
0.022762197299563483033
0.022757536282216665052
0.02276420276903266468
0.022801175087278264392
0.022933998491792607216
0.023238378974170050689
0.023561783015527668766
0.023886336880058478549
0.024204522255354278537
0.024509057267778328049
0.024791318357657410321
0.025040915318731107875
0.025249668064398711476
0.025412038302279189167
0.02552691736438671144
0.025597462523892628578
0.025630396147174279442
0.025639763841268908146
0.025637943933973259686
0.025630581166505208429
0.025612294945742363622
0.025592430925737645608
0.025580860373506632277
0.025576978846933471484
0.025573227702174086695
0.025564469330502423428
0.025550148639796748523
0.025537266488896231964
0.035104679838937967451
0.035091635256610617666
0.035079289605938326901
0.035066308609353134818
0.03505492380203295566
0.035045123242724851576
0.035036866452168947961
0.035030609447721100524
0.035026206172444618314
0.035024216572395343305
0.035023773872626944026
0.035024326654004837855
0.035027926818283594557
0.03504302986344984272
0.035067733586677481139
0.035108495561460353884
0.035132198110219600706
0.035176013662462889131
0.035197245311247751798
0.035245000542393031817
0.024310416528812460457
0.024309147510259077746
0.024293851773382033749
0.024231162998023820371
0.024118842563279611901
0.024043452852458433583
0.024007729920235483523
0.024001116209574960975
0.02400819800494705461
0.024052605749334335372
0.024225951344487843542
0.024673398058914074171
0.025142919229327976433
0.025552520925862989148
0.025896498069995596558
0.026166034698015878945
0.026364270647936137448
0.026499767177799640056
0.026590067717236345185
0.026656975058270776513
0.026719052889895018865
0.02678777743684803217
0.026865074356411122042
0.026942297276564761144
0.027006721705724365257
0.027048529972951623757
0.027067744445928059588
0.027073483480824042657
0.027073789928324820675
0.027069828927499949012
0.027048642409435073863
0.027008665201146756646
0.026977470952126433174
0.037043824735589273023
0.037043026066498903337
0.037039836290456602808
0.037030619381967298798
0.037019088204962385946
0.037007868991245126966
0.036996956996886216917
0.036987251894721157042
0.03697948275740862295
0.036973279365952460562
0.036969120050438231129
0.03696665027186993302
0.036965177571531004919
0.036964715678268623977
0.036964925088284021626
0.036967044298327332574
0.036978227268412357243
0.036997244625816008701
0.037057021004337019343
0.025578189761185778778
0.025564327629433974964
0.025505193364351343155
0.025400070204539854091
0.025334324760897877771
0.025309258791267771199
0.02531038345560764069
0.0253412416755314715
0.02548709137305768882
0.025917325521018018397
0.026393845344965125022
0.026800466925076558977
0.027153994751704421673
0.027464264324317148175
0.027738046234413733793
0.027972585235448713809
0.028163686380053610386
0.028306031695143878818
0.028399382309017940501
0.028450069719286007197
0.028469897506087974565
0.028472311854201081543
0.028470182323036288818
0.02846067688893832992
0.028432005873083764785
0.028361390265935173399
0.028279622987463125944
0.02820018185868269911
0.028125696001379419525
0.028064586723914708433
0.028021077815751808254
0.027999989611312791488
0.038994553555344667328
0.038986670705619765054
0.038965721524561493239
0.038941166018441532304
0.038918899472148459073
0.038898588819157670082
0.038881748399530874361
0.038868980183884835333
0.038859325239440606348
0.03885302304622206826
0.038849056216305084821
0.038846298358230862968
0.038844416125845077081
0.038844061925941135438
0.038846667105122731356
0.038857903620029846103
0.03889823072006963478
0.03892336566427910538
0.038978517729668496483
0.027036630132384678604
0.026922360156281369137
0.026795181863097435049
0.026715311679234819697
0.026679927168424863448
0.026673148568591820151
0.026682851572407861179
0.026744278216733294307
0.026982787094403753309
0.027438051530150178725
0.027868357341983954895
0.0282678332015183012
0.028639952785316988293
0.028980476281187227822
0.029279614529133420053
0.029526938025944294425
0.029715730610598983796
0.029847384302863246008
0.02992711245434746814
0.029966845912495543303
0.029979898104941740677
0.029981240757386073276
0.029978686215853193875
0.029965558613171471708
0.029918311385527633639
0.029811059420064137115
0.029702336337141515415
0.029603522918203697273
0.029524183969045051518
0.02946963181343937449
0.041010160569701824274
0.040967404383131351964
0.040922373378633997154
0.040880215026392260902
0.040842702494520689849
0.040811741748923810458
0.040788170039731348748
0.040771017372805883061
0.040760559367029741695
0.04075453407849372045
0.040750793600218923607
0.040749983769832583136
0.040753208505106879034
0.040773232279644452958
0.040826817285115037104
0.040895635777511513131
0.040932798499304971773
0.040998925114394721425
0.028210191357383809091
0.028096968845904280593
0.028010556107083892791
0.027963203910424599269
0.027947879639770870086
0.027952128979060714142
0.027997306894145465583
0.02819665143042855357
0.02870147134032489597
0.029208093244186196513
0.029663321006627101084
0.030073082863424558525
0.030436831232127120606
0.03074709984458466952
0.030998594524777878245
0.031187767597919777846
0.03131268511597004589
0.031381406394363819956
0.031407230982496828209
0.031411037207168888974
0.031406524531393940902
0.031382406584895994328
0.031341005325293977424
0.031318598710748830893
0.031309787422464777085
0.03130522999713424015
0.031299585640834674816
0.031287321777117751975
0.043068024893510727102
0.043009764258950304583
0.04295785754325513045
0.042916925703228123168
0.042885788756933516941
0.042865539956643008979
0.042855469589471971437
0.042850766209233046022
0.042849559071729860504
0.042851649961495472119
0.042860157576682766933
0.042893523100604923071
0.042972940195221930038
0.043045325141363888211
0.043105172479483103154
0.043148554034364058896
0.04317707719865240823
0.043203008320423258448
0.029249391460238385182
0.029230972990497781916
0.02922139508243977099
0.029225663126453721441
0.029275253624915748701
0.02949615165180804674
0.029965759739014129204
0.03038470679958013565
0.030715708834293926899
0.030959330253453935106
0.031145201269629069901
0.03131399457568057737
0.031497057549721763081
0.031696438979283793336
0.031904478268030077304
0.032103178054130793173
0.032276511688847410453
0.032413732343283888082
0.03251630433028045164
0.032595804263634668707
0.032657540716953183113
0.03270310104713922833
0.032731812558059771023
0.032746301568489961931
0.032748155875323217701
0.032744688358438488185
0.032729149653390729457
0.044903498328858523769
0.044894240213354447144
0.044877837963211285321
0.044868834776171415135
0.044859030864695260965
0.044853845391905428075
0.044842400034558076161
0.044829676349317275352
0.04480577831353219076
0.044779778244499621187
0.044745299694522004674
0.044717353910742566048
0.04468451816292895451
0.044653999809045115399
0.044622887761882071289
0.044588442483767670721
0.044562884542897335249
0.030329867116661239634
0.030599617758280035079
0.0308563909878708173
0.031126070576853064054
0.031417633655952362237
0.031700916370122456112
0.031922200552435685272
0.032055834565917998291
0.032107827353884323129
0.032113349703594168405
0.032081554082823517116
0.031901536764680445135
0.031601571157384038269
0.031420596889227464521
0.031350606653220446096
0.031341814480351982974
0.031364268869398803652
0.031489631328382380882
0.031821296128885324939
0.032142563260424521221
0.032424694625844290019
0.03270464486887437322
0.033012837799130237415
0.033340454422822761449
0.033664750214588368138
0.033981532172503804701
0.034279048288212266016
0.045045961483175182838
0.045055669654374325139
0.045060271762798032036
0.045061872876162097079
0.045061419686936859952
0.045057113219031413864
0.045042643927956114991
0.045001495051027989858
0.044890853749115874893
0.044748687998196513826
0.044588410859515995033
0.044455820871139674344
0.044279759229909385065
0.044196393643219596126
0.044016954987005724176
0.044025991805205826057
0.025769096134755004046
0.026342702774742675353
0.026779656749273912653
0.027063486553938156942
0.027208996800372507036
0.02725654734577272198
0.02725889936751926465
0.027233752921710957517
0.027114609645046736097
0.026717357466050091486
0.026193989826642314483
0.025796577554973457169
0.025536832113942180972
0.025402899421976134209
0.025360659682791809877
0.025361547615821097151
0.02540207894409731923
0.025579528610781332443
0.025804105842339317145
0.025930912468782860159
0.026002884296679368986
0.026086155865518770997
0.026256134463546285107
0.026645247898790705432
0.027240135092572188152
0.027958194383403977418
0.028715755394746956403
0.029417330406503783974
0.035933527665374505322
0.035940289868980103416
0.035943281503617897921
0.035943947719246770178
0.035942422500935239382
0.035935413320565434692
0.035915294067647623999
0.035856036690951761936
0.035763258178173149004
0.035653299258269884053
0.035569600324826346205
0.035449895911400970683
0.035395117582869332906
0.035277509829217554294
0.035304348414925974808
0.023619403057818552649
0.023897303018781401729
0.024157733142648348673
0.024384160372606326211
0.024568824750165030313
0.024706826878541844617
0.024790619866997189169
0.024823471393770051019
0.024825173039835880112
0.024810199906038585965
0.024736834570805506239
0.024583048648737709091
0.024485746165980738775
0.024449677611632806423
0.024448843680048223947
0.024469981101093597059
0.024567149631647793029
0.024848751321746413018
0.025146625515458258249
0.025370217591244227651
0.025515436674820930751
0.025595656979722925667
0.025636183932873184838
0.025666236720996278564
0.025715514391771679414
0.025821719132869295349
0.026068870830798940991
0.034027050287583848753
0.034027704354109671037
0.034027085501959181135
0.034025272828974002792
0.034023019699117439119
0.034020457482033632235
0.034014603140982986595
0.034003779159921448949
0.033971961590623482585
0.033941733988770379782
0.033875295388390638807
0.033839812529194858437
0.033761369236032123808
0.033754087455884776436
0.022408251657315001598
0.022695013452254993863
0.022985868754082795784
0.023252492756913305944
0.023468775019237254897
0.023614997440798472794
0.023685975797417140737
0.02370250612755155778
0.023696099176996443525
0.023654968800531788603
0.023536630426938810051
0.023449795138637940378
0.023419444141935922415
0.023420411783772559361
0.023444968785993450938
0.023549505895133653055
0.023826968380358921895
0.024090389608944506178
0.024285281983548151485
0.024417725497453971611
0.02449798558557382544
0.024542393315164421491
0.024569535904405654519
0.024603217772977505062
0.02467108366536079414
0.02483426304750347563
0.032760602463049841304
0.032788503568803910315
0.032806349605473371367
0.032816131424731526112
0.032818846594110967496
0.032818664581877439457
0.032816390237382316031
0.032810537216519393422
0.032797127919262702989
0.032748623170335409982
0.032700945680271500948
0.032592697888215664548
0.032568022267724053287
0.021892845386004354535
0.022083294250414716581
0.022242854316439235329
0.022365047305692442592
0.022442033318950154602
0.022476268902863534571
0.022479820064051959233
0.022471879960601400666
0.022435968946476758656
0.022390034500619333813
0.022378811373038202948
0.022384723726246131409
0.022430699920641419126
0.022603299389503235528
0.022836559724018237055
0.023003954781013066788
0.023125210692385368
0.023221904280820829941
0.0233158266392453975
0.023424448529900988164
0.02356149776310380306
0.023729707907383421062
0.023923506761083530164
0.024134852840071819441
0.024350511229550748232
0.031524624397532167996
0.031539627618310951684
0.031547505264313817352
0.031548971397739482281
0.031548432584402763545
0.031546120275666826582
0.031541068452577328274
0.031530332822934145631
0.031494681403108466811
0.031458528927261690533
0.031370735561763569976
0.031348039268781900668
0.021274278827117056034
0.02150298991448382907
0.021701394013037337422
0.02185232721350928789
0.021941208841206174401
0.021975756482814787218
0.021976272194725386677
0.021961457015502717366
0.021900535544473551802
0.021834836702147111115
0.02181270032241202847
0.021814580852565275404
0.021834538020623617954
0.021915144484994646124
0.022098489215691206888
0.022253060334116281371
0.022372476982287066438
0.0224741514353389224
0.022576268255259532292
0.022697882433423771653
0.022850266569448978576
0.023034908637336367482
0.023246995765537396827
0.023471158565403910101
0.020817377982594732766
0.020997983780209086152
0.021125679593906536435
0.021192151672928070255
0.021211843119306572625
0.0212084143430531398
0.021181329068647412883
0.021105313595442501406
0.021057780195825319403
0.021050432511246830458
0.021059824457257046021
0.021112335021391537282
0.021273862793667521615
0.021438793484720775062
0.021559291407220480818
0.021653389244369252581
0.021743266006441098331
0.021849344677664160608
0.021986026776977408287
0.02215588597872633625
0.022352619003487003008
0.022567133862187900573
0.022781153291668687633
0.020119056097163183494
0.020119833068807203152
0.020113224613796915063
0.020083545083067561032
0.020037451570660540917
0.020018795091345967935
0.020019380302627995394
0.020044287000717427027
0.020161656081927478712
0.020460111026969676068
0.020713145487230164715
0.020876971348490657582
0.02096750283949642274
0.021009958981435119391
0.021029411381684806615
0.021050317993476581196
0.021093005267500353206
0.021200708730993507445
0.021463219629338333577
0.021770487132373637917
0.022052566535501687273
0.019224895115597183393
0.01922682007453772185
0.01924597907902302063
0.019332583595002703764
0.019574675150775041471
0.019817519660366905709
0.019999435786209093791
0.020120653620618992458
0.020189304049367050309
0.020222240826558442184
0.020236602859585318959
0.020250431068148406349
0.020278241822820800011
0.020348782613694438304
0.020560769639036115264
0.020928621902976781571
0.021269670600238141378
0.018832461715363024018
0.018870804478575149699
0.019040022149172528693
0.019340225688051181085
0.01955796462884309278
0.019688970359626249002
0.019754853142138449618
0.019782075175765721081
0.019800031123637533426
0.019833128331078204998
0.019914075064255753328
0.020129615572345549435
0.020410226175464840637
0.017920302591183490115
0.01801452255728649976
0.01828265207365065842
0.01855279909339480407
0.018751427369722305921
0.018884159895229568615
0.018960578847162925381
0.018998092413049970373
0.019018578197659421342
0.019047348552652387799
0.019110755493357802631
0.019268482945547109331
0.010653086064575134281
0.010425029800873042082
0.010338706283723211182
0.010330076872153960699
0.010351119062039542545
0.010464429493160599949
0.01080328238280786439
0.011098767924146751146
0.011261519922502228469
0.011359907003413277291
0.011499109828051017057
0.011806696170618665234
0.012445310262096083778
0.0132132038856571047
0.013979143634791815765
0.01462151873882577835
0.015065928246000214255
0.015307972411997643886
0.015390777926096749217
0.015397289235329125745
0.026608997327534730792
0.025460930227249649327
0.024679748269677660027
0.024259420508736289496
0.024117585595056025699
0.024111301458826180089
0.024146956508237570754
0.024282158623425517674
0.02467751010770984077
0.025538990075562279652
0.026546890414482705173
0.027696829337192967191
0.029023596385921515695
0.030464683939513292898
0.031901868445965174403
0.033188918951382977152
0.034179449317322745105
0.034817087357620596366
0.03514214680695233739
0.035235163797635207783
0.035233556438093796559
0.035140885227321456974
0.089753895458602114821
0.088401924998224204466
0.087227267136686936766
0.086734544584488149077
0.086714829709179847006
0.086837016486618484601
0.087158986399190160888
0.087803122489119297955
0.089260954930659608397
0.091395810970459692713
0.093727458935362398251
0.096206826646385579238
0.098785632886763452554
0.10147793913114419584
0.10421437024591254095
0.10682324469948510648
0.10914697019913389975
0.11098604650602719723
0.11224763161691088398
0.11301667265887541114
0.11341871152597853001
0.1135944216286682712
0.11368616896031966124
0.11377517638632379804
0.11388387590362850088
0.11405117712231550853
0.45099436386111335651
0.45221079976778921772
0.45441845888399756692
0.45820062054968652143
0.46382362852589642532
0.47118777291655350448
0.47988119403985896039
0.48944529466391750727
0.49944291310852972909
0.50967532362214384989
0.52002406885846441664
0.53040418911917874834
0.54073181571534623124
0.55079656265760834621
0.56035736948958436709
0.56902559123861773394
0.576396144368181651
0.58231116410829497632
0.58662017736358684772
0.58950318329760864611
0.59136483249985571931
0.59254249076175891098
0.59365639033472461517
0.59561498876610119435
0.59980222842115171744
0.60579211498193552554
0.61256697425465189699
0.61948159468427432817
1.9750566859142664189
1.9814803194548444853
1.9900860266431159573
2.0016282550307691324
2.0162042229782390912
2.0332082209164181741
2.0515338515601819758
2.0699900498380046088
2.0875084602109397203
2.1034060894557398136
2.1174766345679354451
2.1298558799859952373
2.1407828301828097928
2.1505463995157096946
2.1590481872469400315
2.166130593371614399
2.1714200950366766563
2.1748134284158169294
2.1766208576523022877
2.1773632677172569672
2.1776684698346757685
2.1780239059654316058
2.1789740146323168801
2.1814005744078115434
2.1854483873885195422
2.1901421405556442679
2.1949671484213770789
2.1996624282246930449
2.2039509103405250379
2.2077933644974407912
4.4005109501744774647
4.3938010819612847158
4.3882099292925520473
4.3836268444169705916
4.3796522137988338486
4.3757392374908308241
4.3712807157502586719
4.3657771020054374489
4.3589214644669826981
4.3506005808326095874
4.3407415763031620415
4.3293483598074917751
4.3165383109251722615
4.3025853045658841722
4.2878747234837613078
4.27281099056973801
4.2577620764581292079
4.2430764070195774451
4.2290998221215341246
4.2160871488528259832
4.2041091143857096668
4.1930042924965382767
4.182384157787871537
4.1717267298692544131
4.1605302103416432757
4.1484845368594349679
4.1355726881288283892
4.1221618919433957728
4.1087700547323962041
4.0959245459467812367
4.0837724941592172812
4.0721995164762532227
6.1677975683336327961
6.1393578234062795573
6.1109406162089712211
6.0823597908950395308
6.0535966551007280856
6.0247248690837924556
5.9957566506484729629
5.9667683498772037254
5.9379469508821820511
5.9094715680346512343
5.8813738415640930413
5.8535935566092804905
5.826105469237946366
5.7990348488805674165
5.7725230629368926571
5.7465597661859160183
5.7209670399335523783
5.6955256158141454037
5.6701322919302725722
5.6448917236854256885
5.6200257377663378477
5.5957024705732409942
5.5719634970207794211
5.5487031618622602025
5.5257093158070320627
5.5027623984241973432
5.4798318902885227999
5.4570532183352007394
5.4346179409816235406
5.412618652565114985
5.3909277079058304238
5.3692663189011504699
5.3474220057940762274
10.469806935454133878
10.367696949749888091
10.26791608184629645
10.170053120130740254
10.074360834805679232
9.9816727188636313883
7.1385587321433945363
7.1018848608050149096
7.0651590551841776389
7.0281955528538082589
6.9911790134095523896
6.9543388512025128279
6.9178331471519065587
6.8817987459274947426
6.8464520880374779566
6.8119648708921474167
6.7782891060671426331
6.7451894951115844989
6.7125353729995484997
6.680406945478242875
6.6489555011392225126
6.6181605288991773861
6.5877593813011507962
6.5574811469106375483
6.527246372743530145
6.4972098297457430149
6.4677034070400116761
6.4389885100490840131
6.411162241738640688
6.384059572310677666
6.3573311653103132812
6.3307027841434342363
6.3041551088996259367
6.2779534978060098638
6.2524726707236251144
6.2277769741157706918
6.2035804376977106145
6.1794375131350482988
6.1551420182340992326
6.1307148799563622177
9.9373620410392717872
9.8244201026489879069
9.7121015165913053835
9.6006798122185514899
9.4907419725099355645
9.3840118160446746032
9.2821210128052928923
6.3428104249005183846
6.2996105249063942821
6.2557327990280917618
6.2121565631085235992
6.1699943006130766321
6.1298854271657186032
6.0920588503761985422
6.0565701370948765714
6.0233148215962497574
5.9918888787256916473
5.961642054196981455
5.9320596989918703557
5.9030462092808901886
5.8747102552283658738
5.8470014032867139164
5.8195843046490898232
5.792203226598990895
5.765045520348420105
5.7387382616875965979
5.7140120148257889099
5.6912634079146471322
5.6702833156891916389
5.6503777938906880607
5.6307088283146535801
5.6106975210879355132
5.5903260190709866961
5.570032248565421007
5.5503621663416486953
5.531457435824704838
5.5129976352507803483
5.4945472909327639499
5.4760880959388655853
5.4582568078705255843
5.4420416569699128218
5.4280802804778067738
7.149101214951020895e-05
7.1388696317956041671e-05
7.1325037181818807175e-05
7.1292288356074147372e-05
7.1278286833606350125e-05
7.1278646168384943767e-05
7.1305111261456125861e-05
7.1402946370266838906e-05
7.1691948126258983652e-05
7.2470812729477063186e-05
7.4339337420108137855e-05
8.2921093275947744226e-05
8.6500944819275715704e-05
8.7928626139395583473e-05
8.8115881949121500861e-05
8.7897690182337865077e-05
8.7466979110923528755e-05
8.7414812743699882649e-05
8.7786344410238964964e-05
8.9754973577126762442e-05
9.2586869025403529133e-05
9.4217826989856189165e-05
9.4896142455039295257e-05
9.5062313182184469506e-05
9.5047443295473598075e-05
9.4830334489293290198e-05
9.387911499116825321e-05
9.1021550376124186706e-05
8.7728246028626614061e-05
8.5070097160547481028e-05
8.3112717980556504935e-05
8.1976826526628161253e-05
8.1602701167792131027e-05
8.1629938168209691053e-05
8.2178337606029095569e-05
8.47257433336126662e-05
8.895347142778125269e-05
9.1646138112346588233e-05
9.2852179659118214616e-05
9.3138347262201133438e-05
9.3109587702561427062e-05
9.2788559578505460279e-05
9.2052753603434259557e-05
9.1627173371708193323e-05
9.1467102822311141378e-05
9.145349642189739745e-05
9.1526402468133246878e-05
7.2556947157902836856e-05
7.2555035592471216546e-05
7.2559860856235804593e-05
7.2567168463487244714e-05
7.2569545857574394368e-05
7.2571216892199411595e-05
7.2576808297813207721e-05
7.2594671003053769308e-05
7.260354649057295111e-05
7.2605108116659221036e-05
7.2599091610189947867e-05
7.257474083971612519e-05
7.2550815968916920274e-05
7.2535515702419498061e-05
7.2529196627502714708e-05
7.2538467406853986944e-05
7.2601776170811262515e-05
7.280690764889872883e-05
7.3570855219990584774e-05
7.4459988324753064674e-05
7.5607905545698047504e-05
9.2375233328818094993e-05
9.7216163031565500834e-05
9.9215361629765837313e-05
9.9500288312504275162e-05
9.9077312622307910344e-05
9.6771043544150597577e-05
9.3290774496401741248e-05
9.1264347629474196514e-05
9.0346079940955417785e-05
9.0015287588208223266e-05
8.9900028457423988328e-05
8.9815617525931424757e-05
8.9669601691981230709e-05
8.9341893228124790458e-05
8.8436944181252379721e-05
8.6387584616965418e-05
8.4205834620067147715e-05
8.2262830460279095981e-05
8.0737607215127134286e-05
7.9800466105812504071e-05
7.9454361965674232568e-05
7.9442763096429757632e-05
7.9704070473971433842e-05
8.1061824276322560199e-05
8.5237236220821410932e-05
8.9357163741667406287e-05
9.1943489932787614608e-05
9.3198114629163485937e-05
9.3577358208294598497e-05
9.3588517367169612613e-05
9.3378052659941822669e-05
9.2651616482605393265e-05
9.2072380573696453515e-05
9.1807478850213777508e-05
9.1705844340113468432e-05
9.1707984325183246202e-05
7.2517695892273842558e-05
7.2518672408958549701e-05
7.2526102221880689338e-05
7.2539173289502801266e-05
7.2559661658460735604e-05
7.2602811900872210225e-05
7.2708045811944375892e-05
7.3027693249606948252e-05
7.3529139233096427013e-05
7.4039661721441165049e-05
7.4439178156155596101e-05
7.4853864397284242604e-05
7.5166567710637836549e-05
7.5484225859496535422e-05
7.567248029798530611e-05
7.5865428582595973361e-05
7.5963263299331249077e-05
7.6108232241283601443e-05
7.6185102936530247437e-05
7.6380157317482470173e-05
7.641136777899987893e-05
9.4242913813816510372e-05
9.62546916991774312e-05
9.664722805068858794e-05
9.6411719443803870714e-05
9.4872596806271525683e-05
9.2072368553942852878e-05
9.0448248469014337213e-05
8.9772183665618812969e-05
8.9600133818321735344e-05
8.9585630746254451542e-05
8.9607002576271076264e-05
8.9613732006650794045e-05
8.9590057120954207982e-05
8.9446683874802677267e-05
8.8875993354656010318e-05
8.6975404387922128206e-05
8.4222674780871283084e-05
8.1971414995479161816e-05
8.0374257201757680932e-05
7.9505629229171959483e-05
7.9228296358379996498e-05
7.9225972882507886622e-05
7.9423264500120497461e-05
8.038821067094077883e-05
8.2237309625443914731e-05
8.3510632917661143477e-05
8.4118536982369428254e-05
8.4293615023775764032e-05
8.4297530587657451529e-05
8.4166272899921905641e-05
8.3748899843933563244e-05
8.3474155734742817446e-05
8.3374290799703631104e-05
8.3348052468593423559e-05
7.6541653683024008306e-05
7.693138270909396126e-05
7.7292889184864740633e-05
7.7608532093733501034e-05
7.7899048720901303638e-05
7.8187759758454949358e-05
7.8487943673127022557e-05
7.8809094979204985759e-05
7.9165463892677789262e-05