/*--------------------------------*- C++ -*----------------------------------*\
  =========                 |
  \\      /  F ield         | OpenFOAM: The Open Source CFD Toolbox
   \\    /   O peration     | Website:  https://openfoam.org
    \\  /    A nd           | Version:  12
     \\/     M anipulation  |
\*---------------------------------------------------------------------------*/
FoamFile
{
    format      ascii;
    class       volScalarField;
    location    "0.0125";
    object      nut;
}
// * * * * * * * * * * * * * * * * * * * * * * * * * * * * * * * * * * * * * //

dimensions      [0 2 -1 0 0 0 0];

internalField   nonuniform List<scalar> 
106891
(
9.7573831103360170088e-06
9.753271689183308488e-06
9.7483914431843263367e-06
9.7428758818350910491e-06
9.7370281138822076082e-06
9.730969910178744275e-06
9.7244955195688149931e-06
9.7173767543353408495e-06
9.7080772589857851438e-06
9.6975865473865686045e-06
9.6858831182818661438e-06
1.021289153229197254e-05
1.021578250953150265e-05
1.0210173292747226403e-05
1.0201600608343910158e-05
1.018620719987695645e-05
1.0157359986610785136e-05
1.0135597590127349643e-05
1.012294517788163252e-05
1.01157922213750495e-05
1.0113491900763116202e-05
1.0128430683982540331e-05
1.0178268893155169818e-05
1.0228578735737946367e-05
1.0273406468202818579e-05
1.0316127503008474278e-05
1.035809740558158446e-05
1.0399494712232372904e-05
1.044022074031827164e-05
1.0479381742719801014e-05
1.051541642927137446e-05
1.0548008034463761319e-05
1.0575418915685810925e-05
1.0596590036309958333e-05
1.0610155672561425084e-05
1.0615416764471985683e-05
1.0613620063861299469e-05
1.0607285408607065625e-05
1.0599313755886604127e-05
1.0588910604158892676e-05
1.0575009686992145952e-05
1.0563325197035519447e-05
1.0554377987837464009e-05
1.054701429440065374e-05
1.0540726861419717178e-05
1.0534518359766263166e-05
1.0527593379511312736e-05
1.0520339082585414105e-05
1.0513505470032171105e-05
1.0283451590053225679e-05
1.0276903083381148821e-05
1.0271950172812735057e-05
1.0271538560934891383e-05
1.0273682020765995604e-05
1.02749924228555411e-05
1.0275182498442780689e-05
1.027396946120104442e-05
1.0271545507159087873e-05
1.026799308633736846e-05
1.0263406015389759003e-05
1.0257887568557562275e-05
1.0251802083839091882e-05
1.0245437885556478075e-05
1.0238717148042374369e-05
1.0231468698002900195e-05
1.0222882340202501739e-05
1.0210170067418771432e-05
1.0197788605976455418e-05
1.0183844886094792513e-05
1.0733590983406597874e-05
1.0726232362558332965e-05
1.0717217456350721053e-05
1.070228543490388273e-05
1.0678493208179688984e-05
1.0660573636910731225e-05
1.0650057111812989699e-05
1.0643542879967559002e-05
1.0645771233402709892e-05
1.0678245308685831698e-05
1.0750733235650238189e-05
1.0815556556715484287e-05
1.0872703361663886543e-05
1.0924975448219304762e-05
1.0973988476751312722e-05
1.1020174903334075807e-05
1.1062747205415867773e-05
1.1099718500886926914e-05
1.1129476196160147211e-05
1.1151191725015089477e-05
1.1164340999106871157e-05
1.1169974734790409461e-05
1.116882410974482043e-05
1.116328280153549348e-05
1.115541606593387002e-05
1.1146609105787991814e-05
1.1135813586350776791e-05
1.1119726060475893293e-05
1.1102195581556160289e-05
1.1086095312121032938e-05
1.1071482068039830419e-05
1.105775176427849445e-05
1.1045095785744294404e-05
1.1033499192565018345e-05
1.102331049639572611e-05
1.1014660116025714573e-05
1.0836092406984742804e-05
1.0829386787007312071e-05
1.0824529079108590051e-05
1.0823620663515091012e-05
1.0823262158793257729e-05
1.0821939116805613572e-05
1.0819468769180927108e-05
1.0815990738869955714e-05
1.0811423755011319149e-05
1.0805884938267481521e-05
1.079953409692071181e-05
1.0792706483020781034e-05
1.0785621508039590537e-05
1.0778140236255039964e-05
1.0770149954792744237e-05
1.0759930462497794336e-05
1.0747558475612564542e-05
1.073654932714424159e-05
1.0727076679363776898e-05
1.0718834491008148081e-05
1.1296956505213333387e-05
1.12885045713664334e-05
1.1276519714481850459e-05
1.125270878982310879e-05
1.12253602006594725e-05
1.1206885705734988631e-05
1.1196487368465223735e-05
1.1190422484201290892e-05
1.1196176448964254431e-05
1.1237961401745614172e-05
1.1299805011487350857e-05
1.1354519501374622128e-05
1.1407025569399399022e-05
1.1461290611464896357e-05
1.1518518564490578531e-05
1.1577002296918895369e-05
1.1632998015660178691e-05
1.1682617260062174865e-05
1.1722352129454744122e-05
1.1750532777324313859e-05
1.1766961328132274e-05
1.1773251309137158226e-05
1.1771464233761110807e-05
1.176492359015947685e-05
1.1756298068204948701e-05
1.1745802632051259541e-05
1.1730586830668793339e-05
1.1704057225230739018e-05
1.1676773164356241106e-05
1.1653553181494743477e-05
1.1634433820757678822e-05
1.1619166631684036959e-05
1.1607096484114593141e-05
1.1597792435105294591e-05
1.1590156945771649979e-05
1.1585076753524460038e-05
1.1413874206706032377e-05
1.1406578348676687845e-05
1.1399069160994819644e-05
1.1391414104572960428e-05
1.1383683456515243445e-05
1.1375901698353697898e-05
1.13680230809758329e-05
1.1360037679081837428e-05
1.1351841333413541181e-05
1.1343163880922207474e-05
1.1333405146814888489e-05
1.1323934349509336258e-05
1.1315160135199218354e-05
1.1307011884757259132e-05
1.1299263789881502324e-05
1.1291792227034498704e-05
1.1284563107289784822e-05
1.1277706107855033023e-05
1.1273626634216442111e-05
1.1925965971999009452e-05
1.1915939332207179678e-05
1.1898520627333218584e-05
1.1860912527200653249e-05
1.1822139428644907325e-05
1.1795800642716497756e-05
1.1779388398940605402e-05
1.1769978877673353392e-05
1.1763510257864876911e-05
1.1764830829452893609e-05
1.1790685700860433689e-05
1.186032576237335501e-05
1.1934297003917495561e-05
1.2007875140383060354e-05
1.2079204562587593253e-05
1.2146529019545999136e-05
1.2207809966579382581e-05
1.2260620903008384878e-05
1.2303112256986189856e-05
1.2334086986395013187e-05
1.2353407000257896276e-05
1.2361931087399599623e-05
1.2361337209230122234e-05
1.2355037322236141716e-05
1.2346029385979111868e-05
1.2335685754357217616e-05
1.2322716173424317655e-05
1.2309361540360248274e-05
1.2298012030810590676e-05
1.2288530825972931337e-05
1.2279102842344771874e-05
1.2268493202385983648e-05
1.2256555250957433293e-05
1.2244963607253196239e-05
1.2009638251649827709e-05
1.1999066525096647767e-05
1.1988624075711119799e-05
1.1978081791736796107e-05
1.1967820188629294624e-05
1.1957838171883610127e-05
1.1948127946089715559e-05
1.1938766327370443378e-05
1.1929727229882718326e-05
1.1921105400939420725e-05
1.1912753247885544169e-05
1.1904574754362580948e-05
1.1896913729027097122e-05
1.1891195695689872673e-05
1.188711601125713446e-05
1.1885764488008571674e-05
1.1881519752955471111e-05
1.1880674692589840408e-05
1.1876011478117311324e-05
1.1875822440533349494e-05
1.2542128419665727682e-05
1.2533106241692067842e-05
1.2520489879863215559e-05
1.2495717598316006131e-05
1.2458046972543760969e-05
1.2429872091496833817e-05
1.2411964571804082701e-05
1.2401613692786555741e-05
1.2394813082853182534e-05
1.2397588751037400803e-05
1.2433308018203802166e-05
1.2538674722638367553e-05
1.2648712228563140973e-05
1.2742543387853497841e-05
1.2819188954640741007e-05
1.2876852124119932965e-05
1.291662567183603653e-05
1.2940833174860716024e-05
1.2953895246447559171e-05
1.2961193334943271405e-05
1.2967271864993243463e-05
1.2974924568267632167e-05
1.2984614704558991059e-05
1.2994247692715624922e-05
1.3000760768605002695e-05
1.300180475470806942e-05
1.2997399474410554178e-05
1.2989748993658311113e-05
1.2980795105660874388e-05
1.2970836377090607647e-05
1.2956791386015910738e-05
1.2938231496253143384e-05
1.2921780774911062313e-05
1.2648885980739961734e-05
1.2639966163074282536e-05
1.2630648193248507233e-05
1.2620313449105365053e-05
1.2609586730553942055e-05
1.2598923481806220074e-05
1.2588321865420150621e-05
1.2577933783345770428e-05
1.2567882801535254687e-05
1.255810514961977065e-05
1.2548681183288938029e-05
1.2539550313714570382e-05
1.2530594208914069775e-05
1.2521814982133639397e-05
1.2513154973052288124e-05
1.250482096302311217e-05
1.2498012154797660524e-05
1.2492534933662941153e-05
1.249392860763115394e-05
1.3190398007772119687e-05
1.3177695485603186228e-05
1.3153377281757939684e-05
1.3117104204306377489e-05
1.3090965487870916267e-05
1.3075358346741073874e-05
1.3066553047944537457e-05
1.3065380409554997867e-05
1.3093615742154207451e-05
1.3194222872988694745e-05
1.3305820354469256758e-05
1.3398680754753521777e-05
1.3477444039299248376e-05
1.3544845684671028414e-05
1.3602771319402253675e-05
1.3650714249084745577e-05
1.3687801281438789682e-05
1.3712874169838451901e-05
1.3725983510867600668e-05
1.3728732568534370991e-05
1.3724010506922178335e-05
1.3715077204562411332e-05
1.3705049110174113259e-05
1.3693259520556124936e-05
1.3676888277021852615e-05
1.3650442255304970257e-05
1.3621280251612107479e-05
1.3592683439569622946e-05
1.3565284405937234785e-05
1.3541117691790781225e-05
1.3521205463093844733e-05
1.3506714703348155393e-05
1.3315138573060409391e-05
1.3304554710957347015e-05
1.3291754538666927901e-05
1.3278334921234703019e-05
1.3265317438841513483e-05
1.3252645178677675646e-05
1.3240575417575873977e-05
1.3229210726239129742e-05
1.3218386387669633122e-05
1.3208141316559772059e-05
1.31983015447869546e-05
1.3188673984420621422e-05
1.3179199914769029964e-05
1.3169989755171574472e-05
1.3161280206447224157e-05
1.3154025726125307631e-05
1.3151684338041424516e-05
1.314679959633061377e-05
1.3146981147423298769e-05
1.3904287357504252896e-05
1.3865324465423741956e-05
1.3822880469760320089e-05
1.3792620712716119395e-05
1.3773868461720010408e-05
1.3762539261635809993e-05
1.3755468127752592112e-05
1.3761637191750395387e-05
1.3812952200432174809e-05
1.3919281138396147836e-05
1.401828723755079024e-05
1.4108620409490221727e-05
1.4191343180408424373e-05
1.4265584860668508024e-05
1.4329118506827053723e-05
1.4379585820566871882e-05
1.4415538683793955444e-05
1.4437470553863520928e-05
1.4446753973759811544e-05
1.4446336159494485609e-05
1.4439462238807543437e-05
1.4429758723550619465e-05
1.4419126627000077785e-05
1.4405978829283453622e-05
1.4384688259579459023e-05
1.4348954205833509186e-05
1.4312815145622421605e-05
1.4279053937728695129e-05
1.4249981663955307493e-05
1.4226894290234158382e-05
1.4000314960271044272e-05
1.3983315064119726442e-05
1.3965915518163361472e-05
1.3949020455092770397e-05
1.3932930865469039927e-05
1.3917972492375394985e-05
1.3904288958521548658e-05
1.3891713298127787707e-05
1.3880290430106970224e-05
1.3869633527576331715e-05
1.3859372922178877745e-05
1.3849616385978239162e-05
1.3840543388635431554e-05
1.3834296669022789773e-05
1.383373426070328254e-05
1.3835785968735196303e-05
1.3832455179351712068e-05
1.3834025769440102871e-05
1.456209056792531157e-05
1.452276667571392471e-05
1.4490303082347166566e-05
1.4467954696572779132e-05
1.4453920673470255472e-05
1.4444969279470396174e-05
1.4446518972881359258e-05
1.4487495284246130025e-05
1.460623111824664713e-05
1.4724425013951878685e-05
1.482846550510245976e-05
1.4920209924904238055e-05
1.4999808703326343861e-05
1.5065674118430872052e-05
1.5116743025073802983e-05
1.5152354447700090947e-05
1.5172199294926168227e-05
1.51783424473630751e-05
1.5174065088079822375e-05
1.5164444801549046985e-05
1.5152823158818849982e-05
1.5136510859250678075e-05
1.5116012621588921394e-05
1.5100109595707478165e-05
1.5087508022435542279e-05
1.5075947005925613133e-05
1.5064131725546953843e-05
1.5050731504177143909e-05
1.4720410803453055934e-05
1.4700226859246630167e-05
1.4681138055412093821e-05
1.4663936717966639511e-05
1.4648423576825918304e-05
1.4634784377537096413e-05
1.4622899498756849223e-05
1.4611946165568604202e-05
1.4601601939574597116e-05
1.4591825255734689718e-05
1.4583140182258758023e-05
1.4578646290462395763e-05
1.4581981853642104788e-05
1.458414240185342277e-05
1.4584156025667491707e-05
1.4581371497684209607e-05
1.4576063124097018032e-05
1.4570321922271857527e-05
1.5202829723015752147e-05
1.5187498797481248166e-05
1.5174451388182325952e-05
1.5165003767881917441e-05
1.5167224522707860391e-05
1.5213433762916779517e-05
1.5323341719588669827e-05
1.5419458044959890962e-05
1.5492538334521576462e-05
1.5543126206109487351e-05
1.55789306618098467e-05
1.5610254896534693926e-05
1.5644950960575203252e-05
1.568350208577154082e-05
1.5723976809726253437e-05
1.5761935030867328742e-05
1.579348074591053119e-05
1.5816050026875016219e-05
1.5830068526991331604e-05
1.5838410274125880583e-05
1.58424039647995844e-05
1.5842461056649061564e-05
1.5838432989647100108e-05
1.5830965663978806057e-05
1.5820441681524570124e-05
1.5808634201309291974e-05
1.5793925024627499611e-05
1.5410898378823210101e-05
1.5398612003201155783e-05
1.5385101755603884514e-05
1.5372868150951627645e-05
1.53605110117371829e-05
1.5348959488091642534e-05
1.5336355294919038438e-05
1.5323546945309479846e-05
1.5308843290263197685e-05
1.5293790969200565295e-05
1.5277296883455048182e-05
1.5261926367888125033e-05
1.5245732031661654105e-05
1.5229938721265795374e-05
1.5214056130300974152e-05
1.5197609964124436888e-05
1.5182690843811330774e-05
1.5894353315740258491e-05
1.5953833040864484404e-05
1.6009512836962043258e-05
1.6068132662899053953e-05
1.6131988892661579981e-05
1.6193335288194000754e-05
1.6238550407905511295e-05
1.6261295942591229372e-05
1.6263242663147676656e-05
1.6253367975958265819e-05
1.6234107314656700605e-05
1.6177516398678187191e-05
1.6090047310212913579e-05
1.6032656922506391075e-05
1.6003588769512269214e-05
1.5990203838349724202e-05
1.5984771157760523905e-05
1.6005357123325679615e-05
1.6078095739417452734e-05
1.6147902596277297099e-05
1.6207374497697663089e-05
1.6265868854465056955e-05
1.6330952416309007971e-05
1.6400379174123084662e-05
1.646850962663144521e-05
1.6534340722591614763e-05
1.6595067247602725806e-05
1.5825664482474701469e-05
1.5816381530957481394e-05
1.5806205608153824972e-05
1.5795510881308259625e-05
1.5784466338111074709e-05
1.5772764909444913871e-05
1.5759307704400319662e-05
1.5741228206260428102e-05
1.5711042076055512596e-05
1.5675274112335479027e-05
1.5636312614993340869e-05
1.5602216869387493416e-05
1.5560448642682551192e-05
1.5534987250251005973e-05
1.5492612274376886425e-05
1.5483424467483718266e-05
1.2753593854264321823e-05
1.2885950519051854224e-05
1.2983523198923773234e-05
1.3043234790144229491e-05
1.3069290492793397325e-05
1.3071697667327466155e-05
1.3063213475300204989e-05
1.3048176408837208886e-05
1.3010730927820931481e-05
1.2906442313779943989e-05
1.2770449619084700172e-05
1.2664264351076760654e-05
1.2591460066091294314e-05
1.2549563645788142379e-05
1.2530348094799357157e-05
1.2521843151703452023e-05
1.2523059778173788292e-05
1.2557817393649322918e-05
1.260414856108722621e-05
1.2626395068420104029e-05
1.2635154490354471047e-05
1.2646534745461778752e-05
1.2678716001036593694e-05
1.2763168504456581394e-05
1.2895752685537953638e-05
1.3055472548296072458e-05
1.3222010994842384074e-05
1.337337617710634162e-05
1.2296214048953472202e-05
1.2288835730847744236e-05
1.228081685950212756e-05
1.2272407002685845336e-05
1.2263633410007588204e-05
1.225393953694883525e-05
1.2242032502568882799e-05
1.2223501431808230102e-05
1.2199224708552476682e-05
1.2171998114929266538e-05
1.2149267505663694414e-05
1.2120368333840352649e-05
1.2102581060967547395e-05
1.2074041971430218869e-05
1.2070237412021970176e-05
1.1969216352500124383e-05
1.2031071236102419144e-05
1.2088069397197883192e-05
1.2136187385222439568e-05
1.2173642251018806525e-05
1.2199368101264645119e-05
1.2211622265796952001e-05
1.2211282353553825844e-05
1.2203245945499968414e-05
1.219112660099663758e-05
1.2164739832634185681e-05
1.2118436123044052223e-05
1.2085954633941841407e-05
1.2068603041258251318e-05
1.2059993071248165095e-05
1.2056782919140604819e-05
1.2072174401062092604e-05
1.2132574794344689405e-05
1.2196694052100661042e-05
1.2242382587464183721e-05
1.2268921829475666445e-05
1.2279708616147878668e-05
1.2280908185131779651e-05
1.2279558660897921515e-05
1.2282767938214341589e-05
1.2299469786847317575e-05
1.2349455254059383557e-05
1.1729260074628530941e-05
1.1721230909482906931e-05
1.171299160565349043e-05
1.1704554228108460142e-05
1.1696047148241782006e-05
1.1687494528385264429e-05
1.1678385717298516892e-05
1.1668432267651007719e-05
1.1654897743132137952e-05
1.164163205854835186e-05
1.1622164583126254748e-05
1.160800549427706733e-05
1.1586481321150988123e-05
1.1577180004210755115e-05
1.1428009319561320398e-05
1.1492887391813427133e-05
1.1558270222720639245e-05
1.1617081401646439342e-05
1.1662957706622612068e-05
1.1691208233944417683e-05
1.1700724001438182615e-05
1.1696730343614776326e-05
1.1687053829649242707e-05
1.166885685093250128e-05
1.163158261192022281e-05
1.1601960277477209736e-05
1.1586337647819008241e-05
1.1578506829656319535e-05
1.1576485282196491116e-05
1.1594073037852839367e-05
1.1653962344920762426e-05
1.171016580649498485e-05
1.174935424371968222e-05
1.1773231483814576505e-05
1.1784415952973715662e-05
1.1786919921775133738e-05
1.1785246113191992016e-05
1.17851099187889534e-05
1.1793106877733463688e-05
1.1823670012640524659e-05
1.1281572279153943619e-05
1.1278555553314958105e-05
1.12738084423594184e-05
1.1267675871333286244e-05
1.1260329865431640176e-05
1.1252486383268567565e-05
1.1244289964824440546e-05
1.123548575576005996e-05
1.1225400655095397581e-05
1.1209347903641004253e-05
1.1193418522637393469e-05
1.1167116492061399184e-05
1.1155126538451240345e-05
1.1072766959551840477e-05
1.1113121904443908156e-05
1.1145491456399484224e-05
1.1168360003342695498e-05
1.1179864500364844904e-05
1.1180680718836851707e-05
1.1173832023817452307e-05
1.1164120999118900575e-05
1.1147477631146085505e-05
1.1128285240230456981e-05
1.1117726273191913308e-05
1.1111441540522889906e-05
1.1115039281053086911e-05
1.1149809030720628841e-05
1.1199470610038393456e-05
1.1232713733079933432e-05
1.1254511062050564572e-05
1.1270206450773474489e-05
1.1285126738453827512e-05
1.1303500949659614432e-05
1.1328609818408847646e-05
1.1361048894094534658e-05
1.1399405746957085351e-05
1.1441690711542056984e-05
1.1484718662860970515e-05
1.0848156495564374672e-05
1.0843219970146513007e-05
1.0837058757948711809e-05
1.082979555878894537e-05
1.0822188597500788268e-05
1.0814281856685303219e-05
1.0805910422444997296e-05
1.0796576521661161685e-05
1.0783005678527936562e-05
1.0769342295027508417e-05
1.0746845936140345676e-05
1.0735494305546125287e-05
1.0699578085175779699e-05
1.0749494715911052278e-05
1.0791527916907319646e-05
1.0821548442832661159e-05
1.0836085816444498861e-05
1.0837142320520551893e-05
1.0829762831558597486e-05
1.081861495144327498e-05
1.0796132730989119121e-05
1.0772386347192259648e-05
1.0759400594875762709e-05
1.0752374603854317482e-05
1.0749792822402814548e-05
1.0762041782708047324e-05
1.0799436249306572551e-05
1.0829672176976997997e-05
1.0851183013601631909e-05
1.0868266975778329193e-05
1.0885351614125251635e-05
1.0907023323744436015e-05
1.0935943768448597261e-05
1.0972387002654929516e-05
1.1015114548497859331e-05
1.106040656291449986e-05
1.0375051809869530124e-05
1.0412784576933765331e-05
1.0437223041549524309e-05
1.044644304621268079e-05
1.0444079410817369157e-05
1.0435997808336434922e-05
1.0422124969202340892e-05
1.039619110882959595e-05
1.0377204403932306637e-05
1.0368155971299655431e-05
1.0363244269654246251e-05
1.0368877832338186374e-05
1.0401150976407942588e-05
1.0434207404345536237e-05
1.0456269462578570646e-05
1.0471804127173465243e-05
1.0486217948992384609e-05
1.0504439358570793911e-05
1.0529894058874929993e-05
1.0563123547638857345e-05
1.0602532675668537452e-05
1.0645885030262094986e-05
1.0688825915926538143e-05
9.9913817522195505624e-06
9.9846518226382514232e-06
9.9760946161063577246e-06
9.9618392101217235031e-06
9.9434672912461263871e-06
9.9318995319456875455e-06
9.9251282009599329874e-06
9.9243492712141440185e-06
9.9462811317763203241e-06
1.0012576437833629962e-05
1.006742323504658857e-05
1.010023609338496614e-05
1.0115151894302046372e-05
1.011839424518635292e-05
1.0116057296893428863e-05
1.011404395811428726e-05
1.0117230510492968324e-05
1.0135873274387905568e-05
1.0191211849828604936e-05
1.0256793676591294354e-05
1.03159009623235239e-05
9.5539958884462684537e-06
9.5478270912843722553e-06
9.5459089338425738016e-06
9.5605897627705902544e-06
9.6134552996264826131e-06
9.6662658203339963048e-06
9.7038627675650138561e-06
9.7265349805981071268e-06
9.7363980067799126131e-06
9.7375981106044434292e-06
9.7343004649864080989e-06
9.7308578501247235571e-06
9.730755900039300403e-06
9.7408241079946939487e-06
9.7844096412263064565e-06
9.864666860930021246e-06
9.9378638500431962596e-06
9.2499013530056550916e-06
9.252817846146712348e-06
9.2875394819365787084e-06
9.3540012660067210705e-06
9.4000703744522337541e-06
9.4250320966062535992e-06
9.4342882437925952533e-06
9.4342586849946081948e-06
9.4319849051756164552e-06
9.4332855845679205255e-06
9.4458686497096066632e-06
9.4901016569109391109e-06
9.5493902376189791206e-06
8.8448645619567824698e-06
8.8617929945942742987e-06
8.9211510881399288348e-06
8.9806613175085488567e-06
9.02241274307811461e-06
9.0480695789678336103e-06
9.0601182843394134311e-06
9.0628132533050940437e-06
9.0614079116471820622e-06
9.0619402027762552368e-06
9.0706460318440207185e-06
9.1015521479540568062e-06
5.0112444912509251571e-06
4.9537162724476266841e-06
4.9296323196230937605e-06
4.9241156768969991114e-06
4.9256708024276405497e-06
4.9489707310675942772e-06
5.0248164501392741387e-06
5.0896737930883691095e-06
5.1233885749842651979e-06
5.142162129031426434e-06
5.1699029970747879375e-06
5.2347174336186339717e-06
5.370498778883826459e-06
5.5298467062590927646e-06
5.6839996762103625499e-06
5.8092475390216518317e-06
5.8929481752596341219e-06
5.9361183462865572431e-06
5.9481105601291886606e-06
5.9452690299896290946e-06
7.7745739859898689973e-06
7.5995290712899486306e-06
7.476617097239630909e-06
7.4073332623589140751e-06
7.3804050842919747039e-06
7.3742947161695384691e-06
7.3745919205072134919e-06
7.3899829031514290548e-06
7.4444736953866294789e-06
7.5678636561804394904e-06
7.7103530471142862852e-06
7.8700449173515773539e-06
8.0506924217457872996e-06
8.2424091341159125962e-06
8.4287997265746014713e-06
8.5913159228986860381e-06
8.7127093173635315591e-06
8.7876766091205233777e-06
8.8226113848459934577e-06
8.8282245095818280903e-06
8.821917161695808844e-06
8.8042910490004376643e-06
1.4025035830708361935e-05
1.3909394137575975189e-05
1.3806793595761147458e-05
1.3757910910272699718e-05
1.3746671120577632724e-05
1.374672936603089472e-05
1.3762588772018548845e-05
1.3803676401320758588e-05
1.3907886778833619722e-05
1.4063361489542371564e-05
1.4231692157170432211e-05
1.4408667733243026832e-05
1.4590357446596587435e-05
1.4777577151820407733e-05
1.4965123138764846987e-05
1.5140824063342692263e-05
1.5294103686466831892e-05
1.5411865519637570754e-05
1.5488610381910476239e-05
1.5530908034021189329e-05
1.5547775260703868358e-05
1.5549038646116031145e-05
1.5544530585858729076e-05
1.5539847754102064156e-05
1.5536517581032606916e-05
1.5537144974570228249e-05
3.0860101312260012902e-05
3.0879932747316342291e-05
3.0933327854519639013e-05
3.1039799372389915045e-05
3.1207621021589257025e-05
3.1432291581958386869e-05
3.1698791290470979985e-05
3.1990879756550307596e-05
3.2293557188435470214e-05
3.2600067891491283669e-05
3.2906514587921217396e-05
3.3210243896701258678e-05
3.3508760254946553516e-05
3.3795769439062402456e-05
3.4064270490809924017e-05
3.4303045374204461579e-05
3.450068980845279518e-05
3.4653368808877767161e-05
3.4757382444003643662e-05
3.4818639199252858214e-05
3.4849443650160721289e-05
3.4859919001673845586e-05
3.4868376886795141142e-05
3.4901450766839026618e-05
3.4999382525802369632e-05
3.5149218625865707272e-05
3.5320664539868738027e-05
3.5494797591776501848e-05
6.339148901033205474e-05
6.345016794134602134e-05
6.3543325998923234498e-05
6.368272949262080145e-05
6.3869487416886902673e-05
6.4093503595075997613e-05
6.4336914250421559395e-05
6.4580816985316754925e-05
6.4808580065358465023e-05
6.5009836497061248379e-05
6.518172337427866113e-05
6.5326654966898253362e-05
6.5448579566437391133e-05
6.5552156374663867302e-05
6.5636078657147696219e-05
6.5698116966140962677e-05
6.5732754640821078177e-05
6.5738551164022746768e-05
6.5720289876855931925e-05
6.568589145727351088e-05
6.5644855827620099843e-05
6.5604554645563883421e-05
6.5573181385793975458e-05
6.5563988480692991507e-05
6.5579196015538263357e-05
6.5604034969395764272e-05
6.5630710072157776914e-05
6.5655271380864362041e-05
6.5673590343378950929e-05
6.5685131419454507269e-05
9.2881090383931927184e-05
9.2745725926089619268e-05
9.2622279367992439107e-05
9.2509568294112863541e-05
9.2403364026367226097e-05
9.2297923698184280062e-05
9.2186856192971516552e-05
9.20648784741698908e-05
9.1928730340994242991e-05
9.1777208407147305765e-05
9.1609546200013450929e-05
9.1425763745335000485e-05
9.1227052952050607503e-05
9.1016259907576469454e-05
9.0797444746734440497e-05
9.0574896622795341675e-05
9.0352517086055741231e-05
9.0133993610600507363e-05
8.9922979187852394118e-05
8.972217829646493266e-05
8.9532364039576176236e-05
8.9351855570000580584e-05
8.9176566737974802008e-05
8.9000985994389103517e-05
8.8819786745883560499e-05
8.8629633086688346479e-05
8.8430261317328024881e-05
8.8225508749489452392e-05
8.8020886820378295467e-05
8.7822090086499458536e-05
8.7630779920480235119e-05
8.7445785319639044342e-05
0.00010786422987319232221
0.00010754055233370300238
0.00010721696979005767799
0.00010689178128323969966
0.00010656477329838129385
0.00010623658956851066062
0.00010590734722986740494
0.00010557768122558034937
0.0001052492201048294717
0.00010492358717639093573
0.00010460112115791564684
0.00010428131696972973302
0.0001039639319311548121
0.00010365006629431057527
0.00010334101374201226046
0.00010303674956598620545
0.00010273572317661345329
0.00010243595912874286287
0.00010213647882436463813
0.00010183816711407109919
0.00010154301492375347651
0.00010125257919793917492
0.00010096730755005813127
0.00010068632133736637481
0.00010040773956054316622
0.00010012954983586618474
9.9851403251706484791e-05
9.9574475598949253657e-05
9.9300522255024451976e-05
9.9030465258047927564e-05
9.8763219490755963501e-05
9.8496259128704388361e-05
9.8227592296514209527e-05
0.0001431222358638096603
0.00014232381032061312593
0.00014153908201407767293
0.00014076534950396491137
0.0001400043016103602188
0.00013926183816824030579
0.00011382912640402254088
0.00011345759248606298653
0.00011308546908695635009
0.00011271115883185681822
0.00011233605734553838242
0.00011196200814068518444
0.00011159028181529125751
0.0001112219903357732515
0.00011085888931454526479
0.00011050243872589793023
0.00011015235146575794428
0.00010980676213389495993
0.00010946458221667026858
0.00010912644020173145588
0.00010879360300940772006
0.00010846598506764779872
0.00010814149537080090476
0.00010781789989880423842
0.00010749447499518372711
0.00010717242441948333269
0.0001068544782690919909
0.00010654285127069503187
0.00010623844619747562315
0.00010593999283355440017
0.00010564463202432112371
0.00010535004605129267489
0.0001050559888191848339
0.00010476462071875765889
0.00010447910742356326344
0.00010420010619873119038
0.00010392532822473433008
0.00010365104970258222003
0.00010337544150264795016
0.00010309857147438480332
0.00013686827720341566278
0.00013599462667173272128
0.00013512177961750226549
0.00013425174049762521257
0.00013338852414973350821
0.00013254426805525804079
0.00013173103421926736956
0.00010525057895175190636
0.00010481949394484773848
0.0001043819082287567306
0.00010394579825332735242
0.00010352053138452546415
0.00010311168754227126722
0.00010272140113684812511
0.00010235032256242285176
0.00010199778977965099963
0.0001016605952566036644
0.00010133332733122552027
0.00010101157363485385005
0.00010069444627518973076
0.00010038289443871875768
0.00010007658904656613081
9.9772711149745217782e-05
9.9468986198779924392e-05
9.9166855782965995249e-05
9.8871621456758011868e-05
9.8589653917187733282e-05
9.8324597450258065007e-05
9.8074898034244308432e-05
9.783471243803914467e-05
9.7596786395846721546e-05
9.7355975263059484439e-05
9.711194244889705281e-05
9.6868393970934497418e-05
9.6630141444251955877e-05
9.6398584081089288222e-05
9.617104614145335407e-05
9.5943674724138458022e-05
9.5716118339783464483e-05
9.5493764605120864627e-05
9.528525883072708094e-05
9.5096397271361165246e-05
4.8603194320709153443e-07
4.8534636927756708421e-07
4.8479258897866632058e-07
4.8434431360495038468e-07
4.8396000130944263322e-07
4.8362475073461135715e-07
4.8337714058731653163e-07
4.8336988172486973787e-07
4.8400374529097135403e-07
4.8627026084766537929e-07
4.921403346610461169e-07
6.6139087438443666552e-07
6.750885555124633948e-07
6.80194134068786241e-07
6.8045628992983563708e-07
6.7914790092234655975e-07
6.7700641537365187305e-07
6.7632997894815417058e-07
6.7728178564219852024e-07
6.8432097078056966082e-07
6.945635747382076247e-07
7.0018505639589079588e-07
7.022242545416202067e-07
7.0235572997143145086e-07
7.0181471208273606299e-07
7.0053216085171226219e-07
6.9654660191651588584e-07
6.8541950853520345332e-07
6.7243209409909297417e-07
6.616979648669929366e-07
6.5357513659164265826e-07
6.4862886564934256865e-07
6.4668683412798178715e-07
6.4634088075759136871e-07
6.4804088761662988692e-07
6.5750076542214001898e-07
6.7325195238414771596e-07
6.8291793946872994568e-07
6.8693965132993371947e-07
6.8752961645468882095e-07
6.8694928465514514097e-07
6.8529685359103295688e-07
6.8210073777697212576e-07
6.8004439459950720681e-07
6.7897500768022320432e-07
6.7845159040794757226e-07
6.7824806381770971531e-07
5.0587208122596874425e-07
5.0551418990389297878e-07
5.0518018315946279657e-07
5.048553019106722101e-07
5.0451337242016191755e-07
5.0416899266814153807e-07
5.0383818160877502961e-07
5.035501193416525797e-07
5.0323151677451399039e-07
5.0288774741638456713e-07
5.0251832201457979653e-07
5.0208598956082022317e-07
5.0165476826726772703e-07
5.0125356559123575362e-07
5.0088339512783659742e-07
5.0056675680431784324e-07
5.0043465001025324952e-07
5.0078745173216177116e-07
5.0304309460138485298e-07
5.0572190377957209271e-07
5.0925068644949622907e-07
7.1621279370281240531e-07
7.3428240368581993551e-07
7.4131817737592516125e-07
7.4188191910781469076e-07