/*--------------------------------*- C++ -*----------------------------------*\
  =========                 |
  \\      /  F ield         | OpenFOAM: The Open Source CFD Toolbox
   \\    /   O peration     | Website:  https://openfoam.org
    \\  /    A nd           | Version:  12
     \\/     M anipulation  |
\*---------------------------------------------------------------------------*/
FoamFile
{
    format      ascii;
    class       volScalarField;
    location    "0.0125";
    object      p;
}
// * * * * * * * * * * * * * * * * * * * * * * * * * * * * * * * * * * * * * //

dimensions      [1 -1 -2 0 0 0 0];

internalField   nonuniform List<scalar> 
106891
(
100330.75346007014741
100325.02407331256836
100322.96739052188059
100325.74462404541555
100333.95219209627248
100347.43620930104225
100365.16410131407611
100385.3871495751082
100405.91898779272742
100424.4163457875693
100438.88601586154255
100479.18873372543021
100442.65846507411334
100413.11525919375708
100391.01575222560496
100373.3676190343831
100357.76310012163594
100344.93143190530827
100336.75375824069488
100335.0188353422127
100338.44478044217976
100342.23115864611464
100340.14648432533431
100328.15761582723644
100306.59934886038536
100280.46316316424054
100255.73439843894448
100238.30628580265329
100230.59179999220942
100231.92495107369905
100240.3637188548164
100253.21399113522784
100266.83995533820416
100276.52513701948919
100277.93300298709073
100269.8573619275121
100255.62853489632835
100241.89554146979935
100234.48473680551979
100234.85812828263442
100241.09166986492346
100249.46848786933697
100257.88976386215654
100266.99121784276213
100278.42997490713606
100292.50068701035343
100305.97159445719444
100314.00436944096873
100313.08886184904259
100379.871432408283
100379.54302079851914
100379.44401613424998
100378.81249548505002
100376.90902491855377
100373.20390600556857
100367.59550013850094
100360.45022814205731
100352.65431207795336
100345.53107863002515
100340.59837126801722
100339.22745406595641
100342.36738336257986
100350.34306814114098
100362.77075590951426
100378.58655904784973
100396.21398069069255
100413.78748138769879
100429.40093180234544
100441.45224699367827
100419.57685562656843
100388.6627144140075
100365.88850255995931
100347.32729461937561
100329.9179293045454
100313.29819291636522
100300.67073811891896
100295.48307690606453
100297.97321011706663
100304.67386451497441
100308.29884153060266
100303.51515387059771
100287.00770880366326
100262.65020744483627
100236.20137714898738
100214.13598117153742
100201.25363839624333
100199.62381014706625
100208.40001482162916
100224.20045694269356
100241.56044064780872
100253.87102131969004
100255.73063767305575
100245.66513314149051
100227.30207537750539
100207.85975765001785
100194.6932917862141
100192.09624015940062
100199.69658786243235
100214.34252855880186
100232.47430982622609
100251.08993904622912
100268.36603790552181
100282.51081456505926
100290.95150800267584
100291.84661319338193
100385.24973604126717
100386.8838581454329
100388.69403241365217
100389.93685997722787
100389.81146595295286
100387.79448207847599
100383.7648451730638
100378.12513069694978
100371.73964528813667
100365.79960343432322
100361.65868277002301
100360.53260967669485
100363.23980888084043
100369.94105041776493
100380.13555954690673
100392.73604518808133
100406.3482018912182
100419.49202318760217
100430.76348170170968
100439.20548865887395
100395.21300276427064
100365.93223296750512
100342.57309037423693
100322.74491816919181
100304.05023013686878
100285.8961464898166
100271.63793494955462
100264.57120240399672
100266.16218530044716
100272.73204184384667
100277.92759605338506
100275.61000005538517
100262.78088874873356
100240.53371776700078
100214.66588088087155
100191.19783528739936
100175.90849664018606
100172.42349294762244
100180.64677911235776
100197.29959213187976
100216.49270545608306
100230.47889194384334
100233.0775788819592
100222.45833330327878
100201.90595829527592
100178.55832015584747
100160.8149613901478
100154.6518696770072
100162.06666073972883
100180.69560904461832
100205.87449965589622
100231.66605228792469
100252.34286343348504
100264.15236527634261
100266.1399955724919
100259.73203507221479
100393.38361172992154
100396.76388878762373
100399.8915748711006
100402.06236631561478
100402.66999270151427
100401.42262136211502
100398.51746610847476
100394.58833963025245
100390.51511658715026
100387.3146653980948
100385.97329950668791
100387.17872046955745
100391.18141051866405
100397.69310213103017
100405.83654420445964
100414.49161783262389
100422.469112895531
100428.77622193658317
100433.06552543563885
100346.30215602301178
100323.14695673099777
100301.33799053083931
100281.29899487987859
100263.62536125091719
100251.518704013768
100245.60807914244651
100246.49080533820961
100250.60580573484185
100252.27208942479047
100247.15213142777793
100233.24278940564545
100212.39198993692116
100188.45463039985043
100167.0978971914883
100153.47143539397803
100150.69442446665198
100158.7432625838992
100174.54971495609789
100192.59767631796421
100205.9879343064822
100208.93921491772926
100199.11773350575822
100179.07845595816616
100155.55227800703142
100136.2604767458688
100127.98348403080308
100133.86197700402408
100153.34243901231093
100180.67531555934693
100207.7344304821745
100226.79121282274718
100233.63261349195091
100229.13166082250245
100394.13200860003417
100397.34380561980652
100401.43841080917628
100405.99055622161541
100410.4806787068228
100414.28529141045874
100416.78293896192918
100417.67440024737152
100417.07479530302226
100415.39420369891741
100413.19208126177546
100411.10157859424362
100409.80660683465248
100409.78553856514918
100411.19058036987553
100413.7620071000274
100416.93549792411795
100419.96660633382271
100422.17015275730228
100423.35531944598188
100330.4747743170883
100308.0264974264137
100284.84297509718454
100263.92756731183908
100248.57886324178253
100240.40903019756661
100238.0818480070011
100238.69287071748113
100237.70707945036702
100231.57924323577026
100218.42587881740474
100199.58811479571159
100178.16494514743681
100157.73174517785083
100142.35501077058143
100134.79119207820622
100135.96440222320962
100144.93828819744522
100158.21834166828194
100171.25165240273054
100179.87402907219075
100180.48916196422942
100171.8581557154248
100155.96453187096631
100137.26450385799399
100121.75224055325089
100115.06119796262647
100120.27860656064877
100136.40924013181939
100158.32810083848017
100178.23654712889402
100189.63975124222634
100189.92401193888509
100400.07920045407081
100403.73052665096475
100408.73480057614506
100414.80081596989476
100421.39376833093411
100427.65535048162565
100432.64579129584308
100435.65199140286131
100436.38134099527088
100434.96035353391198
100431.69709519420576
100427.1896282765083
100422.23374227517343
100417.61139873303182
100413.93006400270679
100411.43122232850874
100410.01042709166359
100409.3697135028051
100409.27098152221879
100298.72659715449845
100276.09528845308523
100255.79437182137917
100242.95564475544961
100237.56398514467583
100237.08538477630646
100235.56682834836829
100227.99698696915584
100212.33830637579376
100189.93343694419309
100165.21041964166216
100143.30462712148437
100128.16059764724923
100122.0439836049336
100123.96905816477374
100131.16480597254122
100140.70900999831792
100149.07346080544812
100153.17479412414832
100151.97030926024308
100146.21315143497486
100137.84558151768579
100128.58894659095677
100120.18995309100137
100115.24825500942825
100115.13835017746896
100120.18071120257082
100128.79197866180039
100137.90263563537155
100143.78563928966469
100143.91309500701027
100138.69163409060275
100404.79415323732246
100406.71692562855606
100410.79298284312245
100417.05125787139696
100425.05782945614192
100433.93096226558555
100442.29507310995541
100448.67192702805914
100451.91607664384355
100451.38807730996632
100447.06061969201255
100439.46921630854195
100429.66982113840641
100419.119349076238
100409.29878322646255
100401.39988766450551
100395.99218913410732
100393.14536644384498
100392.74627061169303
100276.32906980915868
100259.56183338131814
100247.49587888219685
100240.44226032009465
100235.72338506423694
100227.84017409062653
100212.79841404386389
100189.95080286703887
100161.72300863840792
100134.83947052188159
100116.38369865679124
100109.45598165331467
100114.16154179087607
100126.30547256914724
100138.73224702224252
100146.2377652698051
100145.19031450861075
100135.68182454173802
100121.50890684690967
100107.35722215937858
100097.78092787566129
100095.91963065732853
100101.23060323273239
100110.13277751828718
100119.26758736249758
100124.50165251456201
100124.25560912022775
100118.36185947693593
100109.52569965420116
100100.07660986781411
100412.79142930576927
100414.37379193402012
100419.17408198943303
100426.97083167654637
100436.82203506871883
100447.18101108515111
100456.08888588228729
100461.66723637595715
100462.59257146839809
100458.3345732747548
100449.26574335734767
100436.53734157215513
100421.9072572037694
100407.43280843949469
100395.05604053809657
100386.16406568886305
100381.4450163213769
100380.92120900422742
100272.88091271219309
100259.75245476054261
100245.63671457651071
100230.21177846343198
100212.41854386859632
100190.22706741056754
100163.43591972757713
100136.06782463316631
100113.84045731840888
100103.07163102999039
100107.05627425239072
100123.12038327471237
100142.51382134265441
100155.4362999904406
100155.17737176628725
100140.65531629505858
100116.48540563775168
100090.42068633793679
100070.28275599253539
100061.34990926552564
100065.18750746207661
100079.61076695476368
100098.47204142261762
100114.08262911504426
100120.42071226592816
100115.61865085696627
100102.02626668041921
100085.40190960613836
100424.51175504398998
100422.75864069502859
100424.73490535933524
100430.66696974313527
100439.79771293526574
100450.59762560282252
100460.98228799612843
100468.72076704917708
100471.95021255589381
100469.57181281251542
100461.49002175143687
100448.6072636757599
100432.64645019060117
100415.81712463789154
100400.50269698450575
100388.80483801434457
100382.16359592408116
100381.09470628389681
100271.23612714346382
100247.17199330229778
100220.87873122321616
100194.38737433151982
100168.66736345543177
100144.17696024171892
100122.06410914540174
100107.52357304195175
100105.72516425844515
100118.77797351419576
100139.90381323469046
100159.29138599238649
100166.31677989667514
100155.575891082015
100130.61526175106701
100099.34095402457751
100070.17938965267967
100049.76976386805472
100041.85042664365028
100046.86483370936185
100060.84203215749585
100078.23430629294307
100093.38385612578713
100101.24859609245323
100099.16633378247207
100090.04298542847391
100079.0902098412771
100437.8750291657052
100437.50854436315421
100441.49702650346444
100449.38127262616763
100459.83575598482275
100470.93482570470951
100480.4402440203703
100486.20579717618239
100486.70042927339091
100481.29473572032293
100470.44201551245351
100455.57844995475898
100438.83119069953682
100422.72811611290672
100409.6329846750159
100401.43821687104355
100399.23563229449792
100292.98167991012451
100269.53252370900009
100238.42040139214077
100208.20777231892862
100183.66142471687635
100164.64274299943645
100147.8305958192941
100132.41957870296028
100121.81713578294148
100120.48463665982126
100129.51696994475788
100144.87427013974229
100155.99558158211585
100155.59074528349447
100141.17219357150316
100117.6359034175839
100092.73596258283942
100072.72024153587699
100060.54677191896189
100054.70875723127392
100052.77363685502496
100053.62199813791085
100057.90569106218754
100065.44171930682205
100075.12993363264832
100084.43995078030275
100090.56798137965961
100458.58950869410182
100463.16373880690662
100471.65284463179705
100482.70266451439238
100494.37596351001412
100504.52377360851096
100511.22176396926807
100513.14059473603265
100509.72478663196671
100501.26456026353117
100488.86218826496042
100474.30251236048935
100459.75009440309077
100447.42720703665691
100439.30731290516269
100436.5717451414821
100274.37276551913237
100245.49581035676238
100214.76994460054266
100191.35475769346522
100179.75119618535973
100176.09271909567178
100172.62821681681089
100164.28576591874298
100151.82834822969744
100140.1889712321281
100133.67599730909569
100131.75347654260986
100130.77111367268662
100126.77799973088258
100119.23078180178709
100110.14237531516119
100103.46879327109491
100100.91272190934978
100099.65523108594061
100095.39052361433278
100085.12795915568131
100072.52449708759377
100062.58973198698368
100060.72172381693963
100068.39776225932292
100081.60753643694625
100095.33078535241657
100106.00818415076355
100492.99926395791408
100504.03537000335928
100516.48023647921218
100528.33207911461068
100537.74775867481367
100543.34091276522668
100544.35228094960621
100540.71596310102905
100533.04261833176133
100522.49429890974716
100510.57180059087113
100498.93170107288461
100489.27539135234838
100483.0993370495853
100481.29737557326735
100213.83984830269765
100186.2230837027746
100172.62549903895706
100174.47962205138174
100185.51235511738923
100194.60662148482515
100193.10520708101103
100179.00011655929848
100157.83785591629567
100136.33999797172146
100118.62502598241554
100107.55706438219931
100103.0971209386189
100104.27518313824839
100110.84378545254003
100121.96396857239597
100133.65200256204116
100139.94510289015307
100135.9209959126747
100120.76336419761356
100100.13519487978192
100082.95915215184505
100075.73181530516013
100080.07875156054797
100092.27473197602376
100106.18237778115144
100117.12055737858464
100535.05030257880571
100548.77807073060831
100560.73682660216582
100569.23101491596026
100573.26737028197385
100572.66201924858615
100567.95275886359741
100560.17159502438153
100550.64938504867314
100540.81099339018692
100532.0023625902686
100525.33563231801963
100521.57832848330145
100521.1424894072843
100156.87561952786928
100153.16033291017811
100167.39406569322455
100190.0850575492077
100208.10217299495707
100211.21113072252774
100196.67379082056868
100169.15362098408514
100137.03757139433583
100109.49558963460731
100092.93061264105199
100090.25952065436286
100100.90432613898884
100121.46154021618713
100146.28287150873803
100167.24454099604918
100177.00438438437413
100171.57495213708899
100154.43693038860511
100131.3165259402449
100111.9931171490316
100103.04746860204614
100104.72882869852765
100112.81119401990145
100121.70309261768125
100127.82211641367758
100579.29632638332259
100591.09090616462345
100598.58873701134871
100601.08339771768078
100598.84363559233316
100592.93223531355034
100584.85868182196282
100576.21841566414514
100568.36123041865358
100562.25894114701077
100558.46035924782336
100557.12307827403129
100558.09767911213567
100138.19167787425977
100159.78949284546252
100188.06968841356866
100209.76061209403269
100214.79494748689467
100200.09429603586614
100170.24661340270541
100135.48338770540431
100106.07839252092526
100090.39505148846365
100091.99735023693938
100110.29295699262002
100140.05092504403729
100172.00273698694946
100196.37110118647979
100205.94661641167477
100199.38444116410392
100181.50549050646077
100161.06557728059124
100144.66705116188677
100136.31257827421359
100135.55478045823111
100138.16664378413407
100139.92808061494725
100139.51663067974732
100616.6614703945088
100623.26251218904508
100624.65009833736985
100621.40920122603711
100614.93724590084457
100607.0272033346846
100599.4039351191168
100593.36964608632843
100589.61949208111037
100588.21476898234687
100588.77283011146937
100590.65807642095024
100155.16574381059036
100182.49390721193049
100201.6058773528639
100204.65446090741898
100190.03193105915852
100162.96550726376881
100132.66718708307599
100108.56169606205367
100098.29598808097944
100105.36150207971514
100128.69561506090395
100162.00722541843425
100194.96403490049124
100217.75255020393524
100224.8304489521397
100217.41299147583777
100201.77543608265114
100185.74988183041569
100174.47550827094528
100168.59946709989163
100165.72473757840635
100163.141726556496
100158.92292061023181
100153.45803223201074
100176.61647848048597
100188.90186841091781
100187.10338320565643
100172.55895972761209
100150.63820519705769
100128.37503071005631
100113.39245929897879
100110.9926172230771
100123.72221370550687
100149.67166672345775
100182.24395121930866
100211.85098089040548
100230.44111796689685
100234.56787804905616
100227.5158028544538
100215.613075799527
100205.0664130946534
100198.68351154928678
100194.81252976287215
100190.64229873652221
100184.87355888113962
100176.62400861216884
100169.24029401682492
100169.32664121760172
100155.05457848448714
100138.48513146939513
100125.0211057516135
100119.23580708653026
100124.41770167296636
100141.18313783314079
100167.10396685166052
100196.03041721883346
100220.39892728817358
100234.24888159419061
100236.67102479458845
100231.47827221192711
100224.29962994146626
100219.07663947009132
100216.36227263805631
100213.49995225691237
100208.2590180819243
100200.59881269803736
100192.32727209207951
100186.18857697761268
100125.52801523944072
100135.27344767394243
100153.2162473921635
100176.67426952812821
100200.87403597096272
100219.88871972826018
100230.24056076692068
100232.60111517504265
100230.94112031898112
100229.01062563466257
100228.64640034713375
100228.07488774215744
100224.95008346100803
100218.59934393434378
100210.24076952600444
100203.78985437365191
100200.82277079047344
100196.71536333698896
100211.66748551304045
100220.2009823066328
100223.96177050757979
100226.34002569643781
100229.65731031513133
100233.09637649323849
100234.06321335713437
100230.45102041590144
100222.94372715218924
100215.12647765521251
100210.77200271480251
100211.90600005759916
100197.79703753773356
100205.94556284767168
100211.91393933955987
100218.33361696214706
100225.97209154276061
100232.72769884619629
100234.86812465122784
100230.86828021905967
100222.57815888959158
100214.56373424967751
100212.03914563790022
100216.41222400682454
100441.56663978539291
100425.29877130530076
100415.30757362263103
100407.75835794540762
100397.69085725149489
100384.35915511961502
100372.62154133351578
100368.30353668726457
100371.8239745573228
100375.97683435211366
100370.98591775570821
100352.0831108638813
100322.00331157175242
100287.92588782907114
100256.81970638094936
100233.30226143017353
100219.66371750846156
100216.05993620892696
100219.9866888289107
100226.1363197768369
100482.93007738472079
100455.1933052711247
100433.22931676272128
100417.94635032680526
100406.89546012670326
100396.01186637292267
100383.28766089493001
100371.64946153751225
100366.44021371264535
100368.6197164021869
100372.23501763308013
100367.91509018557554
100349.92092725877592
100319.99774837860605
100285.11467472968798
100252.86955844487238
100228.86323837093369
100215.73293808539165
100212.84309685142944
100216.52439919854805
100220.86165077418264
100220.84102345330757
100561.42365202117071
100532.01752926931658
100499.48579945739766
100467.74356604229251
100440.49974500571261
100420.13857082031609
100405.86406012372754
100394.32908758569101
100382.21071379647765
100370.69145770938485
100364.5840976164327
100365.49495097642648
100368.50567095946462
100364.69887745080632
100347.50132870397647
100317.7150661413616
100282.17373804825183
100249.11951043600857
100225.0567281661497
100212.77328362269327
100210.83516475120268
100214.34289275290212
100216.91363941055897
100214.5142672371876
100207.52737350332609
100199.00078823520744
100595.55416438748944
100577.72683337282797
100548.58581344425329
100514.13482256520365
100478.90201034100028
100446.81929357031186
100421.74263438227354
100404.73883136422955
100392.66591873204743
100381.10057397057244
100369.69156640817528
100362.68151377802133
100362.47068134312576
100364.99999291576387
100361.63292801349598
100345.19131628597097
100315.52307604790258
100279.37191582331434
100245.70474075872335
100221.83689021250757
100210.60913675386109
100209.73561858912581
100213.12854654426337
100214.00920785874769
100209.25215549928544
100201.20843611017335
100194.06691525811038
100189.1199711166264
100603.86469871348527
100607.54244679152907
100592.01995358405111
100562.86263859384053
100526.68399902744568
100488.25901962135686
100451.87945121168741
100422.75664117155247
100403.55291359200783
100391.16379795891407
100380.12302115428611
100368.82460039103171
100360.97103178211546
100359.75429449892545
100361.9206124330085
100358.98473040864337
100343.18428598616447
100313.50931976309221
100276.69336977277999
100242.54746596956102
100219.0063875089254
100208.96781742354506
100209.26185822206025
100212.66823754973302
100212.0114786845661
100205.0312477772386
100195.82932182663353
100189.83897348084429
100187.76915496472793
100183.8217271665344
100583.23574735879083
100609.87717472824443
100617.74005519849015
100604.01758163982595
100574.72151718115492
100537.12505724598304
100495.72296071164601
100455.73708989634179
100423.25838606945763
100402.29381026397459
100389.73541576795105
100379.18679814549978
100367.96752365732391
100359.3751254988747
100357.34405620358302
100359.39186847668316
100356.97597128011694
100341.77706426315126
100312.03952233085874
100274.5185171826306
100239.89400690623734
100216.65847046856652
100207.76220935552556
100209.21438736152777
100212.69073005332029
100210.65849344265007
100201.69499459881627
100191.39774481757195
100186.32840871803637
100186.89395365759265
100185.6968739911681
100172.09455369594798
100583.73398044636997
100614.69367909365974
100625.70184435615374
100613.47666136045882
100583.92224553179403
100544.86302938094013
100501.19820059680205
100458.37804234851501
100423.54465582442936
100401.1417617633706
100388.6025668077491
100378.5510664916801
100367.38228795667237
100358.22342045865662
100355.54819759348175
100357.59713030475541
100355.65442503480881
100340.86817957922176
100310.93874121688714
100272.65237767664075
100237.59650613491249
100214.69162676662381
100206.83746631347458
100209.39125313970726
100213.01481607070309
100209.90241295925807
100199.30664478737162
100188.01698591969034
100183.60393478677724
100186.35923125514819
100187.42201733669208
100174.79335110905231
100142.86608040367719
100469.99925501988037
100486.33544462284772
100495.3668778235442
100490.29502222927113
100474.32375213736668
100462.02240006042121
100584.04593088933325
100617.97247545114078
100631.30694474659686
100619.87836040489492
100590.20244937374082
100550.03875313205936
100504.8098284250882
100460.00733843010676
100423.46133923152229
100400.25045730038255
100387.77340411298792
100378.04424800460401
100366.8471985572105
100357.3194862320961
100354.28748649498448
100356.43562823455431
100354.95173333752609
100340.50324888588511
100310.49207765377651
100271.56220713477524
100236.03092057876347
100213.32558331030305
100206.22758778691059
100209.6379916924343
100213.39958271043724
100209.53999651844788
100197.74401451252925
100185.70360428560525
100181.71243831062748
100186.06164173157595
100188.81771538524481
100177.15429904052871
100144.45106992892397
100097.70865089714061
100445.69202134358056
100471.52852380105469
100488.02761379057483
100496.51895988079195
100490.04905410936044
100472.81640717777191
100460.40899880172219
100584.27090569867869
100619.82176308869384
100634.19917880847061
100623.20056130159355
100593.28858676170057
100552.62132472491066
100506.47091117502714
100460.73598201348796
100423.27346234854485
100399.73858736117836
100387.32969885990315
100377.85174823208945
100366.61455870997452
100356.87146970949834
100353.65855360776186
100355.97016612456355
100354.73756531187973
100340.35916161000205
100310.21837657930155
100270.91108612222888
100235.07044585789845
100212.53567646788724
100205.89704616888775
100209.78983674294432
100213.70408655235951
100209.42435193360143
100196.98037998072687
100184.51058796342113
100180.74438369343989
100185.98925303496071
100189.78422503752518
100178.35129520659393
100145.28920661544544
100097.45292668076581
100052.75693979034259
100389.95801451014995
100372.49315812185523
100351.79688634676859
100329.703266206634
100308.2562625156861
100289.47684683965053
100275.18178649287438
100266.77481223249924
100265.01034689680091
100269.89913773910666
100280.36576305808558
100334.48444305638259
100325.75120271099149
100320.48846511398733
100313.04660248330038
100298.0762943784066
100273.65847210581705
100242.68197931564646
100210.60562912435853
100182.9625930016191
100163.13340466668888
100152.35234859542106
100150.99886404797144
100158.8603369447228
100175.22572978347307
100197.74541782110464
100220.74143917293986
100238.73932290478842
100247.23003051454725
100242.3396670127695
100226.45752016556798
100205.2605539051292
100186.12124973823666
100175.47559937092592
100176.02493674309517
100185.88943487228244
100199.77191293188662
100212.06342125235824
100218.86628207139438
100219.82067732926225
100215.60961520034471
100207.02846560218313
100194.09342539434147
100177.21717595875089
100158.95131152545218
100144.45935058245959
100138.50925704764086
100364.93055439350428
100369.6191892579518
100376.44758545928926
100384.77689397249196
100393.65696003657649
100401.95064192649443
100408.39715718707885
100411.71888513761223
100410.80655617959565
100404.8988034404756
100393.72033823301899
100377.64264646236552
100357.81582647177856
100336.2166289830493
100315.28001429489814
100297.44535294239176
100284.76779373128375
100278.69708069000626
100279.95230582659133
100288.4117002907733
100302.76610573478683
100306.34702085268509
100304.27295578672783
100301.59516335233639
100294.12155509219156
100278.21519627064117
100254.87301523229689
100227.5277721069142
100201.3218988149747
100179.74930220913666
100164.04049900156679
100154.55323824474181
100152.3749065715383
100158.42056590809079
100171.8314561467123
100189.76870512362802
100206.8318926126376
100217.91880508026225
100220.98279991836171
100215.18925934466824
100202.96228695377067
100188.23169609067554
100174.67384291265626
100165.41752509672369
100162.31496618282108
100165.11148969842179
100171.51777029465302
100178.76070439160685
100183.93788311790559
100186.40358517157438
100184.47282914731477
100177.45583452795108
100165.25863992326776
100149.87541317832074
100135.40445261909917
100127.30925178376492
100129.73416025673214
100366.14117631470435
100368.05885936248524
100372.12161067317356
100378.16748427167477
100385.62437694796245
100393.52673049340956
100400.60855811696092
100405.4366145599779
100406.61345524583885
100403.08331437381275
100394.37793749777484
100380.73053978252574
100363.15753131981182
100343.53645438587409
100324.38942318542104
100308.42371876200195
100297.93524425473879
100294.45130416219763
100298.58740845981811
100309.98358512844425
100327.13719166934607
100290.1164428703778
100287.37869266975031
100277.38987287196505
100260.44759236373648
100240.27826148367603
100220.85792304853385
100205.11283383825503
100192.18317584968463
100180.96381683733489
100171.68347766932857
100166.42301754535583
100167.26916583866114
100173.97969078437018
100183.92389540786098
100191.94190412791795
100194.18150842557952
100190.34593527604011
100182.26473952207016
100173.21701593656326
100165.62100506400748
100159.76331086458231
100155.01761324229301
100151.14289952816034
100148.47421141825907
100147.23393428559939
100147.3174846861657
100148.21593527933874
100148.31996413654997
100145.83839552463905
100139.03527276562818
100128.00760155649914
100115.85473093975452
100107.77644340549887
100108.81828869180754
100365.53456486143114
100366.39022026359453
100369.4237980159669
100374.49435248870577
100380.96787444196525
100387.78021281665133
100393.52852735956549
100396.66808315795788
100395.89698175858939
100390.53277761641948
100380.65279144377564
100367.09078592993319
100351.44454692014551
100335.98287572663685
100323.31152841399307
100315.77824420171964
100314.96287306479644
100321.40637762765982
100334.58868752743001
100352.96085250085162
100281.31452103506308
100276.53677202569088
100262.59011718088004
100245.60620212176582
100231.55806436936837
100223.90132711082697
100220.27946081920527
100216.0236431498779
100208.14964935851458
100196.91876816442527
100185.67663716086827
100178.21716553544684
100175.65693625216954
100176.06257633712084
100174.18161158132716
100167.84133697224024
100156.83109793679614
100145.39500118530123
100137.89489162563405
100136.44707022666989
100139.24671975029923
100142.06012105867558
100141.72955485754937
100137.43996556330239
100130.32166660163784
100122.70099472870061
100116.71025603896123
100110.90325181288063
100104.32507317049021
100095.90545572896372
100086.27673668380885
100079.05212483633659
100079.09738891309826
100090.36572643127874
100363.76182347485155
100361.07533627949306
100360.28032032189367
100361.66491287437384
100365.1222976908175
100370.03348781909153
100375.32739440239675
100379.62733333370124
100381.56157286322559
100380.16604717100563
100375.18826975284901
100367.19080433892668
100357.44322592079698
100347.70601192733739
100340.03745454835007
100336.41212720808107
100338.25836033928499
100346.14665866011637
100359.61859553027898
100377.36190247465856
100265.54080305772368
100249.82921365689253
100235.63790266669821
100230.12216752918903
100233.56534872303018
100239.38160954891646
100240.59502831634018
100232.71248572367767
100216.94171300654125
100198.23900096588477
100182.43472851224942
100171.62206570171111
100163.72165220740135
100154.29621752742969
100140.8161928440968
100123.95325569270062
100108.97675393862301
100100.94403192769096
100102.79690201330232
100112.67353421999724
100124.61112964979839
100132.01799533885787
100131.11370951858407
100122.30000099634344
100108.79115585335239
100093.94096184527734
100079.77873172369436
100066.71959964117559
100055.46855530585162
100047.61727697806782
100046.19118982265354
100054.77135878267291
100359.27663108920387
100354.31852566686575
100351.12591462665296
100350.08167252215208
100351.17920295697695
100353.95744584235945
100357.53162895739661
100360.81189529581752
100362.78095812514948
100362.85804671597725
100361.08247834713256
100358.07274871888512
100354.91392997566436