/*--------------------------------*- C++ -*----------------------------------*\
  =========                 |
  \\      /  F ield         | OpenFOAM: The Open Source CFD Toolbox
   \\    /   O peration     | Website:  https://openfoam.org
    \\  /    A nd           | Version:  12
     \\/     M anipulation  |
\*---------------------------------------------------------------------------*/
FoamFile
{
    format      ascii;
    class       volScalarField;
    location    "0.0125";
    object      pMean;
}
// * * * * * * * * * * * * * * * * * * * * * * * * * * * * * * * * * * * * * //

dimensions      [1 -1 -2 0 0 0 0];

internalField   nonuniform List<scalar> 
106891
(
99555.6609861390898
99555.933366600933368
99556.234305812249659
99556.564398748843814
99556.924255895632086
99557.314195376748103
99557.734781366816605
99558.186229917584569
99558.668646672871546
99559.180647054585279
99559.715797763914452
99599.205991064780392
99599.068089859414613
99598.935990698431851
99598.807959738798672
99598.682686494619702
99598.559221316478215
99598.437031580746407
99598.315259595226962
99598.19259969034465
99598.067802090197802
99597.940134599091834
99597.810435413397499
99597.680463675060309
99597.552485440974124
99597.428189092170214
99597.307859031425323
99597.190515392285306
99597.074363363484736
99596.957373475612258
99596.837851965261507
99596.714718123635976
99596.58726014070271
99596.455517629947281
99596.320584237575531
99596.184455060327309
99596.049027157816454
99595.915090437061735
99595.781953285535565
99595.647951751685468
99595.511557978301425
99595.371759663787088
99595.228337822467438
99595.081168697375688
99594.92993928740907
99594.774078532107524
99594.613355562338256
99594.448451774209389
99594.280891820351826
99557.070473023049999
99557.189769595832331
99557.327787734946469
99557.48527322919108
99557.663106033040094
99557.862313398974948
99558.08404993925069
99558.329549993984983
99558.599968274837011
99558.896355201592087
99559.219558606884675
99559.570341813814593
99559.94924713599903
99560.356853662786307
99560.79353041331342
99561.259799406965612
99561.755916701906244
99562.281795446804608
99562.836090986878844
99563.412096702566487
99599.091220199275995
99598.956156472879229
99598.825105309995706
99598.696569974563317
99598.569859724346315
99598.444930719779222
99598.321374049162841
99598.197992269342649
99598.072939838195452
99597.94490852758463
99597.814195821454632
99597.682236759967054
99597.551300002320204
99597.423407492547994
99597.299453757877927
99597.179173416196136
99597.061299864682951
99596.943698509843671
99596.824091530797887
99596.700482024345547
99596.57165331793658
99596.437695059852558
99596.300234817710589
99596.16186456620926
99596.024942482661572
99595.890520645247307
99595.758177560783224
99595.626264797203476
99595.4925620110007
99595.35511215859151
99595.212752631152398
99595.064950285115629
99594.911794240557356
99594.753634119886556
99594.591296978294849
99594.426255353610031
99559.855514330833103
99560.026649990686565
99560.216296009457437
99560.425086214178009
99560.653806245943997
99560.903407182180672
99561.174930187713471
99561.469479761304683
99561.788118555385154
99562.131851357742562
99562.501475630066125
99562.897686449097819
99563.320948797525489
99563.771772704320028
99564.250488371268148
99564.757661610216019
99565.293618663112284
99565.858511573693249
99566.451304720307235
99567.066377185139572
99599.134716530388687
99598.996191407451988
99598.860809111050912
99598.72783453289594
99598.597022249086876
99598.468388302993844
99598.341630008479115
99598.215595242145355
99598.088343434457784
99597.958188354867161
99597.82492766190262
99597.68965872147237
99597.554666922107572
99597.422497120671324
99597.294793636276154
99597.1715076189721
99597.051460654431139
99596.932488440579618
99596.811916562437546
99596.687264966589282
99596.557209860227886
99596.42190778805525
99596.283024489690433
99596.143276118600625
99596.005277302887407
99595.87030958532705
99595.738161413697526
99595.607311579718953
99595.475029868524871
99595.338849249688792
99595.197017463578959
99595.048697664111387
99594.894172190572135
99594.734759718587156
99594.572224550051033
99594.408485676787677
99562.87989645304333
99563.117762766356464
99563.374435278077726
99563.650560602211044
99563.946935478423256
99564.264464946711087
99564.604115510373958
99564.966839517757762
99565.353544029640034
99565.765040372047224
99566.202014378184685
99566.665006400871789
99567.154437609351589
99567.670697910056333
99568.214061214661342
99568.784984187877853
99569.382970924212714
99570.007453285550582
99570.65186057430401
99599.034297898921068
99598.893934793828521
99598.756000781868352
99598.620446465414716
99598.487162019562675
99598.35563265181554
99598.224672380194534
99598.092797968303785
99597.958919673212222
99597.822914984324598
99597.685955190958339
99597.549643567879684
99597.416002075842698
99597.286340095568448
99597.160677549691172
99597.037932590450509
99596.916014643429662
99596.792318605046603
99596.664717846011627
99596.53214859412401
99596.394760214025155
99596.254035141944769
99596.112594363075914
99595.972915966878645
99595.836424684865051
99595.703265694537549
99595.571911002800334
99595.439819205625099
99595.304063423624029
99595.162454880628502
99595.014255691843573
99594.860089475070708
99594.701976562151685
99594.542201165939332
99565.469305953170988
99565.733888223578106
99566.016644248418743
99566.317918329456006
99566.638117872164003
99566.977784585993504
99567.337624008068815
99567.718459956042352
99568.12118592801562
99568.546691963711055
99568.995804264952312
99569.469230420159874
99569.967600694013527
99570.491382565174717
99571.041103123003268
99571.616976435485412
99572.219561662263004
99572.848109014899819
99573.502434251771774
99574.175836362788687
99599.076732086148695
99598.930619179416681
99598.787169615374296
99598.646354472046369
99598.507766536436975
99598.370438489248045
99598.233169477985939
99598.095013191574253
99597.955500529526034
99597.815015310188755
99597.674798871943494
99597.536381813581102
99597.401096714515006
99597.269428438681643
99597.140972069697455
99597.014368558055139
99596.887834321707487
99596.759387158876052
99596.627748184968368
99596.492419381858781
99596.353541783508263
99596.212314605305437
99596.070682212885004
99595.930603575790883
99595.793175692786463
99595.658418027014704
99595.525252129824366
99595.391550592219573
99595.254892019846011
99595.113383828807855
99594.966381902893772
99594.814774032784044
99594.66053600484156
99568.584730397182284
99568.90875572967343
99569.250772919971496
99569.611073889391264
99569.990044960519299
99570.388180019523134
99570.806156185237342
99571.244745244708611
99571.704784741115873
99572.187076916568913
99572.692479547535186
99573.221757615363458
99573.775663840991911
99574.354721855619573
99574.959409532035352
99575.589906690525822
99576.246006320390734
99576.926740920345765
99577.627072105766274
99598.974709711983451
99598.824507885830826
99598.677102008208749
99598.531895843523671
99598.387370289492537
99598.242408155943849
99598.096661121177021
99597.950705590730649
99597.805876422935398
99597.663546194671653
99597.524588476502686
99597.389012139086844
99597.256238561240025
99597.125225186027819
99596.994280837010592
99596.86196517549979
99596.727290817012545
99596.590040281560505
99596.450737524137367
99596.310493508106447
99596.170320495017222
99596.030898590834113
99595.89245654491242
99595.754965163287125
99595.61816295736935
99595.481297914957395
99595.343323289082036
99595.203262198163429
99595.060597856543609
99594.915446963859722
99594.768663331182324
99594.621283211934497
99571.406991708427086
99571.769139229829307
99572.14888252018136
99572.546236409645644
99572.961293764426955
99573.394309406212415
99573.845769905979978
99574.316363677222398
99574.806965336712892
99575.318497628526529
99575.851911388948793
99576.408025303462637
99576.987667202527518
99577.591407345113112
99578.219736024038866
99578.872724060347537
99579.550012686362606
99580.250304510598653
99580.96884419953858
99598.86254079065111
99598.707622347312281
99598.55443039209058
99598.402414088239311
99598.250822697315016
99598.099492655310314
99597.949029367358889
99597.800831654531066
99597.656257357637514
99597.515984546873369
99597.379139972079429
99597.243785991086042
99597.107903231619275
99596.970039103616728
99596.829567199820303
99596.686930283351103
99596.543544826476136
99596.400992300084908
99596.260311062680557
99596.121866258923546
99595.985456190668629
99595.850006244712858
99595.714052161856671
99595.576515982902492
99595.436743970174575
99595.295083727440215
99595.15243511137669
99595.009851333976258
99594.868115917823161
99594.727521870139753
99574.585386123872013
99574.998589755996363
99575.429119928434375
99575.876897873196867
99576.341855520688114
99576.824068265108508
99577.323884108860511
99577.841985431921785
99578.379306360919145
99578.936939191335114
99579.516014399327105
99580.117488000323647
99580.742140832575387
99581.390295600824174
99582.062156748972484
99582.756835462118033
99583.473592896902119
99584.207303483402939
99598.731701853379491
99598.568835485246382
99598.407576751254965
99598.248424637829885
99598.091711603730801
99597.937966548270197
99597.787996556595317
99597.642280792439124
99597.500566871211049
99597.361318886425579
99597.222254309555865
99597.080927629140206
99596.936005001844023
99596.788069246060331
99596.638918683471275
99596.491023650756688
99596.346595513387001
99596.206704221665859
99596.071076457708841
99595.937975257533253
99595.805124880702351
99595.670402302392176
99595.532273882257869
99595.390741124734632
99595.247072853293503
99595.103361185349058
99594.961570843559457
99594.822783698095009
99577.338199873949634
99577.781610451289453
99578.241707795416005
99578.718390650479705
99579.211578371352516
99579.72127563371032
99580.247651733647217
99580.791134380866424
99581.352419411967276
99581.932414652605075
99582.532166713717743
99583.152702154082363
99583.79496626148466
99584.459407581263804
99585.146362365223467
99585.854988005550695
99586.58454589091707
99587.330083379696589
99598.588750818162225
99598.4208505696879
99598.25687878865574
99598.097075993879116
99597.941457809007261
99597.78972483992402
99597.641881438117707
99597.497301563955261
99597.35413208186219
99597.209454071067739
99597.06096071205684
99596.908030346647138
99596.75215831391688
99596.596577050120686
99596.444511837544269
99596.298095392936375
99596.157751357619418
99596.022409449215047
99595.889812420093222
99595.757439255627105
99595.623346048654639
99595.486664428855875
99595.347552735547652
99595.206916717346758
99595.066484812021372
99594.927924821415218
99594.792138859731494
99580.488774062148877
99580.975437955232337
99581.47794107698428
99581.995969589814194
99582.529322974747629
99583.078040665743174
99583.642458617323427
99584.223241805506404
99584.821344666241203
99585.437833023926942
99586.073699593500351
99586.729810332981288
99587.406691429438069
99588.104665593666141
99588.823113543374348
99589.561263567768037
99590.314932861627312
99598.769936105964007
99598.594478848899598
99598.423541425334406
99598.257800464198226
99598.096435616098461
99597.938085645728279
99597.782034517091233
99597.628073548330576
99597.4762299227732
99597.325658944129827
99597.174577966114157
99597.021220391630777
99596.865427840821212
99596.708774240876664
99596.553922364313621
99596.403092926717363
99596.257120176393073
99596.115359795832774
99595.976603229384637
99595.840095685271081
99595.705238013222697
99595.571323363445117
99595.437522390900995
99595.303099039578228
99595.167799393893802
99595.031564489254379
99594.895166341375443
99583.601570542494301
99584.12639634477091
99584.665679133075173
99585.219239553785883
99585.787088256256538
99586.369495483450009
99586.967007316372474
99587.580356460908661
99588.21045487797528
99588.858168372316868
99589.524358915048651
99590.20938954691519
99590.913634896889562
99591.636279708298389
99592.376948790406459
99593.131590546647203
99598.783449518043199
99598.609149823416374
99598.43988034024369
99598.275161825862597
99598.113020159522421
99597.95145751828386
99597.789649717451539
99597.628267521591624
99597.468454264875618
99597.310993080740445
99597.155439784342889
99597.000726534766727
99596.846175558195682
99596.692245195430587
99596.539921905947267
99596.389686561320559
99596.241429916961351
99596.094673108964344
99595.949053802309209
99595.804934373009019
99595.663543634771486
99595.525723344151629
99595.391463180436403
99595.259710359125165
99595.12881490381551
99594.997400361942709
99594.865144356968813
99594.732584838813636
99586.295333313799347
99586.848734567523934
99587.415392157199676
99587.995434093594668
99588.58923674550897
99589.197418696450768
99589.820765155483969
99590.460115571899223
99591.116241973766591
99591.789767040332663
99592.481022035673959
99593.190226049497142
99593.916899724252289
99594.660510989357135
99595.418134091276443
99598.614626624446828
99598.449255333660403
99598.287306813901523
99598.125511093967361
99597.961122711640201
99597.793639622905175
99597.624709473311668
99597.457168878609082
99597.293427170661744
99597.134493600417045
99596.979798681204556
99596.828287592608831
99596.678824320944841
99596.530528917981428
99596.382412530379952
99596.233433110799524
99596.083302900457056
99595.932585136935813
99595.78294504628866
99595.636713882893673
99595.495839495648397
99595.360336267403909
99595.228699405197403
99595.098628463150817
99594.968520403839648
99594.837644362924038
99594.706309095199686
99588.558149505988695
99589.133521366369678
99589.72157377426629
99590.32285270182183
99590.938055057937163
99591.567958749670652
99592.213275876405532
99592.874631091530318
99593.552384511844139
99594.246742876275675
99594.957583780575078
99595.684560763955233
99596.426817730418406
99597.182201158560929
99598.469140326255001
99598.309244169344311
99598.147586325299926
99597.981593281321693
99597.81084932788508
99597.637447528497432
99597.464975429102196
99597.296978565704194
99597.135578006927972
99596.980896492445027
99596.83128355203371
99596.684304438400432
99596.537631921630236
99596.389295807835879
99596.238036321679829
99596.083927605533972
99595.928701137905591
99595.775013747857884
99595.625566920818528
99595.482077622131328
99595.344798600621289
99595.211943677742966
99595.081051113418653
99594.95035282142635
99594.819535622664262
99594.689279711121344
99590.664165069145383
99591.258055314858211
99591.864608283765847
99592.484637115965597
99593.118944845366059
99593.768208673835034
99594.432879425483407
99595.113182679400779
99595.809067653186503
99596.520398031236255
99597.246570134244394
99597.987061068532057
99598.739622514578514
99598.312554828866269
99598.150401235150639
99597.982586805257597
99597.809318802392227
99597.633410843656748
99597.458832790900487
99597.289430222852388
99597.127516687338357
99596.973401023889892
99596.825341438670876
99596.680166717545944
99596.53438938173349
99596.385274897053023
99596.231741321418667
99596.074634156437241
99595.916487996742944
99595.760498495510546
99595.609434321217122
99595.464619922800921
99595.325411174999317
99595.190131191906403
99595.057022444278118
99594.924977738002781
99594.794177116564242
99594.6652581874514
99592.627537798631238
99593.238335412475863
99593.862157792202197
99594.499782995218993
99595.151834174554097
99595.818676579743624
99596.500454462482594
99597.197032410826068
99597.908227074425668
99598.633461347650154
99599.372432613192359
99600.123142932105111
99598.158930575154955
99597.989882923051482
99597.815936844359385
99597.639954712896724
99597.465744965229533
99597.296695239405381
99597.134799753956031
99596.980245641505462
99596.831326519211871
99596.685014165297616
99596.537834177943296
99596.387090483200154
99596.231760658032726
99596.073073580351775
99595.913938515441259
99595.757451033554389
99595.605874928049161
99595.459915508909035
99595.318892110182787
99595.181441025764798
99595.046395642115385
99594.913350350005203
99594.782469342128024
99594.654464630730217
99597.974345847585937
99597.800317295754212
99597.626112057288992
99597.455025291827042
99597.289243985578651
99597.129671265749494
99596.975779847911326
99596.825823208026122
99596.677188311397913
99596.527093798329588
99596.373596742123482
99596.216300307409256
99596.056856420647819
99595.898208268728922
99595.743122493775445
99595.593072163610486
99595.44797271565767
99595.306795946817147
99595.168490619427757
99595.032438540656585
99594.898732172703603
99594.767829776887083
99594.640252763623721
99597.617615142720751
99597.448968074357253
99597.28538837810629
99597.12698944695876
99596.973057066628826
99596.822009727344266
99596.671774143265793
99596.520169822193566
99596.365890857588965
99596.208992703410331
99596.051125160753145
99595.894539837230695
99595.741349162883125
99595.592372695042286
99595.44724356973893
99595.305346532302792
99595.166341367410496
99595.030161109432811
99594.896963711027638
99594.766919344605412
99594.639837490278296
99596.961542754113907
99596.809229773585685
99596.657078036849271
99596.50382576364791
99596.348905127219041
99596.19284615907236
99596.037122808353161
99595.883524328935891
99595.733153788896743
99595.586224787402898
99595.442243062483612
99595.300975422782358
99595.16244152620493
99595.026799232335179
99594.894384711689781
99594.76517985315877
99594.638564809254603
99596.336585553173791
99596.183703759728814
99596.031358328924398
99595.880682775532478
99595.732439369297936
99595.586752974486444
99595.443397960902075
99595.302374824954313
99595.164355070941383
99595.029950972020742
99594.89917555777356
99594.77143621337018
99594.645615585890482
99596.158462277016952
99596.009749646822456
99595.862600929671316
99595.717342218980775
99595.57377232296858
99595.431929720158223
99595.292141242272919
99595.155301380393212
99595.022320132964524
99594.893270598608069
99594.767194541098434
99594.642567690869328
99609.140643891281798
99609.016533527115826
99608.8914422638627
99608.764070833611186
99608.634751347824931
99608.504727101928438
99608.374565263206023
99608.243077831022674
99608.107931381571689
99607.967548753586016
99607.822412366076605
99607.675194497773191
99607.529082323948387
99607.385850180711714
99607.245568674028618
99607.106986802216852
99606.967794491400127
99606.825114866544027
99606.676757807697868
99606.522019437063136
99609.253118877648376
99609.125536557927262
99609.000427142993431
99608.875680755329086
99608.749575695444946
99608.621765055198921
99608.492777977982769
99608.363171220116783
99608.232010841980809
99608.097189025109401
99607.957032690930646
99607.811953781012562
99607.664525805332232
99607.517973463152885
99607.3744505616487
99607.234310936313705
99607.096180841093883
99606.95746662048623
99606.815112408206915
99606.666897129223798
99606.512298386049224
99606.352470372570679
99609.513115861758706
99609.373970403437852
99609.239798433147371
99609.11025900329696
99608.984143876718008
99608.859488741189125
99608.734359295383911
99608.607684094677097
99608.479537987630465
99608.350292064700625
99608.21933806843299
99608.084882292590919
99607.945328116591554
99607.800742404011544
99607.653394245338859
99607.506584010887309
99607.36280326313863
99607.222566905649728
99607.084468044544337
99606.945889825699851
99606.803741126117529
99606.655891129441443
99606.502089078116114
99606.343470901716501
99606.181640073395101
99606.017783224437153
99609.650569776145858
99609.505081460083602
99609.362901207758114
99609.225895596187911
99609.094354581495281
99608.96741017527529
99608.843038537248503
99608.718868199182907
99608.593419058888685
99608.466300034910091
99608.337735192748369
99608.207271632127231
99608.073201527717174
99607.933842286860454
99607.78925661854737
99607.641928789860685
99607.495315730193397
99607.35179101585527
99607.211801602388732
99607.073934969841503
99606.935383344258298
99606.792996586940717
99606.644833233498503
99606.490956431647646
99606.332819697927334
99606.172037576805451
99606.009317688061856
99605.84440445486689
99609.78938815271249
99609.643220385099994
99609.496765634103213
99609.353454656928079
99609.21506025842973
99609.082017022345099
99608.953738278069068
99608.828648668437381
99608.704601362667745
99608.579776601749472
99608.453465125436196
99608.325611240041326
99608.195749619189883
99608.062270660462673
99607.923346415671404
99607.779016005370067
99607.631621062886552
99607.484748781498638
99607.34117179059831
99607.20158003702818
99607.064407916011987
99606.926466567034367
99606.784361030746368
99606.636268507398199
99606.482568035484292
99606.324944202919141
99606.164916777226608
99606.002872953002225
99605.837982986369752
99605.669775202579331
99609.92933282260492
99609.78760512243025
99609.640312911375077
99609.491808589344146
99609.346135510437307
99609.205538633847027
99609.070810345263453
99608.941910018751514
99608.817433057964081
99608.694676150349551
99608.571231530397199
99608.445945635161479
99608.318754214589717
99608.189381243471871
99608.056276830291608
99607.917603920024703
99607.773224161050166
99607.625650683665299
99607.478778770702775
99607.335378057890921
99607.196012331420206
99607.058984160132241
99606.920934346970171
99606.778394134598784
99606.629815891632461
99606.475967037447845
99606.318813467602013
99606.159837830768083
99605.998932255693944
99605.834723205043701
99605.666403495793929
99605.495694587385515
99609.934675411306671
99609.792642600892577
99609.64449410205998
99609.494891250127694
99609.348166386946104
99609.206627595951431
99609.071191641676705
99608.941913580420078
99608.817403502645902
99608.694912618710077
99608.571793701397837
99608.446711868338753
99608.319545879523503
99608.190167147651664
99608.05720215337351
99607.918685577620636
99607.774339203941054
99607.626588498023921
99607.479399800024112
99607.335840314946836
99607.196681711415295
99607.06009758017899
99606.922432197068701
99606.780053525450057
99606.631435633258661
99606.477603467777953
99606.320671654859325
99606.162108418269781
99606.001627738412935
99605.837458389025414
99605.668592219051789
99605.496950022716192
99605.326675265649101
99618.98844455111248
99618.789548976579681
99618.585848929244094
99618.379388233850477
99618.174117174072308
99617.971792385855224
99609.93879301128618
99609.79660387810145
99609.647714407314197
99609.496960693839355
99609.349002734699752
99609.20629903653753
99609.069985544745577
99608.940326306677889
99608.815939388092374
99608.693868864880642
99608.571212003123946
99608.446458334263298
99608.319493081682594
99608.190301630529575
99608.057519184178091
99607.919073705765186
99607.774590233253548
99607.62665496734553
99607.479328954650555
99607.335722395175253
99607.196671606434393
99607.060256319615291
99606.922660321957665
99606.780114312612568
99606.631237426583539
99606.477260881656548
99606.32044520576892
99606.162244601378916
99606.002195922876126
99605.838220190475113
99605.669106611196185
99605.496912451315438
99605.3260419707658
99605.16083543591958
99619.181536012823926
99618.988167332281591
99618.78905718261376
99618.585116297224886
99618.378658492743853
99618.173804713966092
99617.972098473735969
99609.945732381587732
99609.803438304836163
99609.654165472747991
99609.502900105697336
99609.354478093358921
99609.211381113884272
99609.074802673785598
99608.945115887792781
99608.820837381048477
99608.698915307148127
99608.576403096216382
99608.451674971700413
99608.324653959076386
99608.195449894148624
99608.062688470556168
99607.924224081842112
99607.779668806368136
99607.631641832995228
99607.48420564623666
99607.340528351604007
99607.201576634412049
99607.065333631107933
99606.927841924902168
99606.785284440789837
99606.636333559523337
99606.482318590016803
99606.325538320626947
99606.167494289169554
99606.007647845544852
99605.843711861220072
99605.674399516530684
99605.501887522448669
99605.330688042129623
99605.165296098857652
99605.007616548115038
99547.369034033297794
99547.629145995088038
99547.919684707085253
99548.241978984471643
99548.597246079851175
99548.986172574557713
99549.40939073136542
99549.866777238930808
99550.357824449325562
99550.879965949745383
99551.425110089519876
99593.279397928359685
99593.13967135315761
99593.000042687068344
99592.859932003819267
99592.719918186048744
99592.58168187928095
99592.446981450440944
99592.316738169072778
99592.190671666379785
99592.067718953432632
99591.946468998823548
99591.825147719617235
99591.702123246417614
99591.575834938485059
99591.444725228575408
99591.308108088254812
99591.166663212206913
99591.021809869023855
99590.875899220176507
99590.731451783634839
99590.589771695289528
99590.45071053414722
99590.312836498924298
99590.17396526497032
99590.031996704390622
99589.885560106864432
99589.734669325349387
99589.580091947922483
99589.422814505960559
99589.263869609101675
99589.103974248282611
99588.943782595219091
99588.783899309753906
99588.62463510017551
99588.465655009858892
99588.305738200724591
99548.777778628733358
99548.873062373633729
99548.985586231647176
99549.115925638077897
99549.264783051694394
99549.433019730073283
99549.621701251991908
99549.832092203490902
99550.065646637929603
99550.323915051354561
99550.608530120414798
99550.921086096088402
99551.263165207245038
99551.636062779434724
99552.040835182720912
99552.47808085430006
99552.948106973126414
99553.45073109146324
99553.985052776115481
99554.548973636556184
99555.134850944799837
99593.313698706508148
99593.172711735533085
99593.030753104118048
99592.888103916440741
99592.745809057334554
99592.605337815402891
99592.468011642165948
99592.334186363194021
99592.203487268168828
99592.075177064762102
99591.948317200221936
99591.82160066893266
99591.693546448863344
99591.562759595835814
99591.428025095388875
99591.289019564646878
99591.146520109221456
99591.001887008969788
99590.856709936910192
99590.712617127457634
99590.570280385465594
99590.429355863234377
99590.289020128373522
99590.148000424276688
99590.004915375538985
99589.858707356834202
99589.709167573819286
99589.55646485662146
99589.401200035266811
99589.244009919231758
99589.085783510599867
99588.927327682031319
99588.76910300036252
99588.611215265555074
99588.45286109673907
99588.292309358803323
99551.499079165412695
99551.645658457186073
99551.810012338508386
99551.992659528405056
99552.194171532915789
99552.415208370715845
99552.65656272060005
99552.91920542398293
99553.204316881863633
99553.513247955939732
99553.847497275215574
99554.208575869706692
99554.597948245791486
99555.01686971228628
99555.466298056591768
99555.94677937933011
99556.458373057597782
99557.000850311073009
99557.57290655261022
99558.172586715736543
99558.792032370809466
99593.220991086389404
99593.076021273853257
99592.930367382912664
99592.785574393812567
99592.642830264332588
99592.502546241492382
99592.364157971300301
99592.226990652357927
99592.090825635677902
99591.955620400811313
99591.820881993044168
99591.68554817236145
99591.548613029328408
99591.409262100729393
99591.267454528671806
99591.1240162957547
99590.980141589941923
99590.836830832020496
99590.694528125837678
99590.552899010028341
99590.41103420201398
99590.268318735674256
99590.124400038897875
99589.978985323497909
99589.831869446861674
99589.682780798553722
99589.531638946777093
99589.378683388174977
99589.224365422531264
99589.069466756103793
99588.914622161813895
99588.760017388573033
99588.605199063182226
99588.448659508372657
99554.434586690942524
99554.647686144191539
99554.879470482366742
99555.130402621609392
99555.400973485346185
99555.691757785345544
99556.003442751491093
99556.336909092249698
99556.693244458234403
99557.073740415798966
99557.479724588614772
99557.912495524826227
99558.373145599252894
99558.86254564585397
99559.381205984915141
99559.929193269257667
99560.506262665163376
99561.111221645245678
99561.742263957115938
99562.392504872899735
99593.262839941206039
99593.114163422113052
99592.965695088947541
99592.818755755957682
99592.673604301453452
99592.529204469479737
99592.384452439073357
99592.239134292234667
99592.093761130512576
99591.949233644947526
99591.805838700020104
99591.663172542466782
99591.520561258352245
99591.377427393686958
99591.233698240786907
99591.090061684983084
99590.947296030237339
99590.805954922994715
99590.665590890246676
99590.525054800775251
99590.38290470962238
99590.238365030658315
99590.091741815078421
99589.943625748361228
99589.794553246814758
99589.644744556906517
99589.494582691637333
99589.344003820224316
99589.193187831915566
99589.042462358353077
99588.891986848408123
99588.741470299020875
99588.589761334951618
99588.434956756987958
99557.226643803034676
99557.485007381532341
99557.762329541481449
99558.058971575956093
99558.375273785699392
99558.71160790855356
99559.068459529793472
99559.446491904513096
99559.846533239382552
99560.269561446344596
99560.71658589472645
99561.188642990484368
99561.686636559272301
99562.211301232280675
99562.763085709448205
99563.342066324548796
99563.948036240137299
99564.579903266610927
99565.235984080340131
99565.910013481770875
99593.161074110146728
99593.00957539146475
99592.859698006956023
99592.710557584592607
99592.560152692909469
99592.407370880449889
99592.252743127857684
99592.097796119545819
99591.944377328778501
99591.793504873538041
99591.644914557356969
99591.497691342039616
99591.351110480420175
99591.205340161614004
99591.0610365713801
99590.919264848635066
99590.780129581544315
99590.642533491918584
99590.504403369181091
99590.36328722408507
99590.217771877447376
99590.068129002087517
99589.915734775000601
99589.762405927991495
99589.609738484388799
99589.458534372868598
99589.309021636014222
99589.160976346960524
99589.014161404324113
99588.868050146411406
99588.721680082308012
99588.573200955943321
99560.310443391848821
99560.628980046414654
99560.967015439076931
99561.324846956224064
99561.702737539017107
99562.100929899228504
99562.519727413542569
99562.959553079446778
99563.421027975273319
99563.904915909137344
99564.412022404023446
99564.943062182777794
99565.498608352820156