/*--------------------------------*- C++ -*----------------------------------*\
  =========                 |
  \\      /  F ield         | OpenFOAM: The Open Source CFD Toolbox
   \\    /   O peration     | Website:  https://openfoam.org
    \\  /    A nd           | Version:  12
     \\/     M anipulation  |
\*---------------------------------------------------------------------------*/
FoamFile
{
    format      ascii;
    class       volScalarField;
    location    "0.0125";
    object      rho;
}
// * * * * * * * * * * * * * * * * * * * * * * * * * * * * * * * * * * * * * //

dimensions      [1 -3 0 0 0 0 0];

internalField   nonuniform List<scalar> 
106891
(
1.1618837995792088424
1.1618534061964429505
1.1618510269667456924
1.1618868351136024675
1.1619680339421838422
1.162091068522502324
1.1622526772558035013
1.1624310268222719511
1.1626164327622603434
1.1627793902586083252
1.1629127753391252931
1.161107870425811095
1.1607659273158206226
1.1605287310396670275
1.1603877753832121389
1.1602940466820959031
1.1601990178084833349
1.160084337935043175
1.1599522500887486931
1.1598194306124272046
1.1596925361136689592
1.1595607075349489978
1.1594060087701612005
1.1592248453603968272
1.1590381610466304885
1.1588884718457126421
1.158808931398137787
1.1588178649564486733
1.158898140415371758
1.159009549248850357
1.1591121641993233915
1.1591765274188163826
1.1591836540470297212
1.1591207269004939473
1.1589861416497693192
1.1588032486998318671
1.1586235401016633517
1.1585111110992214467
1.1585070698214330331
1.1586028303932585093
1.1587539286975108155
1.158900363464550054
1.159001822297258455
1.1590519961027625495
1.1590665758633149629
1.1590621288886000517
1.1590337997940796111
1.1589649014810883276
1.1588449799914171123
1.1616467773463343693
1.1617767561148084621
1.1618883625040627994
1.1619770271602949396
1.1620388648875561444
1.1620713662837740543
1.1620762375797750732
1.1620582849344922582
1.1620271762291225492
1.1619955905261667439
1.1619775452228766621
1.1619861433137936846
1.1620294437470264359
1.1621123776692865448
1.1622291224870768822
1.1623761989960801344
1.1625330545794549941
1.1626930358691356382
1.162829439921735819
1.1629410198151437505
1.1605289107564624729
1.1602693477970345004
1.1601230095533519027
1.160036312119189672
1.1599543827957197184
1.1598446541815148336
1.1597124665849931624
1.1595801717592211233
1.159460942436135511
1.1593524285303067334
1.1592289710277599024
1.1590799203258363992
1.1589012160995386669
1.1587320005987089555
1.158609339625642054
1.158561504378017526
1.1585943553786830496
1.1586906818661624197
1.1588166586076633635
1.1589313119687190134
1.158993344780545387
1.1589678724773015972
1.1588406727309119582
1.1586326802933306634
1.1584011350654521699
1.1582203832251185549
1.158150086364989173
1.1582096277030355935
1.1583693443502265374
1.1585729902558630222
1.1587651387851631846
1.1589059101233942783
1.1589797537908819169
1.1589854000731454331
1.1589245878297413928
1.1588075018720036535
1.1616711937089487794
1.1618241041813561765
1.1619601329435607084
1.1620736153030204463
1.1621590009807498678
1.1622128608508448533
1.1622360233426012321
1.1622330711072383913
1.1622133771891325349
1.162188490552758191
1.1621714671168144051
1.1621745368013174371
1.1622053787799491165
1.1622681320298793306
1.162357156545400283
1.1624686280177365383
1.1625855267566902462
1.1627029196651894605
1.1628006964539345791
1.1628811335390405457
1.1602842848114922614
1.1600620556242502435
1.1599303963785672078
1.1598406707845709818
1.1597397427162554617
1.1595945829086233836
1.1594185436069488482
1.1592432696160850369
1.1591034573834080312
1.1590032783425461282
1.1589267986688776002
1.1588513572944467711
1.1587642001800295688
1.1586675857914781052
1.158586131458214652
1.1585359806066346522
1.1585290763568392158
1.1585656528143193356
1.1586281739490162934
1.1586896992413744378
1.1587185165491145078
1.1586800919692359368
1.1585576968276112275
1.1583665201944099987
1.1581524437980403874
1.157977457665712695
1.1578983868360570586
1.1579405774160065334
1.1580914698731992196
1.1583049309631006096
1.1585246210200583761
1.1586964490751336943
1.1587813755426068507
1.1587671341671976766
1.1586692961116273892
1.1585209334844259743
1.1619790943560044383
1.1621070983347496774
1.1622172386133333699
1.1623052457125708781
1.1623674460567023914
1.1624034792662034654
1.1624162722016402327
1.1624132115051286629
1.1624028623326227994
1.162395095917117871
1.1623996045341271621
1.1624222978950773388
1.1624673501455089486
1.1625304443567427981
1.1626084037721224895
1.1626869526690153389
1.1627622281389500269
1.1628183767206765609
1.1628623107853897078
1.1598251468558418154
1.1596962328506343898
1.159604983947067014
1.1595198728383830922
1.1594141792778513977
1.159294516738987868
1.1591630512786201823
1.1590388061392116192
1.1589198059432535004
1.1587930481461967691
1.1586547801163697979
1.1585106209989002313
1.1583824208322004434
1.1582905366445046536
1.1582542512070344021
1.1582788010680407087
1.1583522144842379742
1.1584462877523762359
1.1585254647716469734
1.15855503421135686
1.158507128445647405
1.158373137425625643
1.1581717266123860988
1.1579501328990318143
1.1577714698631367263
1.1576872754871856408
1.157725772211721571
1.1578780891716302648
1.1581072754471899433
1.1583444492188237351
1.158516954867248705
1.1585716734425419716
1.158496645680292314
1.1583269076826321342
1.16175714490820714
1.1619245578147849862
1.1620791190038997076
1.1622183769193390468
1.1623394704396214916
1.1624386039915366453
1.1625127580608725086
1.1625609795148594827
1.162586743618748919
1.1625952050492693868
1.1625930507897679345
1.1625878317321010069
1.1625858924400624961
1.1625942197925651644
1.1626124668972483978
1.1626430243299701317
1.1626764886071627725
1.1627129869266614737
1.1627381458039924844
1.162762328902383846
1.1596038544201054954
1.1594517721902106722
1.1593404334330175143
1.1592614266098226761
1.1592065470586985221
1.1591610702024872648
1.1591007042162280172
1.1590064769218133556
1.1588627592279809875
1.1586732651782609693
1.1584578511707821491
1.1582559365193736411
1.1581067112297862565
1.1580345298573666568
1.1580497059825733963
1.1581389370116015325
1.1582697906963508316
1.1584005761158016057
1.1584836886230793773
1.1584833521702067038
1.1583873732613165775
1.1582027256731746157
1.157960322856443236
1.1577112708597612212
1.1575120559380662755
1.15741268382251139
1.1574418089386711017
1.157593944930153107
1.1578252899615273375
1.1580626859693752273
1.1582240374417429596
1.1582556633556169157
1.1581527711891006494
1.1620649376267822017
1.1621968464892851181
1.1623220279638484254
1.1624394571429295109
1.1625460019383309085
1.1626368298648959154
1.1627057202140482772
1.1627496315748850897
1.162767902566749223
1.1627640299902488596
1.1627428344394570292
1.1627102460211515833
1.1626756198297281131
1.1626443930538250537
1.1626247659683552893
1.1626155756810592212
1.1626195807635193447
1.162627956799541451
1.1626471615353202171
1.1593378801624807384
1.1592356101086167541
1.1591642106373465371
1.15913202588510722
1.1591123279949253622
1.1590723837305194621
1.1589696395308426435
1.1587861260528813379
1.1585384550240327428
1.158271166977367761
1.1580446305657607908
1.1579086097793322985
1.1578847475844014081
1.157965717864539279
1.1581089122056580365
1.1582571733166058259
1.1583606736979532581
1.158379551212590286
1.1582953273342184719
1.1581222899821892458
1.1578996520211866095
1.15767820803828414
1.1575000489488704858
1.1573938553797753492
1.1573787780564328553
1.1574486622010853321
1.1575783774770624923
1.1577246364165159065
1.1578375897261201644
1.157874419304650182
1.1578180042098504821
1.1576898596512925632
1.1621530441720557825
1.1622657053800000693
1.1623785696630017927
1.1624934427027031614
1.1626082135075819224
1.1627179755178420617
1.1628129786809711099
1.1628839137140607463
1.1629229451227245384
1.1629271409768515699
1.1628982767634512552
1.1628413875690066792
1.1627676482861664109
1.1626879122300135538
1.1626167266106621767
1.1625615775013391495
1.162529557566043259
1.1625165072966741064
1.162528059002138292
1.1592290271919427624
1.1591829468975709538
1.1591544962659519058
1.1591209024169513153
1.1590499685168467181
1.1589039564087837419
1.1586725652548168775
1.1583813872313795112
1.1580806788356154957
1.157847025531879126
1.157745058494641599
1.1577897516544097822
1.1579566982432372146
1.1581771984123727659
1.1583577530814586076
1.1584296884617582002
1.1583534710218459374
1.1581397766229641899
1.1578470937241029937
1.1575512398801184322
1.1573265736648299384
1.1572253885244450089
1.1572525864423133246
1.1573693951344445896
1.1575239350343251576
1.1576507157143742788
1.157707075424835752
1.1576721221425652075
1.1575636952194157114
1.1574122413733975989
1.1622363616641362416
1.1623367348829287682
1.1624462924441991696
1.1625650035299517349
1.1626877365661971719
1.1628037654221150543
1.1629000653699566037
1.1629630586243231427
1.1629842439434159296
1.1629613840599195562
1.162897945762373153
1.1628060048563511053
1.1626986223332287373
1.1625949429550401781
1.1625085334070959231
1.1624533172286066751
1.1624295724245621297
1.1624442015251936766
1.1592840912514081886
1.1592511278383290652
1.1591636275642953624
1.159010425619787954
1.1587909121765989084
1.1585099944721892751
1.1581946756641308127
1.1579058138751581186
1.157709963156369426
1.1576654468490614747
1.1577906529057557794
1.1580413660654635954
1.1583146143661890992
1.1584971525995055863
1.158507810813649952
1.1583259607261895408
1.1579961701028558263
1.1576060987916325651
1.1572548741150725515
1.1570218755001067112
1.1569473175953137734
1.1570251382755423197
1.157199254275108391
1.1573865010195771852
1.1575096290215367567
1.1575258779307233681
1.1574350007112832461
1.1572777403042666666
1.1623517423524485359
1.1624267557368217485
1.1625132737023622376
1.1626151964300706076
1.1627291142054239081
1.1628448275518623589
1.1629485245845736507
1.1630241586066039083
1.1630590432861978023
1.1630467127994490451
1.1629869164345303378
1.1628901411372494223
1.1627692073847324394
1.1626447184400012791
1.1625339372292733398
1.1624568261367627109
1.1624198008167128116
1.1624325294425998933
1.1592166052708372526
1.159067913783883963
1.1588616373758298117
1.1586166306811755966
1.1583550689421369118
1.1581017554152932547
1.1578875957673184782
1.1577709421920172606
1.1577995661794695526
1.1579841243881354718
1.1582511095856589112
1.1584950311175150617
1.1586023548578208153
1.1585079577328376566
1.1582317743132684029
1.1578444761609287816
1.1574354224543659253
1.1570889737669709518
1.1568675972650119821
1.1568003844231751209
1.1568673569577081484
1.1570200098234317831
1.1571952095481055078
1.1573264481729181874
1.1573657686847644843
1.1573172493462016153
1.1572155465941880159
1.1624893870508230531
1.1625591578745040344
1.1626516448248049862
1.16276514488217253
1.162890277998788191
1.163013571678675806
1.1631179489686793715
1.1631875692889350749
1.1632114284856109876
1.1631844118288405809
1.1631124016952287814
1.1630058634791493599
1.1628837869796488924
1.1627654086231020703
1.1626718271576053088
1.1626151992016084957
1.1626072229303068273
1.1592971548150501349
1.1591982965679523687
1.1590085827016403108
1.1587865344611325558
1.1585725871637970741
1.1583782904618593612
1.1581960007930176548
1.1580395641455367706
1.1579523588421891667
1.1579766995909965832
1.1581155257697981487
1.1583188275433939918
1.1584758164747450682
1.1585015287063558098
1.1583563425655407642
1.1580734039643498789
1.1577244209111181572
1.1573823969489780428
1.1571015573608705029
1.1568998820312754727
1.1567803038924495684
1.1567436175962304556
1.1567905243234128942
1.1569022827937169851
1.1570454277139947674
1.157174671145320799
1.1572495544073930773
1.162831762923725698
1.162909112850154747
1.163009361205977088
1.1631233983066648907
1.1632378546587742729
1.1633365968225803933
1.1634055782274415058
1.1634352497292315132
1.1634210152881347966
1.1633669101670218726
1.1632804050372100857
1.1631772426030009271
1.163073163143643507
1.1629879215491947253
1.1629337035580078474
1.1629226674918433648
1.1589804322603189934
1.1588385323748573441
1.1586736708841220977
1.1585463446356829564
1.1584884436765785498
1.1584720625227298285
1.1584436028162019561
1.1583737361906332186
1.1582794288802160665
1.1582072387051327578
1.1581919667195617052
1.1582216128547733192
1.1582526454367689794
1.1582360480242561707
1.1581520594642042976
1.1580080511481036787
1.1578373248295970033
1.1576656857800458056
1.1574905526320666826
1.1573008387715137957
1.1570936683959824887
1.1569128073825107883
1.1568021372082721854
1.1567976893528042481
1.1568951396049431679
1.1570419328028511696
1.1571799058066205568
1.1572708082987874789
1.1631079314761751942
1.1632456086320484001
1.1633865211566054576
1.1635157689488173638
1.1636190591737018973
1.1636861899112951324
1.1637120199732875481
1.16369621160593395
1.1636456405965940331
1.1635690772139970495
1.1634807551508805634
1.1633930659436180211
1.1633225058506311278
1.1632779402491328913
1.1632700272245823925
1.1584938307631065246
1.1583664618972169258
1.1583448772938391702
1.1584298953092466711
1.1585666709651296635
1.1586673675712539922
1.1586688111974243753
1.1585635700280139115
1.1584040299547015973
1.1582477168138662904
1.158125233826503564
1.1580521979630074014
1.1580174982299893394
1.1580024582640757735
1.1579974751010126965
1.1579940985078789328
1.1579656238619315811
1.1578762168767133822
1.157703134368719855
1.157457470933578092
1.1571990670423935033
1.1570063451952430356
1.1569287674418538003
1.1569684892990346192
1.1570805196054885222
1.157202028965552687
1.1572887446996411587
1.1634574996085642606
1.1636244453746065197
1.1637671710098458355
1.1638726021077823169
1.163933946965543198
1.163950820635064165
1.1639284862490295591
1.1638771312426292592
1.1638078479548428223
1.1637339848938146325
1.1636666296098434614
1.163616408565359972
1.1635885591209158552
1.163587644946845856
1.1581029499942208094
1.1581631234355784787
1.1583582895498167886
1.1586077338424645156
1.1588055990216434843
1.1588723734451500391
1.1587897573005352392
1.1585976748380468759
1.1583628073145550985
1.1581545142242721802
1.15801704068082989
1.1579659114890963334
1.1579904194495656
1.1580613987572767609
1.1581374071778536283
1.1581629085204789842
1.1580934755321361518
1.157913673467655391
1.1576668706568271627
1.1574085194089878126
1.1572190650861184924
1.1571444421198517905
1.1571732074551468461
1.1572562736054814447
1.1573374264323019744
1.1573848951989855749
1.1638379968271235221
1.1639845372503940801
1.1640882009782080875
1.1641442625870148664
1.164155513561615729
1.1641312899803268888
1.1640848791420683739
1.1640294300024889296
1.1639770725356526349
1.1639358364529190926
1.1639111080136170795
1.1639038007359261417
1.1639133788843580852
1.1580184701625590993
1.158289708763722059
1.1586008250783996765
1.1588413284630589839
1.1589303686855501052
1.1588457935966667289
1.1586278152058773205
1.1583609373522429919
1.1581272967473392743
1.1579907747754196734
1.1579742723476287303
1.1580671710691861076
1.1582237422775412128
1.158370151483789412
1.1584341840672998103
1.1583695052976097362
1.1581800249023375127
1.157918902268193273
1.1576668880952896146
1.1574803713416310647
1.1573876916142344928
1.1573759493359385697
1.1574000707866671789
1.1574179961883257484
1.1574175208180155217
1.1642423787785407541
1.1643258273292929061
1.1643613038278719518
1.1643543405446015182
1.1643174449494613221
1.1642661267702414385
1.1642148585856371135
1.1641752856467715294
1.1641529634734342213
1.1641490597328527645
1.164159646758729405
1.1641803877800778189
1.1581775034221883924
1.1585078673426185691
1.1587619691382557985
1.1588705197799873403
1.1588169282823959083
1.1586420854345174103
1.1584206980243245688
1.1582296330517942717
1.158130525661631216
1.1581499208331338391
1.1582764386526367417
1.1584569380362099711
1.1586083589795792559
1.1586565873861069953
1.1585670056667320971
1.1583628066646178834
1.1581080709352009617
1.1578760467829030123
1.1577124443300919054
1.157620514216109342
1.157574386284796919
1.1575442267950657449
1.1575084610040475841
1.1574691298739288037
1.1585553479757106921
1.1587636588403305016
1.1588326604522729557
1.1587689766651627643
1.1586159282978143459
1.1584334141701810861
1.1582877570019216584
1.158226024857160974
1.1582709003003230919
1.1584065921211756933
1.1585780054311241027
1.1587067699964739287
1.1587304311385790978
1.1586281288063899897
1.1584369149308531011
1.1582189822663684353
1.1580331085142478997
1.15790596282163194
1.1578230947578092014
1.1577572230924124685
1.1576924340194110208
1.1576179539099433757
1.1575616511923814134
1.1586981610007247578
1.1586667406857920071
1.1585793936204751287
1.1584795003113737
1.1584079163768425946
1.1583978406650168314
1.1584612952320640922
1.1585839515340816686
1.158718745271696271
1.1588055268336294734
1.1587974472961599659
1.1586905457904430605
1.1585215706173561667
1.1583432140536802368
1.1581941130252846328
1.1580834544432612176
1.157991749907605783
1.1579007221510706493
1.1578086899910629004
1.1577293276118767462
1.1576858099086473342
1.1585018694075099877
1.1585167150796862323
1.1585761218812482554
1.1586699260813526635
1.158766448518088632
1.1588197048259458732
1.1588005501545717291
1.1587128754622215698
1.1585885543342526738
1.1584594919521697953
1.1583437098757445316
1.1582309314833267866
1.1581068211128038303
1.157970896543320638
1.1578379126977738078
1.157744575646534102
1.1577083085652266625
1.1586800261551237767
1.1587010588842698855
1.1586791231515203293
1.1586232057167420439
1.1585558975882068733
1.1584923650618397239
1.158424284396117887
1.1583313482450532383
1.1581995080439562162
1.1580393417440564274
1.1578866073766655997
1.1577794975022071
1.1577427243024998038
1.1585451712965968429
1.1585277332841901199
1.1585008771964560026
1.1584775363762553901
1.1584568884874257844
1.1584182893478467413
1.158332285298694142
1.1581918846628369568
1.1580208678689345447
1.1578668080730472045
1.1577828345347371819
1.1577901611241923074
1.1646392135683194535
1.1645469908353707211
1.1646091684805088828
1.1647549335970737161
1.164890937968354967
1.1649618776329804248
1.1649775698693733972
1.1649834172517070652
1.1650060572613916143
1.1650234532485681527
1.1649896296753494696
1.1648813183153914341
1.1647098902232895234
1.1644980982196784236
1.164253694493140534
1.1639697322238158339
1.1636423018959398679
1.1632827171602873051
1.1629127921965287662
1.162552359639131172
1.1652182375435951034
1.1648342034922780641
1.1646015254208057499
1.1645372794238575409
1.1646037325892715231
1.1647263811074557438
1.1648363392502651958
1.164911086335782775
1.1649688841356402591
1.1650200118021851736
1.16504205240980796
1.1649953793707070737
1.164863900546198705
1.1646721398541717285
1.1644603122127850092
1.1642508652643235312
1.1640405814075720503
1.1638109948789501225
1.1635421039853250935
1.1632223391350942077
1.1628515621045574235
1.1624536154130948873
1.1664650926245367923
1.1659829251934339389
1.1654824061797581791
1.1650305579212152374
1.1646947670539822273
1.1645190195777004316
1.1644975947870508381
1.1645773116160458294
1.1646857142638720184
1.1647825903252355673
1.1648693794075151153
1.1649449363599038154
1.1649808594015036434
1.1649345696827937413
1.164786699973523465
1.164566251225714888
1.1643282519922040219
1.1641139014349948244
1.1639333209497348953
1.1637652576828001472
1.1635701794836106338
1.1633085770533952985
1.1629596465017917328
1.1625449374220162557
1.1621302530943171671
1.1617941930562403208
1.1664245387711067448
1.1660798156843303897
1.1656492998798642091
1.1652013257077813435
1.1647973655021914841
1.1644896709689740444
1.1643162540303355623
1.164273904058244602
1.1643087299069734275
1.1643489471751000686
1.1643606736786029643
1.1643620246257402329
1.1643738573425383986
1.1643782049401338874
1.1643246477333910605
1.1641692409678670028
1.1639123415405414619
1.1635955897418921445
1.1632684663438461747
1.1629664142521158876
1.1626984184004969247
1.1624490519929575605
1.1621906244594037982
1.1619035585290522494
1.1616023777421662366
1.1613396415986387833
1.16116714083436956
1.1610931146709073669
1.1651425269611404012
1.1650870594735116548
1.1649156427347195919
1.1646716866032933435
1.1643967518821478624
1.1641111170527314034
1.1638319512180301807
1.1635913143259246638
1.1634103661576948863
1.1632708083213032513
1.1631370770185012198
1.1630009379590695584
1.1628894322092218072
1.1628176430614014514
1.1627449224998598343
1.1625919126022370431
1.1622951724148085084
1.1618583739373178343
1.1613572594149406125
1.1608948103014871123
1.1605535018236998734
1.1603643697388521527
1.1602973064751291865
1.1602803568286603753
1.1602388030454213741
1.1601410870529731412
1.160014649754359306
1.1599052128592153288
1.1598244230074492567
1.1597310874134794112
1.1638166371420632927
1.1639398745173836769
1.1638901565447896669
1.1636546374104086432
1.1632946594937765283
1.1628784230132078736
1.1624449995966350535
1.16203384151049538
1.161689235943880627
1.1614397416451927025
1.1612587664612290528
1.1610953860420660799
1.1609295165732207433
1.1607880708416722371
1.1607002263172383483
1.1606408318298186977
1.1605360701557705383
1.1603173525874006522
1.1599737629919746329
1.159566151419135549
1.1591865139499231141
1.1589057030003220294
1.1587458974067761375
1.1586712100020650773
1.1586118297571343927
1.1585076043717372762
1.1583509844214121554
1.1581919749245095375
1.1580858182539612855
1.1580335187095363025
1.1579694110399867402
1.1578011885911358991
1.1625910283912486154
1.1627743400044259214
1.1627917971443890721
1.1626162978336787024
1.1622972090951801949
1.1619002360801025109
1.1614670762191339204
1.1610435742465565756
1.1606890500660609344
1.1604403115989139206
1.1602762664683787808
1.1601358256340428277
1.1599881844814454723
1.1598571780564710387
1.1597775183045200276
1.1597332857723028354
1.1596526866662144606
1.1594642550766816047
1.1591513130946817789
1.1587719356116801261
1.1584229815247952811
1.1581783745004361474
1.1580615523482264972
1.1580332252132148341
1.1580151036473365078
1.1579414123760511934
1.1578046652861002652
1.1576599145033696914
1.1575694867613428585
1.1575367713984980877
1.1574904837026374071
1.1573335237282913468
1.1570207980072824139
1.1648423783307557677
1.164939014045011767
1.1649694623241992897
1.1648791806415952355
1.1646963047358092069
1.164542374983719375
1.1629200995246329331
1.1631548688375266121
1.1632202979798040854
1.1630819275478612163
1.1627935297702878259
1.1624193476102180345
1.1620044519638037528
1.161594289186474338
1.1612532109199058539
1.1610226207129195064
1.1608806142396166372
1.1607611552236614116
1.1606295484840154497
1.1605118567695240639
1.1604480505913830068
1.1604273869256676033
1.1603772418278737177
1.1602206857897616743
1.1599364140483252594
1.1595794335370297468
1.1592514243520244399
1.1590299742775054259
1.1589375694360974922
1.1589316604590764737
1.1589282969729819417
1.1588619868262195478
1.1587306780518280558
1.1585982607367928399
1.1585332497510623107
1.1585378757658453264
1.1585300367685598122
1.1584039488903385973
1.1581051005306333135
1.157691217188882904
1.1641471512720364956
1.1643452685252515533
1.1644641588508926056
1.164515174987129642
1.164442207834631926
1.1642811604301113171
1.1641608496503372816
1.1643762805273192296
1.1646561413681744135
1.1647615239344977223
1.1646581654234247072
1.1643994806718314106
1.164052613755991672
1.1636608314338785508
1.1632726221444324999
1.1629527820656146986
1.1627480811936419247
1.1626355240358485776
1.1625474511560482949
1.1624449166765109531
1.1623544755093875303
1.1623175289513627551
1.1623259423224756581
1.162305268594637564
1.1621766239564963463
1.1619184372961923746
1.1615848777258317437
1.1612799150695860551
1.1610846326309767207
1.1610205302581104725
1.1610435588659602235
1.1610671330154762604
1.1610234746118175408
1.1609127190609884739
1.1608018624767264537
1.1607628726029484145
1.1607983175707050627
1.160821945859995763
1.160720104496228311
1.1604399686341799747
1.1600380648229529079
1.1596623366745730799
1.1623519437400753329
1.162241841846975543
1.1621029540412199932
1.1619504199432129088
1.1618026199172670765
1.1616719386474179121
1.1615788881784832043
1.1615276301535308878
1.1615290646542910658
1.1615795598817362233
1.1616728303274683753
1.1598251497904394913
1.1597608220279493896
1.1597701695183038062
1.1597790518716859509
1.1597095142376734334
1.159515161705257702
1.159201568079533784
1.1588139190216772967
1.1584175219631018816
1.1580749363641438254
1.157837018249692207
1.1577425546184028082
1.1578106157685410516
1.1580354635712999389
1.1583765821097933291
1.1587496756208341964
1.1590648172672193272
1.1592435704928887308
1.159226779464029855
1.1590274750103441992
1.1587079225543541749
1.1583621934617511773
1.1580855416335908981
1.1579405535073938882
1.1579404683826468592
1.1580525434967667842
1.1582221576659310625
1.1583927691511055613
1.1585277769343638177
1.1585986060255137886
1.1585850504755879076
1.158473785962889302
1.1582700030045280926
1.1580097923708785324
1.1577587894599963292
1.1575805928670075406
1.161386746211021892
1.1615728583277662445
1.1617528498596283448
1.1619240503723085034
1.1620812654446630585
1.1622182459063301607
1.1623274459091121891
1.162401447156837353
1.1624336494033307154
1.1624204065269618802
1.1623610114360869439
1.1622603269565030537
1.1621283311498495916
1.1619812104012232634
1.1618405330588366109
1.1617216564505497001
1.1616468948791756066
1.1616197812811526191
1.1616512201540669658
1.1617351418587873457
1.161864075375556915
1.1595457555306942776
1.1595315312702905164
1.1595624169516096647
1.1595742661503494197
1.1595016809564331339
1.1593219508800529649
1.1590458019377885002
1.1587166344864898715
1.1583829168280292965
1.1580881648925371863
1.1578735658531023045
1.1577811101869870392
1.1578374039216714486
1.1580354145209119654
1.1583322987254467407
1.1586488681015152391
1.1589009984170450807
1.1590321751078940249
1.1590080324509453025
1.158840437448303673
1.1585753300087133777
1.1582750099372753905
1.1580072620781165504
1.1578283236518867039
1.1577657202978193229
1.1578120313773543337
1.1579359762369185738
1.1580886783553976382
1.1582305921878262023
1.1583132234487885093
1.1583044142504537177
1.1581910151036349799
1.1579931139906656234
1.1577619476474043658
1.1575680396374061765
1.1574714953910674176
1.1613781773425986277
1.1615445088168476762
1.1617055530488329396
1.1618622650692758125
1.1620122921813804684
1.1621505105062606145
1.1622691012712023095
1.1623591912010653449
1.1624115934312622134
1.1624201730423908696
1.1623825240208498499
1.162302255397043016
1.1621883963877108759
1.1620561684077566067
1.161928084651521198
1.1618218729718583493
1.1617620648450637244
1.1617528877563616518
1.1618052607091546857
1.1619104908371662432
1.1620607637342761365
1.1593714714812934918
1.1593937878256153073
1.1593898130914985778
1.1593260410106069891
1.1591981289096275898
1.1590148603060876908
1.1587942457428086485
1.1585431652042337269
1.158283156518061352
1.1580554221316403662
1.157914702062589507
1.1579040353105933825
1.1580284308674277938
1.1582519655888299237
1.1584994059793451981
1.1586952064724649336
1.1587924257519046645
1.158772263635636568
1.1586475282205195292
1.1584477502049272957
1.1582063711130667905
1.15796240725579902
1.1577591483055540422
1.1576338773965226814
1.1576039208556150317
1.1576621975454084446
1.1577796506161939227
1.1579071106719200923
1.1579922972756060418
1.1579914471577974489
1.1578906570558400446
1.157718403538869234
1.1575361068014311527
1.157413346564550638
1.1615238928643336624
1.1616637751703688952
1.1617994688254815738
1.1619319338371021377
1.1620586803269035148
1.1621735679953864029
1.162268189470425428
1.1623322715410480122
1.1623581334628652062
1.1623418318049691944
1.1622862575925958506
1.1621993262281018477
1.1620946132693199537
1.1619926284837895913
1.1619114561224497262
1.1618753264698733485
1.161890184210085275
1.1619654659116185336
1.1620916131321172848
1.1622590823205876109
1.1592677281524996769
1.1592789069378921507
1.1592489052521599557
1.1591910181673614755
1.1591189038325679928
1.1590368871594463052
1.158919612017052625
1.1587429923353229633
1.1585137344086031685
1.1582740667295825521
1.1580895804082815825
1.1580172641504173914
1.1580725660663364618
1.158224055651235318
1.1583941732671356739
1.1585196940157083123
1.1585533260865465977
1.1584961152081874047
1.1583708163629584664
1.1582065992692456291
1.1580221503094694224
1.1578286607522394469
1.1576459343683254133
1.1575008722326645128
1.157416636900676421
1.157404978502750037
1.15745896608158505
1.1575325181591109569
1.1575830173448642402
1.1575744683829138904
1.1574984181965084495
1.157386883229870822
1.1572965664613501513
1.1572858172594839843
1.1616026311344496147
1.1617039589404039024
1.161798680031045361
1.1618911534932214735
1.1619831394038200312
1.1620722417616902167
1.1621529144199171935
1.1622164537694288367
1.1622548814305115883
1.1622622664615249732
1.1622389911056374423
1.1621912903448312626
1.162130105318532447
1.1620720347190760524
1.162031062140062021
1.1620277113104791056
1.1620670388952205609
1.1621582586709655605
1.1622916083518810559
1.162458819170631763
1.1591446507665796872
1.1591120000753749597
1.1590881057817772337
1.1590939099288484204
1.1591064858174302543
1.1590662500930251078
1.1589319606625321235
1.1587002136899491322
1.1584227720651594229
1.1581792071144498824
1.1580428810558440755
1.1580361627574355943
1.1581250545722063805
1.1582374828135830747
1.1583064311476867214
1.1582918623437157279
1.1582035721919761162
1.1580707107992411764
1.1579294626803644519
1.1577977729540922525
1.1576722433540436175
1.157544600260965284
1.1574184357829722103
1.1573127214102230109
1.1572482577762710498
1.1572288102442598312
1.1572362759988636949
1.1572374436857828517
1.1572085671968266318
1.1571472513219267508
1.1570802859575108901
1.1570551056708631155
1.1615528366669034543
1.1616308011056797334
1.1617015354860646958
1.1617706445382911529
1.1618407054215027507
1.1619112345437263567
1.1619777073815407142
1.1620347246713287337
1.1620762759978044976
1.1621001901686727198
1.1621089543059328619
1.1621079824152864557
1.162108585728747423
1.1621193587597566932