/*--------------------------------*- C++ -*----------------------------------*\
  =========                 |
  \\      /  F ield         | OpenFOAM: The Open Source CFD Toolbox
   \\    /   O peration     | Website:  https://openfoam.org
    \\  /    A nd           | Version:  12
     \\/     M anipulation  |
\*---------------------------------------------------------------------------*/
FoamFile
{
    format      ascii;
    class       volScalarField;
    location    "0.0125";
    object      T;
}
// * * * * * * * * * * * * * * * * * * * * * * * * * * * * * * * * * * * * * //

dimensions      [0 0 0 1 0 0 0];

internalField   nonuniform List<scalar> 
106891
(
300.14753110589765583
300.13824241348697797
300.13270412850152979
300.1317626460325414
300.13534112972217827
300.14389609730363873
300.15517931941326424
300.16959748245000128
300.18311247568482258
300.19633708610876965
300.20515371020275097
300.79246238427998605
300.7716825551291322
300.74467211667081301
300.71500675063447261
300.68643039806892148
300.66430887402003691
300.6555844629426133
300.66531626560339419
300.69454826868150121
300.73771886668856723
300.7832591995534699
300.81714270848914339
300.82820641472363832
300.81200867007032684
300.77247281388281408
300.71894339459618095
300.66434954662963719
300.62038493161816177
300.59548616531236576
300.5941803902573497
300.61602232116081268
300.65503226366359968
300.70039750012352897
300.73953808550902522
300.76278040127414215
300.76674382766992721
300.75472911260214914
300.73354361162785153
300.70980764661157991
300.68929443186772232
300.67642477940796653
300.67535918395634553
300.68963760687859121
300.72015840584782609
300.76350832250909662
300.81125798021275841
300.85323186703675447
300.8816192560875038
300.3557435154112909
300.32115736522155203
300.29201352634294153
300.26721065114759313
300.24553835004076063
300.22605855924223306
300.20802482504166164
300.19129029341740988
300.17600750073307836
300.16285929594710069
300.15276537052494632
300.14644354871393261
300.14465143561142213
300.14708688178347984
300.1541047729237448
300.16342020941294777
300.17562485140348372
300.18685799891318311
300.1983159166180144
300.20553270270568191
300.7639784980436275
300.73865134771580188
300.70835231025682788
300.67521051635964113
300.64427951007041884
300.62291566108495999
300.61933480989205236
300.63808189815193828
300.67646201960189956
300.7246942677846846
300.76759059467070756
300.79192209109584155
300.78879418984490712
300.75965427053836265
300.71214801014804152
300.65836425749392902
300.61119135048238604
300.58131116748046452
300.57495872468831521
300.5926114856324034
300.62858617363974645
300.67211427240289368
300.71069524434722098
300.73448119134462786
300.73949331616847758
300.72807948470983774
300.70681741268163023
300.68356471574475108
300.66491232469604711
300.65600325511297797
300.66053660450899088
300.67984887299991215
300.71250358784539003
300.75345965404551407
300.79455657924512479
300.82763376164626834
300.36552311921593628
300.3308801473962717
300.30113583147027612
300.27552731986423851
300.2530905598483173
300.23314381435943687
300.21510906304803257
300.19900506169261689
300.18499471181632998
300.17365729750775927
300.16566939647174195
300.1615086647684052
300.16163970434871544
300.16547403403501448
300.17296974403768672
300.18186195330179089
300.19237575367156978
300.20135977226408386
300.20980953336555785
300.21427715088725563
300.75440249315039409
300.72428366208799844
300.68841928008157538
300.65225855321392601
300.62239320214388272
300.60560895033546558
300.60850585608915253
300.63276807678789737
300.673801675918412
300.7194936723329306
300.75492127182360491
300.76754903852861389
300.75168879848331471
300.71002774606262165
300.65356316801563707
300.59616847278635987
300.5520881402646296
300.53214404227344403
300.54059667174550441
300.57459382230689471
300.62469313104344337
300.676619050664101
300.71618035418754289
300.73394571621508931
300.7278521112962153
300.7032142158909096
300.67048531828646674
300.64102995405420415
300.6241127916446203
300.62461372433898532
300.64314961556738126
300.67593570906672085
300.71592128564572022
300.7550412159030202
300.78639962943066166
300.80569339330639878
300.31026355987859233
300.28729535973849352
300.2681919610054706
300.25194808187865192
300.23769807440839941
300.22466109758181574
300.21266995974872316
300.20171149088957918
300.19220433060041842
300.18463983582870469
300.17946448163479545
300.17720867872458257
300.17754345578845232
300.18072128358483042
300.18493906160273355
300.19053360802604402
300.1949470160560054
300.199304673507811
300.20078385233375684
300.7268811606150507
300.69090921289148355
300.64919898050015945
300.61119675406808938
300.58561610503295469
300.58034366019080608
300.59671010284296244
300.63158030782807373
300.67479159729776939
300.71267986222687796
300.73320594730984112
300.72889557083266254
300.69961236352042988
300.65163339439203583
300.59696152040373818
300.54969879793333121
300.52231774243591644
300.52206360046136524
300.54894839258673755
300.59542463539230539
300.64802943590717632
300.69166166392767536
300.71447725241722537
300.71187138409305817
300.68764569097464801
300.65159142502039913
300.61674392943388057
300.59484511522839512
300.59382562473467715
300.61429667411618993
300.65071933835531581
300.69369268281843688
300.73369296027777864
300.76425532817654585
300.36987586950414197
300.33620586221519488
300.30850722327119229
300.28613821226520031
300.26828144268523602
300.25405073327357286
300.24236607523380371
300.23257775357961918
300.22413161258799619
300.2169220164864214
300.21089450418372735
300.20599208283340431
300.20262117913790689
300.20040791887095111
300.19989696009582758
300.19969449404300121
300.20054139560119211
300.20017924296644196
300.20027087080148931
300.19757015675361345
300.73682824628934895
300.70897841013135121
300.66834985887714993
300.6261295581905415
300.59433897053764895
300.58163393401383701
300.59030956190025563
300.61658003328250288
300.65090458121142092
300.68169151891777346
300.69813724177066661
300.69402568063844683
300.66847278682774913
300.62588298342103599
300.5757902715893124
300.5299308948370367
300.49949970828100732
300.49249962439211004
300.51078649461953773
300.54997841580228624
300.60075306335801315
300.65052269703977572
300.6875518471798614
300.70451866915834671
300.70011783362178903
300.67934962506649299
300.65168991195236003
300.62784310941424337
300.61619991157976983
300.62036376415215955
300.63823043929551204
300.66424204074161253
300.69180666692045634
300.30810651509602849
300.28494196311692122
300.26756647609602169
300.25537186329410133
300.24756622933398376
300.24283007735550655
300.23995943269909503
300.23760743239148496
300.23506993952554467
300.2318220896895582
300.22753990496153165
300.22247981040334253
300.21660504253389945
300.21084931538854335
300.20491139508578726
300.19981368522672938
300.19453180007423043
300.19045355933178598
300.18519980911861467
300.71063721939765401
300.66930845891977242
300.62695406571026524
300.59680208270822277
300.58574225762004062
300.59466587993682651
300.61675969008894072
300.6416611361868263
300.65895249779038068
300.66109893249154084
300.64570808999138762
300.61526734640005998
300.57600150211311529
300.53662359017295103
300.50524153580499842
300.48836983856904226
300.49016007705677112
300.51036176974969294
300.54452045492445222
300.58581039193933293
300.6263239939096934
300.65870545670429692
300.67718513710690331
300.67954922642474003
300.66862518622906464
300.6501414424656673
300.63159208960524893
300.61946621793606482
300.61748967676783195
300.62558808046520653
300.64061880235931312
300.65821966944128008
300.29944108871080743
300.27608258063600033
300.25911512748643872
300.24815701560885373
300.2424543818713687
300.24063677149729301
300.24110868165092825
300.24185466819881185
300.2414740552721355
300.23881264526119139
300.23333020653666381
300.22532680095798696
300.21507280615401214
300.20412051831527833
300.19314116142305693
300.18376519207606634
300.1758646730855844
300.1707225467104081
300.16654657129032557
300.67171684785989783
300.63339185704819556
300.60458942630828005
300.59214983631073892
300.59639467607723873
300.61062338301297814
300.62553307568947503
300.63254306877706767
300.62588257889484566
300.60584415836405014
300.57691036382038874
300.54450934414370522
300.51530361464369889
300.49453566739174448
300.48498606878592909
300.48884706817733559
300.50547557537896637
300.5323860332121626
300.56580796358463203
300.600134001552874
300.62972698847545416
300.65042272856169348
300.65930858412531279
300.65569968522027011
300.6429898836428265
300.62578020396307465
300.61040636984739649
300.60178684710547259
300.60341094174708587
300.61436965132770638
300.3018306951733507
300.28063014679599974
300.26668297836886268
300.25933327875708301
300.25708826726543066
300.25809269898547882
300.25985361301110288
300.26026228473330093
300.25755823612888662
300.25073394156970608
300.24000671545451269
300.22569829372082495
300.20968961949415643
300.19318711046537373
300.17849434429740541
300.16616470487798551
300.15818537367505314
300.15284169361092381
300.64709687091959722
300.61628176583110417
300.59664652548497088
300.59012107406977066
300.59369084684539075
300.5999984531207474
300.60143371614736907
300.59426936407311359
300.57838644567073061
300.55761154087332443
300.53707109557751664
300.52022207705016399
300.50752467169729698
300.49894694672889273
300.495405509484101
300.49900411104340492
300.51203551090395649
300.5350343309892196
300.56576093545413642
300.5994526071257269
300.63035380146772013
300.65346315386886999
300.66487928689156206
300.66311828287729213
300.65016832374709566
300.63152807216079054
300.61431346469777282
300.60523236217511567
300.30706945771095207
300.2824479963783233
300.26600896735914148
300.25742069833182768
300.25529863023655253
300.25770267933324931
300.26196760850103828
300.26556849589712783
300.26621374371978845
300.26228907132741597
300.2535730201707338
300.24005355702382758
300.22356830778983294
300.20540109373325777
300.18821980928635185
300.17315483382560615
300.16285728018289092
300.15637433956482027
300.65966777866168513
300.62607333362421969
300.60072098217040093
300.58481296207133937
300.57550847340587552
300.56774957768976719
300.55696106088635133
300.54359057993229953
300.53076125289959464
300.52204302963951932
300.51616840887504623
300.51106376776266416
300.50430336150515132
300.49656307804320932
300.49331009450196461
300.49993888428616629
300.5185652683957187
300.54723469488885712
300.58095291551103401
300.61348430341183757
300.63807663321443897
300.65066068718380166
300.65064680653290452
300.64017424561052394
300.62370668019264031
300.60890909538227334
300.60243004347552187
300.31146804756224356
300.29234916531578392
300.28038540791789046
300.27464286011576178
300.2735800879027579
300.27491891794079493
300.27637853464739237
300.2756348624450311
300.27095380538889913
300.26177455131642091
300.24793174213334623
300.23101357510608977
300.21247334947173613
300.19490014157759106
300.17991372659696481
300.170034822308196
300.1655090825129264
300.70397625724137924
300.65930820790526923
300.61521671291552593
300.58219591126112391
300.56406054362196301
300.55740655136764872
300.5542565570740976
300.54860133052227411
300.53940987247449357
300.52909278521616443
300.52017649125275511
300.51351483531988151
300.50615941714926294
300.49827523082916514
300.4926734902266503
300.4954469895583884
300.51127017359499405
300.53996426073848625
300.57633974918405784
300.61119726697393162
300.63645729473307711
300.64854124365871257
300.6492216747694215
300.64282022634898794
300.63473019924651908
300.62911768071779761
300.62807049299476603
300.28496500117967116
300.2786639108323925
300.27815194356435313
300.2817327126755913
300.28706756843035919
300.29189975849095617
300.29410602247128281
300.29218019741028911
300.28564910506611341
300.2743374140724768
300.25960859244048606
300.2427306713242956
300.22610815975997411
300.21128342298544567
300.20101040794423852
300.19568293682590365
300.73034217543141722
300.68055188108314724
300.63116054585054826
300.59395022255409913
300.57415910454068353
300.56743245506368112
300.56442143658972554
300.55751706352998553
300.54460516998665298
300.52840722096755144
300.51282381246670639
300.49936224869196622
300.48836306317116396
300.48068568895257613
300.47982552505931153
300.48991309179371001
300.5141868297214387
300.55106742553329013
300.5927658921937109
300.62923268478613181
300.65223008100559809
300.66136498218514816
300.66027776409907801
300.65582092757261989
300.65355790343022591
300.65509764632406586
300.66047099258008757
300.66892402976930043
300.31649650044533928
300.31392897524318641
300.31473587085167765
300.31678176973628069
300.31824950145409048
300.31763119490847203
300.31398610088427858
300.30720435619389264
300.2973347685519343
300.28558402953484574
300.27276112746210401
300.26061666753037116
300.24997675440050671
300.24302541930904908
300.2396835025745645
300.67503876951650454
300.62523102847791279
300.59003033205061683
300.5735331065904461
300.57114842942684163
300.57230836874242641
300.56742981004566673
300.55241520119687948
300.53030970921230391
300.50635377942654713
300.48496748630742559
300.47069817670347902
300.46631488709209634
300.47375337993031508
300.49476284780098467
300.52901772715023299
300.57149181374347791
300.6135923271188517
300.64645367537377751
300.66474540460649223
300.66992353379913538
300.66840581428971291
300.66685334487334558
300.66959009623502652
300.67711552213387449
300.68731777763963464
300.69763962492532983
300.35189343071795065
300.34980809001194757
300.34869055671941851
300.34685065901970802
300.3430747639804963
300.33691298245213375
300.32861270313196655
300.31862631548699483
300.30806538612051781
300.29774061465906243
300.28881107529576866
300.28185701108264993
300.27782017785392554
300.27675415301786188
300.60555262794872533
300.5787841015826416
300.57085201086232473
300.57421400394690636
300.57693401324962679
300.56893958524420896
300.54676296372838351
300.51402792273000841
300.47858980712754828
300.44997125437407703
300.43591812132899577
300.44116584046895468
300.46675909969462737
300.51004459411353764
300.56481737088199679
300.62110928794282927
300.66842581293462899
300.69881565058346951
300.71146505351703127
300.70915444806666983
300.70034454481526609
300.69286514092715379
300.69044083343203511
300.69313344839474667
300.69875408814266393
300.70479799457410763
300.38584173089361684
300.38324525793416342
300.37888358731430571
300.37186675103492917
300.36227645505493911
300.3508761920754182
300.33874384805841373
300.32725023126556607
300.31729627881355782
300.30971265706625672
300.30474906280431924
300.30264081016190403
300.30308005380658187
300.57140133607509824
300.5658281264839502
300.5699601119848694
300.57264099330831186
300.56464710097196757
300.54248948794918306
300.50948936010837542
300.47441126909006925
300.44677623487967821
300.4351218654565514
300.44421299094642563
300.47502488997184855
300.5237106993939733
300.5816031390580747
300.63810546396757672
300.68362473817023783
300.71312308034180205
300.72726751892884067
300.73136288804499827
300.73057869266932585
300.72957002018631556
300.73034526040135006
300.73192158872512891
300.73255384358901665
300.7314417239634281
300.39306164692322909
300.39123826623449531
300.38622799866044488
300.3783495899775744
300.36854725399030031
300.35817170119958064
300.34863852675624685
300.34083152391241356
300.33539342077580159
300.33220637015477905
300.33114132939755336
300.33141937441507707
300.58107064802834429
300.57734859699115759
300.56876483252813159
300.54975455060690592
300.51979374692774627
300.48394522488706571
300.45046030101963197
300.42768246074098215
300.42258143605022269
300.43875555403070621
300.47596209803430156
300.52909404037791319
300.58868894348228196
300.64454067789762348
300.68902157830120814
300.71977039687703837
300.73898274577408074
300.75113947069439746
300.75979047795203769
300.7660313250075319
300.76938448460163045
300.76946469170724185
300.76608954669376317
300.75989865519193245
300.54739683414641149
300.53021914467279885
300.50692987313368576
300.4798174014404708
300.45374687667134594
300.43428367416413494
300.42710320611757879
300.43591363911883718
300.46247410505998232
300.50514185140019663
300.55840232418319147
300.61381658920953441
300.66344332986790278
300.70237096134889043
300.73084586221148129
300.75171130746150538
300.76832830324360657
300.7821940820192026
300.79210078761798286
300.79669458313873065
300.79620823209495484
300.79079105507537406
300.78324978453520089
300.48848537262506397
300.4538193414823013
300.42676080089734114
300.41226890347542167
300.41347379165785014
300.43163548491389747
300.46548270995322127
300.51143830989497019
300.56325199795782055
300.6138371897419006
300.65747678133010368
300.69248163188331091
300.72075925513019001
300.74552177879257897
300.76856371598654505
300.78915622096519655
300.80438489532656376
300.81229986385795883
300.81321412148457739
300.80900109954194477
300.8018775924313104
300.4079892384276036
300.43337867597597324
300.47180432107376191
300.51784978497880729
300.56540768801681907
300.60862885985193316
300.64464860687712644
300.67447817523043341
300.70176160171502033
300.72947007083195103
300.75843650179859878
300.78600660821723523
300.80886223083388131
300.82510873289987785
300.83456737141733583
300.83945314299944584
300.83996914094979047
300.57535052925322816
300.61474783315537707
300.6460382230968662
300.67183035477620479
300.69643353681135522
300.7228769141922271
300.75086938426545657
300.77790070526270938
300.80129832313900806
300.82036836883480646
300.83658228260816259
300.85134069232276488
300.86430116472121199
300.61358279267506077
300.64255517615328017
300.66743161615062263
300.69275086651350648
300.72102900761706223
300.7513196022796933
300.7800727255070683
300.80453048474799971
300.82407007288315981
300.84003719854172232
300.85427774750263552
300.86550258954673609
299.76813583334615032
299.74331970918768775
299.69749710249163854
299.63746256372991184
299.5724390360965117
299.51441926775112279
299.47536404477790484
299.4609776036335802
299.4656615117797287
299.47358006115604212
299.46738386383185571
299.43882476513874735
299.3931299398821011
299.34586529480048966
299.31583767590410616
299.31863057247602455
299.36211490223132614
299.44388330978352997
299.55087383060941875
299.66213178636053271
299.74256204212184684
299.75861751555430601
299.75295318385030896
299.72387411333210139
299.67378922606877723
299.6097531628897741
299.54350162130884883
299.48955513507496562
299.45915389364910197
299.45251453819486187
299.45763555337322259
299.45674378684458361
299.4368503623027209
299.39684869138665135
299.34718751806559567
299.30477187893910695
299.28715749172135929
299.30698295837061096
299.36751898226447111
299.46081407371974592
299.569262059457742
299.67175294361510396
299.65605953489483682
299.69231440756738039
299.72399714326473941
299.74553985855271776
299.75065352649318129
299.73511719551925125
299.69802431785404906
299.6430816113736455
299.57902657738463859
299.51973528846730233
299.47919561312420456
299.4624894772581456
299.46223819822409951
299.46277909323214317
299.4494762694866381
299.41725836517150583
299.37236044071454444
299.32878950479522473
299.30337040224452494
299.3099063065478731
299.35429743238114497
299.43209640717321918
299.52962050052917675
299.62929643239198185
299.71531608971957894
299.7765016660529227
299.76818457413969554
299.80366374670114737
299.82749582742559369
299.83999825365850711
299.838846798603754
299.8223103306985422
299.79210469324834776
299.75224568407969628
299.70723787166974716
299.66236040637687665
299.62528408784908152
299.60400994639303462
299.6003359070841725
299.60676767805762211
299.61049741542336733
299.60140304192327676
299.57893099983891716
299.55249180436459255
299.53613095469717109
299.54259201275959867
299.57806980425499432
299.63972280507073265
299.71649896009915892
299.79318300010248777
299.85667895829874396
299.90044244565143572
299.92361745962438135
299.92793000353037769
300.12281301812936363
300.14807330116684625
300.14592400495291713
300.12177593935820141
300.08464227832195093
300.04354176159586132
300.00686231867427978
299.98190995544661064
299.97119278781303819
299.9701615472046683
299.97165673372154515
299.97300327513710272
299.97829246168350892
299.99317524807918289
300.01841337976799196
300.04912152857446017
300.07847410501341301
300.10251105014509676
300.12181459149667262
300.13913259397310185
300.15689508921133211
300.1757482576974212
300.19397876856868379
300.20856861313336594
300.21735300647713984
300.22172632672157988
300.22687672295012362
300.23725190799837037
300.25196250104988849
300.26429592349074937
300.40312027590596244
300.45087293062738354
300.48718920185183379
300.50701721761794261
300.51247293616512479
300.50766064048343651
300.49590850928575492
300.48262634409257998
300.47458311428238176
300.47638826744952212
300.48562603259114212
300.49632959311503555
300.50567248450738589
300.51656094447520218
300.53322244171516786
300.55473464702060937
300.57463000021959942
300.58575759621777479
300.58568374906900544
300.57887439660009932
300.57349195121179264
300.5766334037997467
300.59140073914761615
300.61513307309149923
300.64096908753185744
300.6619189997973649
300.67567450864805778
300.68605136920473342
300.69839888418283635
300.71367663659532354
300.72673152456161461
300.72958961803180955
300.72129620956064855
300.76643493380345262
300.79482558681030469
300.80368160422801793
300.79787912109082981
300.78380211485409745
300.76530330890250298
300.74681773170777888
300.73436455257478883
300.73172303824424034
300.73667787195461187
300.74296852484627607
300.74777963215626642
300.75430187310684005
300.76694161536551064
300.78455385892397089
300.7996362860840236
300.80419451341737158
300.79565676212411063
300.77929177802877803
300.76471035684141953
300.75949078183526808
300.76625669017352038
300.7812791216521191
300.79686238796983844
300.80666236371365585
300.81038055031092426
300.8140959445390763
300.82434392710399607
300.84111974587199256
300.85634176944489582
300.85921632063974585
300.84461969921130731
299.80069450735123837
299.82456786049573338
299.8436781780571323
299.85178312696558578
299.85120067824544776
299.85411867671280106
300.63713359258645141
300.67783655647167507
300.70076925057259132
300.70238894172467781
300.68826117307236245
300.66495498589949875
300.63701599172208034
300.60910825135437108
300.58801218786283016
300.57822311709486485
300.57763343652499088
300.57943349363625885
300.57998388664088907
300.5819301777481769
300.58937570737737133
300.60116269014974932
300.60970805806783801
300.60698549496663645
300.59072526922403767
300.56656987477992971
300.54507884990226785
300.53441040499558312
300.53708451975364824
300.54884533736020558
300.56099940197373144
300.56662114824547416
300.56529706720777995
300.56352696373414801
300.56841863270437898
300.58026703887719577
300.59056974872760293
300.58829102726400606
300.56770410303431618
300.53481920411940109
299.90715939483504826
299.93325776588835652
299.95188394022937928
299.96408852168838166
299.96357237808649643
299.95361767937964714
299.94757137376620904
300.26182527775182507
300.29577400663077924
300.31150948006614954
300.30533599228181174
300.2827615290657377
300.25080771625800935
300.21404457090011419
300.17757612839858439
300.14816307654996308
300.13064978060350541
300.12260786416339897
300.1170068435562257
300.10987819833013646
300.10409389299462646
300.10402518362838009
300.10876565745604694
300.11041755396138342
300.10063431522411292
300.0771529430627993
300.0457016163887829
300.01722042490814601
300.00021924260727246
299.99690811836438797
300.002611882710994
300.00823870039118901
300.00670736526785731
299.99807087793288929
299.98938153810144058
299.98818035867606113
299.99472534341862229
299.99998236266804952
299.99206748396375133
299.96545606707792331
299.92604754852357019
299.88925516974302354
300.20368876161199978
300.179896331200041
300.15386920351392064
300.1271806041495438
300.10119669837695255
300.07876593964846279
300.06002826527588923
300.04811201267256138
300.04246129778783825
300.04404714191304038
300.05127411327310938
300.69146400790305051
300.68196826538553523
300.66377223937473673
300.63916622384692801
300.61232407682871326
300.58951421158934636
300.5779482551515116
300.58228507549063124
300.60219703417891424
300.63160646355294148
300.66101661889268826
300.68148489689332337
300.68741049647979935
300.67814917196852775
300.6571789572325315
300.62935406470165844
300.60158810777664939
300.58069438283598629
300.57038474894591218
300.57444052401314138
300.59374773915192236
300.62603322824287488
300.66589717103670409
300.70519315185094911
300.73482619556864393
300.74738934306509464
300.74023411295155483
300.71635284761407547
300.68417261330591828
300.65315731023463286
300.63093068749179793
300.62099438062705303
300.62324066485336971
300.63596561107596017
300.65763536230997488
300.68605188978426668
300.37827632854731519
300.34417863415382044
300.3180760097876032
300.29874340067976846
300.28467765246659837
300.27408981133311272
300.26515714004148094
300.2559743356381432
300.24492849845876208
300.23068367968511438
300.21259751580691955
300.19052225402214162
300.16531717322868644
300.13871137777124432
300.11241670785238966
300.08976532673403881
300.0711449072990149
300.05998377267866317
300.05561882260496986
300.05925353040407799
300.06889866710815795
300.67957096788933313
300.67704215876733542
300.66100656577572181
300.63553180661949682
300.60666877742596625
300.58328760752823428
300.57289740083848528
300.57967268326393651
300.60153525114282047
300.63089496964011005
300.65813337185238652
300.67560295424658534
300.67913347341107055
300.66797392005292977
300.64473702597877036
300.61378242559743512
300.58163369786666408
300.55680327465807977
300.54568915998470402
300.55248095050149004
300.57706035771360575
300.61430885444138994
300.65603146813140256
300.69318276935246104
300.71783780156749799
300.72504175530377779
300.71459399882064645
300.69048137157977862
300.66103845966790686
300.63379621200328984
300.61502583442495506
300.60785399244645077
300.61305311506333737
300.62963032017802334
300.65568203795527324
300.68804157382629683
300.38411582617527529
300.34683983935343576
300.31735944752824707
300.29493968535234671
300.27847411028483293
300.26639612039446092
300.25693762526731234
300.24810349301583301
300.23808713885637189
300.22531530855223991
300.20900780245710848
300.18892765344071449
300.16577971873277875
300.14124563959239822
300.11705364864877765
300.09672457672780865
300.08079331092693565
300.07274009122522784
300.0715874550108424
300.07850282886863624
300.09100649767412961
300.67611072286501894
300.66211543257708172
300.63319955238404191
300.59894073202247
300.5716324499094867
300.56091886109726374
300.57091222160426014
300.59726057899757734
300.63106999475462544
300.66233515574555213
300.68308327678266778
300.68839322674222103
300.67623515339687401
300.648048863170402
300.60789094632366414
300.56381153537262207
300.52709007777974648
300.50807864972199468
300.5132875661718117
300.54232056283956354
300.58737648390149388
300.63646014352156044
300.67760778131082589
300.7021320696744624
300.70618954980341186
300.69130286600380941
300.66349600282870824
300.63071185725482337
300.6011474838546178
300.58094766541353238
300.57400818810884857
300.58224261193271332
300.60532274993994406
300.64033504564497434
300.34461674193357794
300.31101084635679399
300.28501154034114506
300.2659461597576751
300.25255910729168818
300.24325195978860847
300.23599969974242185
300.22883560379176515
300.21984978280522682
300.20801919293143101
300.19282696885727546
300.17472027944324964
300.15496965545582952
300.13506289999492083
300.11812419851139566
300.10492007495690814
300.09864323031069944
300.09847527450511961
300.10532791285800158
300.11702998758977401
300.67662726750148749
300.65940274201943794
300.6253665174579055
300.58945221445918605
300.56602694049985303
300.56433381927337223
300.58388616105168012
300.61693608319234272
300.65280086708452245
300.68130853063513541
300.69546582410123392
300.69185363684977119
300.66981023654176397
300.63170155390821492
300.58190785094075181
300.53031854241226029
300.48856163384459705
300.46908883706299775
300.47908479994111985
300.51734340126785128
300.57361290035026968
300.63228899977605124
300.67874918648351468
300.70355007590035257
300.70405774858073755
300.68420062868972309
300.65218546801304456
300.61564396437739788
300.58277743837032858
300.55971558178498526
300.55054879304384485
300.5578152407010748
300.58140706963911271
300.61804302805643374
300.31895354906509965
300.28472061230354484
300.25785996244843545
300.23810490924773831
300.22467936260619581
300.21634935260902921
300.21134284684922022
300.20778997244957509
300.20364878096035
300.19756781461785522
300.18869279237389947
300.17709494867477815
300.16374449681762826
300.14961921798732192
300.13726412937802479
300.1272854912486423
300.12265063232985085
300.12268640247208396
300.12854157941387712
300.13842465732221854
300.66125310022869144
300.62260745725501465
300.58624786334024748
300.56820219914732206
300.57526637710560635
300.60314263023036574
300.64161383561361163
300.67809790461058128
300.70278965014944106
300.70989777593047165
300.69786110139756374
300.6671511611934875
300.62036204226086511
300.56289559374880582
300.5045534238372511
300.45772984679325646
300.43568804001870376
300.44604631482087598
300.48825767060651515
300.55208668950700712
300.62051858062540077
300.67590947227762399
300.7059689901275874
300.70696582253509632
300.68314179700212208
300.64359060082000497
300.59911343679453921
300.55958582036851112
300.53329146745727485
300.52563250003174744
300.53874128476502392
300.57105711364653189
300.3184062483442176
300.28341416582992451
300.25557787747283101
300.23459264491594922
300.21977148341244401
300.20985899754856518
300.2033765934588132
300.19845849008430605
300.1936141955566768
300.18766726292545854
300.18009264704670613
300.17134158106307495
300.16173771302800333
300.15323584829098991