/*--------------------------------*- C++ -*----------------------------------*\
  =========                 |
  \\      /  F ield         | OpenFOAM: The Open Source CFD Toolbox
   \\    /   O peration     | Website:  https://openfoam.org
    \\  /    A nd           | Version:  12
     \\/     M anipulation  |
\*---------------------------------------------------------------------------*/
FoamFile
{
    format      ascii;
    class       volScalarField;
    location    "0.00514";
    object      alphat;
}
// * * * * * * * * * * * * * * * * * * * * * * * * * * * * * * * * * * * * * //

dimensions      [1 -1 -1 0 0 0 0];

internalField   nonuniform List<scalar> 
75962
(
6.1401583827375631562e-07
7.4796329278183461036e-07
8.6863932089689253223e-07
9.1661832513929469753e-07
9.4621175857807671798e-07
1.0060633064606468763e-06
1.1534563589759451453e-06
1.3088434035748326317e-06
1.3907934990059704329e-06
1.4470145658436571778e-06
1.5376207416667278644e-06
1.6715845414459102762e-06
1.8000865696590282826e-06
1.8966360516360906052e-06
1.9740821340187626973e-06
2.0633654092963414667e-06
2.1875704210222212596e-06
2.3259380066527935231e-06
2.4305825345197517291e-06
2.4838143729019243702e-06
2.518910565667624837e-06
2.5852035658821640121e-06
2.6921947690662394687e-06
2.8072871881646732672e-06
2.8981874467262571e-06
2.9523178495480649807e-06
2.989875084809546436e-06
3.055212091211115247e-06
3.1824209079285475264e-06
3.3576805307218431162e-06
3.5315104966908777072e-06
3.6621763826683500159e-06
3.7497250869055371051e-06
3.8190033939345595197e-06
3.8836685960098837992e-06
3.9360235637401917225e-06
3.9665700282996061126e-06
3.9826984081610151899e-06
4.0050421224776409226e-06
4.057097253242131747e-06
4.195751892669687225e-06
4.3615995501435129463e-06
4.4713592767744982919e-06
4.5225461281810091854e-06
4.5625064511983028475e-06
4.6541041892818069023e-06
4.9390075214894174638e-06
5.3313124267364630311e-06
5.5575589818386940329e-06
5.6329654550722907136e-06
5.6355690578654175579e-06
5.6218142323373580476e-06
5.5997370493899502222e-06
5.5914200609333412396e-06
5.5897093635300666625e-06
5.5988917018726499231e-06
5.6523234385573703078e-06
5.8083937714329199233e-06
5.9348935669244613734e-06
5.984937350918118743e-06
5.9881670429687636412e-06
5.9824340054991828779e-06
5.9891866525219150693e-06
6.055047096664050326e-06
6.2285414532658210445e-06
6.3765689596498070614e-06
6.4924269255892478188e-06
6.5883194535312178088e-06
6.6608677953980836769e-06
6.702277724158396281e-06
6.7195268178460850901e-06
6.7374058719849729847e-06
6.7920065077742596194e-06
7.0059512253633567208e-06
7.4259068944465237317e-06
7.6974055611345117318e-06
7.8033502932346803335e-06
7.8119026912229740442e-06
7.7921227413249833738e-06
7.7733033423686577728e-06
7.7794384361534320662e-06
7.8701207885017347379e-06
8.1374409190404484692e-06
8.3445453936704588947e-06
8.4389322335259000287e-06
8.4590137006889663975e-06
8.4557986529160019507e-06
8.4528764697003142155e-06
8.4674459985974815995e-06
8.5322374652311579164e-06
8.5642291111194853565e-06
8.5534045563143527044e-06
8.5012328812633139289e-06
8.4252890117452370434e-06
8.4025877907193687695e-06
8.4092467948129000747e-06
8.4879610659052914405e-06
8.6113110503367558336e-06
8.6751786731956548706e-06
8.6996800035802483752e-06
8.7061815797653374204e-06
8.7070748564349610395e-06
8.70509874615625322e-06
8.6988340003825540973e-06
8.682254337233703725e-06
8.658676914458646851e-06
8.6375285718584681881e-06
8.6206760293450342917e-06
8.6077375739365503607e-06
8.6001866851795838264e-06
8.6075652354850794258e-06
8.6557686731699770273e-06
8.720664080611791074e-06
8.7661292847485295244e-06
8.8029894483385777936e-06
8.8457834736707151524e-06
8.9013143180046648924e-06
8.9653516604461713693e-06
9.0261426146765866947e-06
9.0724180762179869807e-06
9.0992838474234578379e-06
9.110929425476210178e-06
9.1170183972890777831e-06
9.128841655243334532e-06
9.1592902955328614061e-06
9.2313546705245068684e-06
9.3149189215723247936e-06
9.3914391672196278896e-06
9.4528902522351087695e-06
9.4980077543691542356e-06
9.5325346477330627617e-06
9.5643916805678269154e-06
9.6001352062448118077e-06
9.6419604337873841571e-06
9.687417905707261325e-06
9.7312124156612090953e-06
9.7670784974337590881e-06
9.7922914863545274032e-06
9.8083758818317160968e-06
9.8208587070939457915e-06
9.8377667796239879391e-06
9.8664861742474296857e-06
9.9108287596564910579e-06
9.9701437329434442278e-06
1.0039066488455467967e-05
1.0109702479500722838e-05
1.0173864320215056869e-05
1.0225552190870895115e-05
1.0262554707511258847e-05
1.0286389656489735027e-05
1.0301936824858409612e-05
1.0314846289294342678e-05
1.033072563841727138e-05
1.035314611670359472e-05
1.0383529237773888955e-05
1.0421130347461208724e-05
1.0464301239948459068e-05
1.051037007986966035e-05
1.0555919642911492062e-05
1.059814594991897393e-05
1.0634282580059378596e-05
1.0663413566921884956e-05
1.0686569286116454392e-05
1.0705776164729574455e-05
1.0724433419011602202e-05
1.0745132554184199994e-05
1.0769647346489744913e-05
1.0799208751544947925e-05
1.0834253218796433839e-05
1.0874361343863745411e-05
1.0918609699432494688e-05
1.0965696957424862166e-05
1.1014009122987575805e-05
1.1060985039954220838e-05
1.1103879422595167489e-05
1.114082454168171255e-05
1.1170084878549120015e-05
1.1190869137445534287e-05
1.1203884300329079721e-05
1.1210314734907931579e-05
1.1211951756134890299e-05
1.1210517260936827757e-05
1.1207299056330402359e-05
1.1202839303799100703e-05
1.1197101636531330555e-05
1.119012193472690924e-05
1.1182282547074413507e-05
1.1173654640483987054e-05
1.061872306992623075e-05
1.0606527014259291142e-05
1.0594533622647135023e-05
1.058265569203326819e-05
1.0570859810187669878e-05
1.0558982620135613461e-05
1.0546546068159949025e-05
1.0533022457437601183e-05
1.0518284322487384702e-05
1.0502856341522632646e-05
1.0487582993704584668e-05
1.047314657739155074e-05
1.0459776614570438866e-05
1.0447313621127911375e-05
1.0435318183982323015e-05
1.0423339877185308289e-05
1.0411177243247110092e-05
1.0399078493784878418e-05
1.0387454497033901299e-05
1.0376528481607956168e-05
1.0366037516663710957e-05
1.0355477986932540687e-05
1.0344314739903140833e-05
1.0332348467775946452e-05
1.0319595380915058187e-05
1.0306428234675910953e-05
1.0293206658141940051e-05
1.0280344946871796644e-05
1.0267843043766669578e-05
1.025565001232230054e-05
1.0243439138464578443e-05
1.0231213001493932462e-05
1.0218838947369614085e-05
1.0206523544717502434e-05
1.0194162328199191111e-05
1.0182013023586641048e-05
1.017001497966911564e-05
1.0158448210214546863e-05
1.0147144251149483864e-05
1.0136221911076659876e-05
1.0125336999477484675e-05
1.0114536755426025303e-05
1.010346462046809402e-05
1.0092226717149888355e-05
1.0080472324828256201e-05
1.0068370614200133925e-05
1.0055511335590263216e-05
1.0042161561251452712e-05
1.0028140163428204661e-05
1.001411454441468171e-05
1.0000117119513776443e-05
9.9867729440582326048e-06
9.9738273457693520845e-06
9.961547930195793627e-06
9.9493350901893192709e-06
9.9372459791267224222e-06
9.9246823225182309179e-06
9.9120397491439729548e-06
9.8990986143091366008e-06
9.8864395093768212122e-06
9.873776365164402258e-06
9.8615431469576732022e-06
9.8493342569218747062e-06
9.8374719724015391621e-06
9.8253503672083193225e-06
9.8132493297065720385e-06
9.8006790631347561648e-06
9.7882856397356905184e-06
9.7758683031387852631e-06
9.7641631102070426489e-06
9.7527585673324894211e-06
9.7420420747471550723e-06
9.7312337619629291481e-06
9.7205424120360408777e-06
9.7091431107715731421e-06
9.6974568009734177823e-06
9.6849353022508985294e-06
9.6723488839842684806e-06
9.6593188980300278933e-06
9.6465219652936483687e-06
9.6332965253589570486e-06
9.6200981825504172423e-06
9.6062991615872153975e-06
9.5926431041204658114e-06
9.5787919062325619534e-06
9.5655746308382763517e-06
9.5524717883042865944e-06
9.5400134502998678882e-06
9.527507393806846183e-06
9.5154136845526861066e-06
9.5031379237547861262e-06
9.4912039500162477887e-06
9.4791530721813478899e-06
9.4674873384158762438e-06
9.4556880067517492139e-06
9.4440097377135496392e-06
9.4317356564249187447e-06
9.4190869343914304299e-06
9.4055440284427483901e-06
9.3916913354497082384e-06
9.3773023280977340108e-06
9.363114179032454976e-06
9.3488708579580806886e-06
9.3352439926456384973e-06
9.3218241184217943279e-06
9.3091751439114691719e-06
9.2966513595151244854e-06
9.2846805283195972883e-06
9.2724597133537798541e-06
9.2604448680101728801e-06
9.2479646523509929917e-06
9.23571544785977673e-06
9.2232090463209704778e-06
9.2111499225118241378e-06
9.198968262573114138e-06
9.1872415276327584646e-06
9.1753817852139382406e-06
9.1639521351577382484e-06
9.152376375644123016e-06
9.1411503733040197218e-06
9.1296860173518460638e-06
9.1184267490488655008e-06
9.1067704304624167631e-06
9.0951377143185273478e-06
9.083027890531089084e-06
9.0709321335765560955e-06
9.0584685326288698229e-06
9.046038039577597594e-06
9.0332593874988589269e-06
9.0205831439278043402e-06
9.0078049043583207397e-06
8.9954596533850219648e-06
8.9833727965718652254e-06
8.9718641961729774203e-06
8.9606769224256776357e-06
8.9498703933396611909e-06
8.9390654484598166174e-06
8.9281884927973456699e-06
8.9169413537352208894e-06
8.9054992626263552221e-06
8.8937362932020803719e-06
8.8820587323800999601e-06
8.8702905379985547444e-06
8.8588831529274187889e-06
8.8475360722583712853e-06
8.8366756092133188556e-06
8.8258565060881058771e-06
8.8154549814180766009e-06
8.8049723187506271916e-06
8.7947855288157673442e-06
8.7843747238091206167e-06
8.7741178075816586834e-06
8.7635783760361146851e-06
8.7530540273362164821e-06
8.7422492412236854409e-06
8.7312655990057775999e-06
8.7200425623227046957e-06
8.7086813108339711828e-06
8.6973055696207996759e-06
8.6861159688409072572e-06
8.6750299359295210535e-06
8.6643665543955186611e-06
8.6536703110199266896e-06
8.6434163325663224874e-06
8.6329981461625041414e-06
8.6228953390030495181e-06
8.612688992956878318e-06
8.6026056868891017889e-06
8.5925313638752635518e-06
8.5824694958840037949e-06
8.5724393209360668961e-06
8.5625119909110866906e-06
8.5525850035460753524e-06
8.5428089330723491908e-06
8.5329936703485290611e-06
8.5231871704719496338e-06
8.5134729191435801454e-06
8.5037369199948403939e-06
8.4943403209202859145e-06
8.4849865630539667309e-06
8.4759187114114126183e-06
8.4667409763722313397e-06
8.4575436846371589199e-06
8.4477451387397804408e-06
8.4378737763952618738e-06
8.4272585226323167354e-06
8.4168181876870255045e-06
8.4061022191513228344e-06
8.3958630102352081531e-06
8.3857560451424971367e-06
8.376399666629680293e-06
8.367172576934366022e-06
8.358825002087189523e-06
8.3502322456094640082e-06
8.342259529472400217e-06
8.3335187790940472969e-06
8.3250214330995348948e-06
8.3153807154890527534e-06
8.3059843099687756296e-06
8.2955523870148434133e-06
8.2856903384984691781e-06
8.2751219035723767116e-06
8.2654229405915740405e-06
8.255057920315988807e-06
8.2454121342786035814e-06
8.2349762564858599879e-06
8.2251841303208538209e-06
8.2146778298192979473e-06
8.2051588396451131019e-06
8.1951488339980319302e-06
8.1862392556714754806e-06
8.1769252499184310646e-06
8.1686647768152069004e-06
8.1598224787137410986e-06
8.151977336878421442e-06
8.1431759243993511881e-06
8.1351927963733833147e-06
8.1260149911399294818e-06
8.1176536096956571173e-06
8.1080836138824424032e-06
8.0995656294348862688e-06
8.0898370876464491849e-06
8.0812966828099139086e-06
8.0715858536898009423e-06
8.0630471515396719769e-06
8.0533665504261446529e-06
8.0447043606752876655e-06
8.0349312084582791879e-06
8.026232473948282048e-06
8.0165769365906587503e-06
8.0082727526988973599e-06
7.9990796645614389772e-06
7.9912117332903789157e-06
7.9822503507859045887e-06
7.9743337397334777269e-06
7.9651135703023315476e-06
7.9567748718923905017e-06
7.9468956140952781448e-06
7.9379765076337115853e-06
7.9275223164679873655e-06
7.9182640621175151644e-06
7.9078032514193151415e-06
7.8989321990063395126e-06
7.888977573733572932e-06
7.8807860721717243698e-06
7.8715513037554443417e-06
7.8639769331351734127e-06
7.8552703973955060137e-06
7.848114866086391232e-06
7.8396241712794107457e-06
7.8323696243995086962e-06
7.8234984651279616645e-06
7.81569982454557538e-06
7.8061277195605350291e-06
5.4465939513673190685e-07
7.1559104878346228476e-07
8.6910091530072962872e-07
9.8218819536609245672e-07
1.0682318935618743972e-06
1.1534865469128776409e-06
1.2372799932813002241e-06
1.3167110494902236895e-06
1.4174906388625653155e-06
1.5523011505006950315e-06
1.688647343144499288e-06
1.7969838026594765749e-06
1.8880220787886872088e-06
1.9917677632371575642e-06
2.1105680493404672183e-06
2.2296941366519124735e-06
2.3480807654479190844e-06
2.4607317739224878715e-06
2.5415156059302500186e-06
2.5843850252661406918e-06
2.6257526483292714462e-06
2.7081283142683759997e-06
2.8357166255192920474e-06
2.9712269256210680358e-06
3.0741813468788428745e-06
3.1299504296694344507e-06
3.1566903017057919623e-06
3.1918260196335269896e-06
3.2740890553712337068e-06
3.4500143746279477155e-06
3.6467743954409957845e-06
3.8127359008592777982e-06
3.9317382096908392135e-06
4.0116195814100389492e-06
4.0644126387469694484e-06
4.0970322183373991559e-06
4.1156200223836322634e-06
4.1348471287215226311e-06
4.1755373584322284968e-06
4.2780602630433351802e-06
4.4522307920641841455e-06
4.6178227821894439153e-06
4.7317645990411651334e-06
4.7853972222996999939e-06
4.8182375532155453693e-06
4.8870540250382542966e-06
5.102667541517939648e-06
5.4931107833023389012e-06
5.7501381805941972322e-06
5.8539146884446633911e-06
5.8673103389563490567e-06
5.8575296975699378459e-06
5.8431068724007223451e-06
5.8378959188574864521e-06
5.8376799113954776723e-06
5.8499593842406538623e-06
5.9052970445164240198e-06
6.0514347582753656192e-06
6.1720688681688254135e-06
6.2283925378493663975e-06
6.23903155808112651e-06
6.2374652301254018212e-06
6.2421912074291849282e-06
6.285408197651126062e-06
6.4425255315678671013e-06
6.6390494730286708829e-06
6.8034988836892294712e-06
6.9411513744541855593e-06
7.0421928829197231003e-06
7.0978990004044159034e-06
7.1174844088321541984e-06
7.1312656867730404427e-06
7.1758811693887482761e-06
7.3563380767864936327e-06
7.7067687689980782451e-06
7.943114602748448951e-06
8.0413210104270445462e-06
8.0517482040865619782e-06
8.0380101115797964828e-06
8.0300078802868409146e-06
8.0630501340723667798e-06
8.2605073647317153111e-06
8.6183406633766272128e-06
8.838516488277098194e-06
8.9281498346513186244e-06
8.941311379242783503e-06
8.9336835748218019896e-06
8.9303058368305694476e-06
8.9534109086770307669e-06
9.0448870995042602086e-06
9.0882362013693021309e-06
9.0780664632539730428e-06
9.022684084668346579e-06
8.935374104008396754e-06
8.909104869125535097e-06
8.9164437865228947171e-06
9.0033311001608756975e-06
9.1413860092857971904e-06
9.2090335514233035439e-06
9.2309182920697055907e-06
9.2347748206791016855e-06
9.2345271398076956095e-06
9.2308918002935035925e-06
9.2147674367454477463e-06
9.1761011341103686006e-06
9.1423363280347818991e-06
9.1203060988751261118e-06
9.1056403276020735299e-06
9.0973350903818841058e-06
9.1131241431745311983e-06
9.1468507207898069801e-06
9.1663707371428843632e-06
9.1810453924527824941e-06
9.2059064926244391129e-06
9.251839823163259056e-06
9.3178461350356797037e-06
9.3934202413408085525e-06
9.4623145791053747818e-06
9.5119600710522037479e-06
9.5386978244284186608e-06
9.5492894085516902438e-06
9.5571787360595477934e-06
9.5771355991273380941e-06
9.6206346666149433994e-06
9.6831841100976934482e-06
9.7546756465631980599e-06
9.8237144844701016828e-06
9.882400809353100401e-06
9.9296244823091147789e-06
9.9694829835218618766e-06
1.0008548727508873909e-05
1.0052453633538940532e-05
1.0103205731508939567e-05
1.0158648994620339914e-05
1.0213927621750402457e-05
1.0262299601424257329e-05
1.0298315555968879411e-05
1.0320469597053332002e-05
1.0331437623811747764e-05
1.0337826289486202322e-05
1.0348689111826881725e-05
1.0372152057882691792e-05
1.041384175168884412e-05
1.0474550585365821089e-05
1.0549850536277059104e-05
1.0631456024782841738e-05
1.0709118683226449809e-05
1.0774122164209914496e-05
1.0820853407364624063e-05
1.0848077959010790075e-05
1.0859756324375641478e-05
1.0862451353438435059e-05
1.0864399206597684646e-05
1.0873304822796951764e-05
1.0899416740184639994e-05
1.0938232428943763311e-05
1.0984749311815991611e-05
1.1035593485764375062e-05
1.1086769883210504211e-05
1.113486256331422862e-05
1.1176307545206638547e-05
1.1209623361022109825e-05
1.1235709681732183456e-05
1.1257148992825334529e-05
1.1278071289112773964e-05
1.1301418903472847227e-05
1.1329221560798524382e-05
1.1362595221367627319e-05
1.1401805525892062351e-05
1.1446304840906817147e-05
1.149515726974220454e-05
1.1547150221156689143e-05
1.1600202476439696922e-05
1.1651297086033995202e-05
1.1697378004484509893e-05
1.1736670933143592539e-05
1.1767436353735240089e-05
1.1789005060498994998e-05
1.1802410645678200897e-05
1.1808948067326098058e-05
1.1810668610098698514e-05
1.1809348109107249279e-05
1.1806174566557932129e-05
1.1801591620385022531e-05
1.1795309817804440632e-05
1.1787543828540743681e-05
1.1778703945094035692e-05
1.1768834065095165942e-05
1.1757000648028520515e-05
1.1192258416593344362e-05
1.1178956742180980475e-05
1.1165934787259711508e-05
1.1153179250789429741e-05
1.1140738157577327643e-05
1.1128533456865575844e-05
1.1116228005863887444e-05
1.1103305465835806249e-05
1.1089282034150746997e-05
1.1074039986129375151e-05
1.1058007752112814629e-05
1.1041993425997834123e-05
1.10267350363858619e-05
1.1012519760293555061e-05
1.0999128330004330378e-05
1.0986072292917147385e-05
1.0972942710466376907e-05
1.0959675787266989671e-05
1.094662733348695785e-05
1.093424642211110733e-05
1.0922724590800297155e-05
1.0911726027466116021e-05
1.0900692986399901463e-05
1.0888978473466377612e-05
1.0876291889145805778e-05
1.0862605784823149791e-05
1.0848463358468571683e-05
1.083447177570644918e-05
1.0821248324610888001e-05
1.0808793693274847426e-05
1.0796891168617431177e-05
1.0784994979417464182e-05
1.0772849609730538253e-05
1.0760191588054557704e-05
1.0747171484986499986e-05
1.0733866112884966201e-05
1.0720630583890951589e-05
1.0707544716253908687e-05
1.0694877417921621408e-05
1.0682530830352268326e-05
1.0670609414276760826e-05
1.0658875076059423951e-05
1.064730019151221359e-05
1.0635600567115348434e-05
1.0623761495090179802e-05
1.0611498279620412e-05
1.0598811474936256828e-05
1.0585392567493287578e-05
1.0571335915906374231e-05
1.0556564064836109555e-05
1.0541617091981947781e-05
1.0526737234737635796e-05
1.0512463771813048837e-05
1.0498715204496836121e-05
1.0485574046802511317e-05
1.0472536550993253622e-05
1.0459525740232318442e-05
1.0446191074996119696e-05
1.0432830081176479783e-05
1.0419381924281850851e-05
1.0406194613898953779e-05
1.0393134717927614695e-05
1.0380445373918934944e-05
1.0367901999703797586e-05
1.0355544410351423117e-05
1.0342921083919473784e-05
1.0330077478239584364e-05
1.0316843415177082079e-05
1.0303645178086676986e-05
1.02905505519382805e-05
1.0277946993680629929e-05
1.0265726612208282226e-05
1.0253989988204190097e-05
1.0242367370728157358e-05
1.0230729894238733231e-05
1.0218643360758455788e-05
1.0206109458920816082e-05
1.0192991010733810759e-05
1.0179554791283973648e-05
1.0165782061756593733e-05
1.0151853235605783597e-05
1.0137607278937285654e-05
1.0123127195961989061e-05
1.0108402029516138802e-05
1.0093751166019125919e-05
1.0079389099511424898e-05
1.0065590602027501708e-05
1.0052234626260815958e-05
1.003922135278603716e-05
1.0026245505988646729e-05
1.001331554584818605e-05
1.0000373153556422212e-05
9.987609501896359428e-06
9.9750456471517538813e-06
9.9627838603520226961e-06
9.9506719866505976386e-06
9.938481976861316948e-06
9.9257950990910713058e-06
9.9123371604632813485e-06
9.8980143149208416785e-06
9.8831092422503437019e-06
9.8679630155363238906e-06
9.8529936095355877691e-06
9.8383856828136751502e-06
9.8243206660642969037e-06
9.8107882040173736342e-06
9.7977744358458497879e-06
9.7850673858990004118e-06
9.7724974737341095557e-06
9.759764345875599845e-06
9.7468273431749277464e-06
9.7335796114918365793e-06
9.7202781514758851005e-06
9.7070265430304387858e-06
9.6940429039016235308e-06
9.6812685836473635876e-06
9.6686873122754051337e-06
9.6561984282137222857e-06
9.643846879592954624e-06
9.6316494390905449776e-06
9.619636702216624149e-06
9.6077908758537996608e-06
9.5960259150622130797e-06
9.5842405313004640064e-06
9.5722979614995244864e-06
9.5601280533810752208e-06
9.5476896123164363563e-06
9.5350188498099806085e-06
9.5220613478928654069e-06
9.5088795499255689516e-06
9.4955042962600478954e-06
9.4821758047379583269e-06
9.4690350230731836314e-06
9.4563363531738090867e-06
9.4440086790766492346e-06
9.4321725504173261847e-06
9.4205175295114802189e-06
9.4090486047339436278e-06
9.3973891002828283982e-06
9.3856108922008549039e-06
9.3735499778899525753e-06
9.3614197276263791126e-06
9.3492020531945777906e-06
9.3371074262148884228e-06
9.3251933546958539996e-06
9.3135539761462368354e-06
9.3021909771290779164e-06
9.2910253189515248429e-06
9.2799407832394893562e-06
9.2688814664387281233e-06
9.257785204872165914e-06
9.2466757609817561554e-06
9.235437658618520968e-06
9.2241666059998601482e-06
9.2126538898470327656e-06
9.2011523592108194813e-06
9.1893401283862454664e-06
9.1775845802624544159e-06
9.1655819749030641847e-06
9.1538032306101817774e-06
9.1420832882352579397e-06
9.1307158815794654024e-06
9.1196086083224626832e-06
9.1087023425188127118e-06
9.0979839366115062595e-06
9.0872678197388046418e-06
9.0765288484193438611e-06
9.0657909854606058211e-06
9.0548483461544860412e-06
9.0440763644434875686e-06
9.0330861197488170489e-06
9.0224066232134762268e-06
9.0116256290921240924e-06
9.0011013591151173356e-06
8.9904851917629012987e-06
8.9800689651083522166e-06
8.9694716074773999184e-06
8.9592119580300240243e-06
8.9487891030636737414e-06
8.9390155355386371566e-06
8.9291453177870923894e-06
8.9199187523932242221e-06
8.9103688402950705988e-06
8.9010814081848671644e-06
8.8909571949207743912e-06
8.8809441137298469963e-06
8.8699551965736313469e-06
8.8592707745112717353e-06
8.8480269820580866312e-06
8.837378542172453114e-06
8.826626027172644777e-06
8.8168403638847199868e-06
8.8069781206032957843e-06
8.7982529928203622626e-06
8.7890831454052252249e-06
8.7807218254849876964e-06
8.7713897599565003176e-06
8.7624700173662108186e-06
8.7521702568972869113e-06
8.7422749027889721656e-06
8.7310868519325773304e-06
8.7206946345311371052e-06
8.7094072297114770366e-06
8.6992471048837088948e-06
8.6883277051790927471e-06
8.678424005038918134e-06
8.6675792881787409649e-06
8.6576268651562973368e-06
8.6467658965637469185e-06
8.6370375192302327672e-06
8.626613671186380132e-06
8.6174201820147608324e-06
8.6076203777160300743e-06
8.5989927468414720794e-06
8.5895875352962295382e-06
8.5813547358867184859e-06
8.5720083993119655392e-06
8.56372962398588732e-06
8.5541104755385884021e-06
8.5455493426491883007e-06
8.535671405479090942e-06
8.5269924570558337752e-06
8.516903709871697216e-06
8.5080927870031163393e-06
8.497812833661340929e-06
8.4887382124428252799e-06
8.4782132581209614005e-06
8.4689006500761532985e-06
8.4582484934924194393e-06
8.4489173247095157338e-06
8.4385094104580938537e-06
8.4296472765250000334e-06
8.4197316496813549657e-06
8.411290952768903098e-06
8.4015617976231125543e-06
8.3930488142350001692e-06
8.3830180353077452004e-06
8.3740930537875450846e-06
8.3634887924798200789e-06
8.3540435813840968187e-06
8.3429682888584947312e-06
8.3333408738981503712e-06
8.3223159553355973025e-06
8.3130910795516712995e-06
8.3025683838603509603e-06
8.2939513970620183783e-06
8.2840772684391096467e-06
8.2760285312503281907e-06
8.2667499970817174778e-06
8.2591957743063512464e-06
8.2501936058991252637e-06
8.2426442549864616533e-06
8.2333425665014825176e-06
8.2252164510065256477e-06
8.2151236285635598954e-06
6.6522043806269708527e-07
7.7597654695136825046e-07
9.0557937615016422394e-07
9.9192128612152308622e-07
1.0806666402721599337e-06
1.1901965382885430359e-06
1.2889250365407522201e-06
1.3742984692226377093e-06
1.4879804365485569138e-06
1.6407401741204360769e-06
1.7884149975397869719e-06
1.8936435368925030757e-06
1.9714959567250155613e-06
2.0713779589572252246e-06
2.2032768692808646816e-06
2.3393210887154455735e-06
2.467588626598957671e-06
2.5837508590398714066e-06
2.6655609478269513264e-06
2.7078928766798882935e-06
2.7487783879674046931e-06
2.8333508732329406649e-06
2.9648560007889339347e-06
3.09653084187321927e-06
3.1890451357602910755e-06
3.2381141095562226132e-06
3.2763880514251758601e-06
3.3499683142162163283e-06
3.5113064863548430379e-06
3.7426720808869541562e-06
3.9732980371487958523e-06
4.1452992493348440526e-06
4.2352692626564306444e-06
4.2613304973149515779e-06
4.2638245941393951622e-06
4.2673593281354387237e-06
4.2801658169709214626e-06
4.3200717394329477813e-06
4.427519443973947998e-06
4.5733942027456558636e-06
4.7166458406529464945e-06
4.8324513553555528155e-06
4.9033668704815219528e-06
4.9375095496247159863e-06
4.9713236073890895914e-06
5.0507606195924787613e-06
5.2982816808419390894e-06
5.668071152955733064e-06
5.9015188423992944106e-06
5.995227681633572746e-06
6.0095523569056421141e-06
6.0066355766638422707e-06
6.0118950934337942404e-06
6.0397436767348184434e-06
6.1097562358056046639e-06
6.1991223610966648627e-06
6.2968314628480921564e-06
6.3865549825881783453e-06
6.4471151115120449055e-06
6.4701757196532818042e-06
6.4707216014712625029e-06
6.4705380187825506385e-06
6.4870935950601239475e-06
6.5793688035767689516e-06
6.8375935822726880578e-06
7.0765189693865464694e-06
7.2484566268831073725e-06
7.3665844174826576113e-06
7.4366277781952248421e-06
7.4659768127752582586e-06
7.475675418036689905e-06
7.4943483816073179981e-06
7.5753547640622968888e-06
7.8893481013175652521e-06
8.2654057203761775887e-06
8.4512577106277818491e-06
8.4949038037052067079e-06
8.481145072657824438e-06
8.4364916409433175e-06
8.4206686106500274467e-06
8.4505018522391226626e-06
8.6519771168044880917e-06
9.0537253144036793361e-06
9.3019211553627550055e-06
9.4013689899845567419e-06
9.4138054933308687477e-06
9.4040785303301320774e-06
9.4013166471434950303e-06
9.4413248132814773492e-06
9.5792045578080914825e-06
9.6435034029634545891e-06
9.6358932195845395597e-06
9.576343319514430449e-06
9.456883965809842482e-06
9.4116039799069697966e-06
9.4070584116554257462e-06
9.443792920599944807e-06
9.5477924170791757757e-06
9.6235786452764080271e-06
9.67720848324798481e-06
9.720974276989226108e-06
9.7547156954540696286e-06
9.7721830704074956979e-06
9.7732818225690295421e-06
9.7640812533676579386e-06
9.7350906805876920471e-06
9.6764866607320921795e-06
9.6353993792651362139e-06
9.6134891742807442603e-06
9.6027616180154609865e-06
9.6044903500795491495e-06
9.6421816676669633501e-06
9.7041148529835984392e-06
9.7428995676047350921e-06
9.7625676750921471046e-06
9.7761427264651367796e-06
9.7989210907864967296e-06
9.8513859746622717408e-06
9.934830343340103002e-06
1.0014530310552171086e-05
1.0079258821364117248e-05
1.0129589653771382761e-05
1.0173008965242843566e-05
1.0217378494056577479e-05
1.0265464223625119354e-05
1.0315832456208792327e-05
1.0363775590574929073e-05
1.0406472133200035134e-05
1.0444297265943381069e-05
1.0480350903897232303e-05
1.0518229032776107288e-05
1.0561852341736560645e-05
1.0613251623414521034e-05
1.0671388870713858702e-05
1.0732599747237741384e-05
1.0791769093890423234e-05
1.0844982252745891205e-05
1.0889698607389843347e-05
1.0926369671472095399e-05
1.0958220305788210564e-05
1.0989958288202429982e-05
1.1026138931543655458e-05
1.1069365554950430725e-05
1.1118156894494208396e-05
1.1170434353436874413e-05
1.1221358234667548091e-05
1.1267293938948358764e-05
1.1305880071560416329e-05
1.1336834090741922324e-05
1.1362178593823004305e-05
1.1385726026480712654e-05
1.1412533164606165599e-05
1.1446151130279142417e-05
1.1488168186886390306e-05
1.1537042234150567233e-05
1.1589622431986101904e-05
1.1643134301529363596e-05
1.1694773602309776878e-05
1.1741977307498688458e-05
1.1782542875456719368e-05
1.1815170472172310652e-05
1.1839263361023250902e-05
1.1856756340275451879e-05
1.1871502981608871298e-05
1.1887327493559866949e-05
1.1907515467039779436e-05
1.1933425633612487917e-05
1.1965247374351380103e-05
1.2002949080504976526e-05
1.204656613067182985e-05
1.2094884982189008592e-05
1.2146293129184020478e-05
1.2198453324749097999e-05
1.2248922075618562199e-05
1.229487937703984089e-05
1.2334243605981084482e-05
1.2366119897519624784e-05
1.2390681649237129879e-05
1.2408140478999798225e-05
1.2419796114611419892e-05
1.2427553404248126642e-05
1.2432103639291580203e-05
1.2433973575415660506e-05
1.2432959877675335396e-05
1.242917985364955401e-05
1.2422471211375727651e-05
1.2413722918428298568e-05
1.2404334115510881311e-05
1.2394293890790325502e-05
1.1784574519021291235e-05
1.1770709614236218171e-05
1.1756977142749378234e-05
1.1743489159473476642e-05
1.1730359734608173259e-05
1.1717466959588258602e-05
1.1704428088454863833e-05
1.1690802412034654459e-05
1.1676201462030243015e-05
1.1660482426850460029e-05
1.1643911969466557739e-05
1.1627200293759109591e-05
1.1611095046828690151e-05
1.1595994048167272944e-05
1.158169679087090065e-05
1.156774342686657399e-05
1.1553677635360358621e-05
1.1539547503612473706e-05
1.1525639806069881916e-05
1.1512467528359704658e-05
1.1500054068588880227e-05
1.1488240332777378624e-05
1.1476346818095709565e-05
1.1463910138554579343e-05
1.1450338135590001895e-05
1.1435804829077899394e-05
1.1420700236820722611e-05
1.1406078832066107769e-05
1.1392400505968362798e-05
1.1379939968311379708e-05
1.1368093017169372735e-05
1.1356456048568208594e-05
1.1344245857578473912e-05
1.1331331728792163149e-05
1.1317417120632429216e-05
1.1303041966162998794e-05
1.1288369841070035614e-05
1.1274058937231064441e-05
1.1259973409982943805e-05
1.1246438920911789629e-05
1.1233078249046574371e-05
1.122018810403610033e-05
1.1207475248391531505e-05
1.1195141641534379892e-05
1.1182665534872349291e-05
1.1170169390586181035e-05
1.1157024594584517247e-05
1.1143375153388524566e-05
1.1128680660338851721e-05
1.1113490598359339722e-05
1.109771931127746843e-05
1.1082304964878581088e-05
1.1067115824669280654e-05
1.1052747570970317372e-05
1.1038502739590731096e-05
1.1024597649147090364e-05
1.1010274867133256762e-05