/*--------------------------------*- C++ -*----------------------------------*\
  =========                 |
  \\      /  F ield         | OpenFOAM: The Open Source CFD Toolbox
   \\    /   O peration     | Website:  https://openfoam.org
    \\  /    A nd           | Version:  12
     \\/     M anipulation  |
\*---------------------------------------------------------------------------*/
FoamFile
{
    format      ascii;
    class       volScalarField;
    location    "0.00514";
    object      k;
}
// * * * * * * * * * * * * * * * * * * * * * * * * * * * * * * * * * * * * * //

dimensions      [0 2 -2 0 0 0 0];

internalField   nonuniform List<scalar> 
75962
(
4.2305872699270164838e-05
6.2891545690024300047e-05
8.4840829913395297206e-05
9.4530134534929032421e-05
0.00010083297402119270733
0.00011417654801797450491
0.00015012804934379415673
0.0001934776773220004656
0.00021919450737384506148
0.00023834955189539462368
0.00026994942552191703239
0.00031917136499877283478
0.00036998173626088745602
0.00041099177124734765244
0.00044575982530329635129
0.00048747258892617998305
0.00054853285701811588335
0.00062125835662426307296
0.00067971584836366502353
0.00071061080450371275422
0.00073127226674726895483
0.00077103652962939070014
0.00083745031219187489064
0.00091188884993242448358
0.0009732494562973299226
0.0010119320483518237392
0.0010404238375276248993
0.0010885603222550318224
0.0011821319199344006851
0.0013164842678419826777
0.0014578258677385635619
0.0015703817263210827389
0.0016491740704921392484
0.0017131988087198809709
0.0017744998855138490075
0.0018255792999501039512
0.0018564920629699172092
0.0018733997698808784339
0.001895652901938317059
0.0019461360493952613217
0.0020827753641013057803
0.0022542716797369615617
0.0023743298781029836646
0.0024338597754678722301
0.0024805319102727588741
0.0025836037616669021467
0.0029116991930412299341
0.0033978818817189454168
0.0037007750387866369945
0.0038124401003780884929
0.0038256823864484396092
0.0038136707530059053665
0.0037873939500355554427
0.003778956626650625903
0.0037800681702740445735
0.0037968662651761638828
0.0038758699836976724662
0.0041020670131178540649
0.0042938367198519754309
0.0043752860778334991265
0.0043851592778237991413
0.0043805085076042528727
0.0043944336450866296195
0.0044962939797646176918
0.0047643072322034185628
0.0050025557754575546154
0.0051951391203363984916
0.0053561471084262457509
0.0054777947400337818895
0.0055484360997274410551
0.0055821843616196851687
0.0056215561567845989677
0.005724171840712866631
0.006098592517649878593
0.0068590885633631228091
0.0073774337823214247364
0.0075922793070416424999
0.0076233356716667493094
0.0076016748059680441449
0.0075817209646608504578
0.0076094788160252406842
0.0078034770578573626337
0.0083603939172848945605
0.0088101130937843739888
0.0090237552254403448349
0.0090725745308421635454
0.0090665953077557811385
0.0090606235958485981802
0.0090945352599636677254
0.0092411151864962483987
0.0093234865679046024373
0.0093180062956267333679
0.0092264986468925513224
0.0090836123925354846087
0.0090539974572276769871
0.0090852225785574662609
0.0092707110477453797542
0.0095559512140079329312
0.0097084674007767591403
0.0097688695863722783269
0.0097854377837714705962
0.0097890812814186191348
0.0097889855455744138185
0.0097835234300067287078
0.0097596441734821102326
0.0097249462128556410367
0.0097006576382778538642
0.0096893208188181863955
0.0096861812177955683434
0.0096904242164913868829
0.0097213070872376843023
0.0098384749838946392031
0.0099910308067127154286
0.010097109076518374915
0.010180767592925651574
0.010275300299693158543
0.010398149572271302155
0.010542547961494182218
0.010683750241078381754
0.010796044154163143489
0.010866421641323705319
0.010902389140592506564
0.010925159275824001051
0.010961578354557783774
0.011044010003085188293
0.011230510607082133667
0.011450118729244534999
0.011655683619485329369
0.011824271285617341323
0.011950971775850189119
0.012051150631780218475
0.012147312095843805502
0.012257774765730576963
0.012387574947149693899
0.012528398471690212548
0.012664554865221114982
0.012778750878713593386
0.012863933248122329245
0.012924715852850165304
0.012976415227798117
0.013040916383882520876
0.013138076861399306319
0.013277892288083367398
0.013458397333359782902
0.013665033047998405638
0.013876347649394308106
0.01407008523058824595
0.014230016133597731681
0.014350122358060084932
0.014434094848601385086
0.014494510440872254015
0.014546578533373502595
0.0146067376600999832
0.014687002688545312129
0.014793402423187921105
0.014924499939415384817
0.015074472819932497117
0.01523344804214433329
0.015389521284042737004
0.015533688401128047801
0.015658243286730062077
0.015761229542550294486
0.015846042337467888123
0.015918518627489830486
0.015988711358155244247
0.016065056261636467133
0.016154351985712453454
0.01626176255038753321
0.016389132375259157781
0.016534476362326709642
0.016693490710621015222
0.016860847264248565724
0.017031088400084899021
0.017196817194549011976
0.017350651761395538553
0.017488109482156628804
0.017604836644281258995
0.017698614907941008501
0.017770776131628834849
0.017823041355447401951
0.017858599050757203303
0.017881104402768330935
0.017894386872821198969
0.017901548785164343031
0.017904608268899162293
0.017905200831426191371
0.017904583405783037336
0.017902037430659635542
0.017101054224347784355
0.017083851332970897974
0.017066724338733511857
0.017049514433075535491
0.017032278464117336231
0.017015103311607982645
0.016997575425244496744
0.016979126275445299149
0.016959627814622128122
0.016939745647670145789
0.016920269687923757823
0.016901551071124856773
0.01688345546691400953
0.016865864912044545298
0.016848591953514784059
0.016831361278628016037
0.016813868609573387469
0.016796361261703047357
0.016779333705204318994
0.01676314473736660593
0.016747442597756293653
0.016731761651629945692
0.016715574533956552988
0.016698846418989457541
0.016681417686970428926
0.016663688576363099025
0.01664586146868732644
0.016628546404216279497
0.016611434670521559726
0.016594439113848152151
0.016576827849795854053
0.016558970963283813072
0.016540682303723026891
0.016522682257341578943
0.01650449112591634987
0.016486640482746010156
0.016468591779432877054
0.016451041565532315003
0.016433430741027054561
0.016416352891732266528
0.01639903771523131687
0.016382011036283179728
0.01636439488426529032
0.016346787880588208031
0.016328338161242982041
0.01630998403220059248
0.016290813356471305073
0.016271859291089763033
0.016252202740278103021
0.016233176785653908453
0.016213811828039478846
0.016195196530278295477
0.016176115805243616169
0.016157756498470014078
0.016138987057646280582
0.016120921416218226413
0.016102182193308882396
0.016084050752169197496
0.016065386449909058869
0.016047500321449366389
0.016029023726747231721
0.016011224090282216714
0.01599294529481925034
0.015975611657313960878
0.015957676383976496931
0.015940310719862835209
0.015921879172686843884
0.015904106600851869446
0.015885739215978422062
0.015868574779245497863
0.015850962569456537171
0.015834342876729582544
0.015816888312894204771
0.015800259187595137866
0.015782605033855218873
0.015765638896124232332
0.015747377681038867564
0.015729764532533881821
0.015711008350671157308
0.015693062955634627664
0.015673916798642145015
0.0156553633040554252
0.015635538786337544598
0.015616684144474269821
0.015597173297339719453
0.015579086635819468926
0.015560340340939837755
0.015542668680196013165
0.015524187663391296813
0.015506871619692537065
0.015489064392197661804
0.015472414747695426712
0.015455134522581374587
0.015438602674406413581
0.015421169205357444787
0.01540410568831209262
0.015385807979451588887
0.015367726390863464814
0.015348572193315628692
0.015330126294832501638
0.015311005702251787031
0.015292678750468829962
0.015273404149414124276
0.015254769834221443281
0.015235268352307896125
0.015216992453015863035
0.015198351444649562531
0.015181325841362797863
0.015163724794451494127
0.015147200304001422547
0.015129438664868589265
0.015112427209211999612
0.015094275548009168306
0.015077105671301906792
0.0150590115324726187
0.015041963808394658714
0.01502417693450279132
0.015007612572872808254
0.014990446422974730914
0.014974325432301630392
0.014957357124419378563
0.014941100787705018094
0.014923776863482104971
0.014906983837984381924
0.014889250753606675035
0.014872247060984094408
0.014854663240318428941
0.014837652675592956364
0.014819717573373605152
0.014802037683029643789
0.0147836397682551135
0.01476602037282657813
0.014748453561771358508
0.01473196887370298476
0.014715828192650817416
0.014700448688710645445
0.014684895193187134585
0.014669233106659419416
0.014652740161752152506
0.014636156263698850075
0.014619104377550828228
0.014602795557218628889
0.014586392332213803449
0.014571034449657448498
0.014555376044120963905
0.014540553703407906039
0.01452499999745756297
0.014510032286295961729
0.01449422136239124706
0.014479102295728348698
0.014463258063429546008
0.014448174309015649266
0.014432570047519098499
0.014417507754988236404
0.014402041750214651661
0.014386473297255671783
0.014370491042465172865
0.014354256447001568706
0.014337940950631967649
0.014321941041450909904
0.01430574878676312868
0.014290282384599240981
0.014274050780084727649
0.014258778474116710899
0.014242703395849373033
0.014227653522639951977
0.014212445291010240844
0.014197902218091695836
0.014183569627072534561
0.014169268584789309479
0.014154859606679372208
0.014140425211837762479
0.014125568517806998473
0.014110846461860575632
0.014095781554055627702
0.014080681272785795094
0.014065886716881113166
0.014050992932400564739
0.014037109214009430708
0.014023203406566108614
0.014010126767087800748
0.013996733469532788435
0.013983563463852885858
0.013968940314847194326
0.013954783553634867235
0.013938871880109069204
0.013924048703912585839
0.013908470610622745978
0.013894164630499623511
0.013879531593378006959
0.013866282058964491883
0.013852238078271095559
0.013840032938402569568
0.0138263300601406975
0.01381454164468631611
0.013800658280740106879
0.013788514600519618386
0.013773760845335228375
0.013760977381653322418
0.013745699391682086182
0.013732905943054110609
0.013718012568559990669
0.013705977935036851162
0.013691579669239752753
0.013679392343934138401
0.013664440656172595345
0.013651478011879311647
0.01363590824148997252
0.013623236512990645128
0.013608399691909514248
0.013596552548323873749
0.013582654260836470039
0.013571616411107413624
0.013558200397301241671
0.013547948547466437397
0.013534672724119314186
0.013524516268898908664
0.013510907486048634452
0.013500508647154902189
0.01348644652382655941
0.013476053526158963611
0.013461634073763233468
0.013451093403815206004
0.013436604407651937809
0.013426044984951663458
0.013411811674241365042
0.01340114775960044198
0.01338691318035406877
0.013376241459643629234
0.01336215488414113986
0.013352172553972854394
0.013338758965364299822
0.01332938384641303535
0.013316222681655789928
0.013306732813625968617
0.013293385936178299389
0.013283692267272795631
0.013269646562320333918
0.01325951372517468474
0.013244728410098294616
0.013234102222899687615
0.013219279619716263127
0.013209287614538647512
0.013194962955855676912
0.013185731487312094337
0.013172237505341792552
0.013163650135418104511
0.013150806628592713599
0.013142917012538392688
0.013130578910534991544
0.013122690346092188984
0.013109968304732573866
0.013101637073853195439
0.013088301976789526102
3.1565655668399653577e-05
5.4472308318282088339e-05
8.0245649919700822285e-05
0.0001027849687723192797
0.00012202827429969771993
0.00014279868691349548279
0.00016436334895429354614
0.00018601325168627350299
0.00021609794592796787338
0.00026014999097325136688
0.0003086994094279522146
0.00035004659113985794579
0.00038664984720059481123
0.00043058897050590933843
0.00048392042378144189269
0.00054071204713875063545
0.00060043835811836006669
0.00066040805278649850323
0.00070555331287826532783
0.00073039197416524591442
0.00075458988297573501708
0.00080360767079298443729
0.00088242201430388305869
0.00097007667593600286227
0.0010400482142861183776
0.0010805707476117094
0.0011020770713628808002
0.0011288918180120193716
0.0011884996762211023132
0.0013199971532395476242
0.0014765444694099032989
0.0016168925476679467824
0.0017224345670278414649
0.0017959700602049003416
0.0018465863639254181169
0.0018795011452926626682
0.0018996187215409036843
0.0019197622434584599767
0.0019593865523700646457
0.0020572279392211813114
0.0022290669412391335424
0.0024011211712659167976
0.0025262910013021679621
0.0025889448782817460828
0.0026283794131710140271
0.002706992972286550829
0.002953395553420494913
0.0034268601862029461798
0.0037619838507588080137
0.0039090107071270835393
0.0039376733620724354429
0.0039329758709673763584
0.0039188239561587052615
0.0039154000106043414936
0.0039184589721188121947
0.0039389353061459507835
0.0040198923062319553284
0.0042308324304632062215
0.004412349272496787593
0.0045018758355400345303
0.0045222832276185735007
0.0045231022711840198833
0.0045331415621302079133
0.0046003582715583059282
0.0048394830736504948834
0.0051487994776691324572
0.005416713056356478595
0.0056448625178661913926
0.0058137524047702010196
0.0059094804776539579944
0.0059494113855382028608
0.0059849819968905608805
0.0060743702281936210602
0.0063947436209440900248
0.007026482343149143342
0.0074697822868291848669
0.0076636249683864742649
0.0076966964853790219639
0.007687271803515966298
0.0076885651271199782417
0.0077661280486465648215
0.0081636581308153956943
0.0089030366108481667764
0.0093815780425063107634
0.0095870829605824471609
0.0096237314441845103058
0.0096111565771877013192
0.0096065215560813942836
0.0096605359984743184587
0.0098673544320669361041
0.0099769098371444379231
0.0099738569060179253084
0.0098742245553473679404
0.0097039840375241527559
0.0096651550379145724501
0.0096981190442472636759
0.0099040842561536578115
0.010226348914618243677
0.01039117207747488475
0.010448128742387447626
0.010459607902640059157
0.010460268134292580525
0.010455719194634905886
0.010428135169694222051
0.010355292126999073032
0.010298894077799349706
0.010273823422650410833
0.010268670999000691774
0.010277658190230125335
0.010336511288443867365
0.010429398089379916109
0.01048288791791571542
0.010520051611073501577
0.010577302070505922513
0.010680805693086612221
0.010829222640851982051
0.011000015532696982151
0.011157594312871046624
0.011274127294636114224
0.011341320191910539764
0.011373932562844231084
0.011401663758956060574
0.01145784723268164669
0.01157005641235861991
0.011729947950164881787
0.01191590801591758432
0.012101041498348509909
0.012264240271533256854
0.012399900030118591807
0.012516428877346623752
0.012630551516062387546
0.012758067890657334015
0.012905543473978698527
0.013067901823168097744
0.013231973987194830394
0.013379167325279323411
0.013494261471016608112
0.013572832914942415186
0.013622145758539842483
0.013660196024839520515
0.013711239106742606139
0.013796529568989076425
0.013930319883285817786
0.014114420770064126098
0.014337557343509707564
0.014578282671480525395
0.014809279336599092194
0.015006690994647966034
0.015154583167174173058
0.015248708552273370839
0.015299315017420786131
0.015324594899685106339
0.015348578118813153634
0.015394689767396881747
0.015493386586643256159
0.015631970215200994417
0.015794069156260363146
0.015967095318499283096
0.016137546430711382367
0.016295648689555752159
0.016432931412948402483
0.016547145509039320327
0.016641699874551840049
0.016723409505832443483
0.016803351876529846326
0.016890232900726158405
0.016991538978271495536
0.017112397860542565703
0.017254159050347103038
0.017413992386377571964
0.017587088784748523829
0.017768401785705458668
0.017951622664040215588
0.018128774950513567438
0.018292172504701970093
0.018437862482957225602
0.018561343318589291346
0.01866037401207529256
0.018736714163208319922
0.018791777520688435904
0.018829192821234051053
0.01885282026656933882
0.018866653783418257939
0.018874132308282318138
0.01887689392214459555
0.018877049981630929232
0.01887554897976121554
0.018871055054850639082
0.018859444548224042065
0.018019884572917612559
0.018001662732513967757
0.017983450670308511604
0.017965399061502577288
0.01794765415576498116
0.017930113286105060777
0.01791241525835395379
0.017894158367670429111
0.017874978735605007163
0.017854760456155992221
0.017833825582310627866
0.017812845021256094868
0.017792408206956544792
0.0177727184835655104
0.017753635675512743214
0.017734852316369960346
0.017716081374822056915
0.017697250072612434602
0.017678715861526410336
0.017660857531074179716
0.017643839620483998953
0.017627226251132055435
0.017610707485758523433
0.017593727340343649074
0.017576127377600947455
0.017557491471088274015
0.01753835443547120676
0.017519191845070836155
0.017500928579741874963
0.01748328728074071553
0.017466073725187554466
0.01744845394448933662
0.017430520013021505443
0.017411964157090620287
0.017393251242935645756
0.017374159403650401429
0.017355206040918929461
0.017336079327581778442
0.017317278640716381177
0.017298413751369780961
0.0172799828637835301
0.017261522268315551698
0.017243303066145208857
0.017224679254100351555
0.017205957374125432913
0.017186726645277171366
0.017167594793284828014
0.017148030118882006539
0.017128447497655178988
0.017108150889380759063
0.01708790374208515872
0.017067314096804925283
0.017047234095012336191
0.017027098395996854291
0.017007552509379658678
0.016987806892316829194
0.016968440439718658619
0.016948750798291875586
0.016929614241216285608
0.01691035997163964702
0.01689155134646046566
0.016872367234791348783
0.016853553944574967138
0.016834685199652719978
0.016816400507256863694
0.01679774058210741286
0.016779129631343505519
0.016759927904824580697
0.016741075460822027465
0.016722130248996887325
0.016703716520415575614
0.016685175815772220614
0.016667024886486487417
0.016648731689651214555
0.016630772788160125969
0.016612485231441560113
0.01659417295625906924
0.016575227644647434061
0.016556107182639719783
0.016536387239743727956
0.016516542982567807007
0.016496188620874475267
0.016475756565070158455
0.016455127069906577003
0.016434897050819300551
0.016415092916625032005
0.016396028961691268278
0.01637712913370391668
0.016358360856648549581
0.01633930351698885397
0.016320482638247760937
0.016301832419187377993
0.016283698421959487412
0.016265705415847084292
0.016247934302799450779
0.016230093876715430412
0.016212126427697544362
0.016193592816528244033
0.016174369044380167149
0.016154418555074840508
0.016134297103523008443
0.016114223680019208046
0.016094450952260065668
0.016074616579623595553
0.016054782987832427049
0.016034935846670293064
0.016015541395011396314
0.015996676572352572926
0.015978524001073118183
0.015960561041492123818
0.015942710101260238603
0.015924323515701461346
0.015905764103492751882
0.015886928440415844233
0.015868291755259378989
0.015849662526521906408
0.01583115048738580749
0.015812627586861662671
0.015794368839016206807
0.015776427992202309014
0.015758821673858870727
0.015741431091380958529
0.01572403005116356986
0.015706504899866278319
0.0156887391517083509
0.015670829261365357143
0.015652844114492824035
0.015634923144273261963
0.015616731054814118537
0.015598191098215525088
0.01557907338529744036
0.015559864099893639874
0.015540803634841685033
0.015522601658259881086
0.015505016257075437264
0.015488501352979633374
0.015472140372294971439
0.015456112246001161431
0.015439381131293181473
0.015422371438046027226
0.015404684846432047801
0.015387107372241696363
0.015369545702050489006
0.015352535373899892437
0.015336015608031407925
0.015320010370209658293
0.0153042866247949539
0.015288486555061164135
0.015272322877769670818
0.015255839045797921216
0.015239108405821790576
0.015222463669242318127
0.015205713130186926385
0.015189275800758040083
0.015172493324188825528
0.015156177857396339534
0.015139209488656796276
0.015122677834725874527
0.015105405395516514205
0.015088719110640309851
0.015071807822114671044
0.015055423167128496875
0.015039142788985283491
0.015022821357097504782
0.015006640264350609021
0.014990318501044140945
0.014974073444617062856
0.014958193200872042794
0.014942076979482217872
0.014926876717485925219
0.014911082176826410267
0.014896175670074391154
0.0148806042376254926
0.014865459842896239923
0.014849599378869572652
0.014834077916575240386
0.014817745025206769185
0.014802370057903867923
0.014786256091147696387
0.014772007518968838582
0.014757100406694567338
0.01474402717854969222
0.014729772021044883201
0.014716552703660847404
0.014701027987242603831
0.014686570657282398134
0.014669661222464436268
0.014654399901116532332
0.014637598632118681979
0.01462262954089399436
0.014606698633650007021
0.014592974385573059468
0.014577830495761513394
0.014565383937328570119
0.01455076251106273387
0.014538671814156451864
0.014523815549856542925
0.014511269370514202903
0.014495359284137424721
0.01448197640360861238
0.01446522741743080584
0.014451637959511617545
0.014435207771310978875
0.014422346339318574057
0.014406670929143487736
0.014394077779825530453
0.014378152920794022573
0.014365044803584888292
0.014348755281211530987
0.014335946048086564697
0.014320394673602354629
0.014308354711608572973
0.014293665318386097537
0.01428228515850824866
0.014267889385086907419
0.01425717006569937606
0.01424276020844877054
0.014232103201236457474
0.014217303432983668596
0.014206352431455279706
0.014191305270965825711
0.014180460823727619735
0.014165105240456072472
0.01415419904415414834
0.014138673259723590764
0.014127489308152670067
0.01411180304535909584
0.014100387071359027011
0.014084593433328468012
0.01407308646650736253
0.014057676975571064756
0.014046969850311901915
0.01403230146610913269
0.014022240479282563341
0.014007843520128850437
0.013997787614833763145
0.013983227344638988338
0.013973055051778610763
0.013957966179059002471
0.013947282946460040631
0.013931445799458524321
0.013920442117070322072
0.013904480840022296825
0.013894015851814286652
0.013878528245064235616
0.013868648144453628659
0.013853806979731876983
0.013844389673746302152
0.013830324760195881681
0.013821700305521218699
0.0138081509423441922
0.013799681194191363784
0.013785866322262000858
0.013776799948527568285
0.013762171753399785393
4.5003273217984636468e-05
6.1219327780852507035e-05
8.309594896562204206e-05
9.9460540907411458425e-05
0.00011846656814392070387
0.00014433935368689135379
0.00016946126558408191698
0.00019263669909889033992
0.00022628565839038754389
0.00027564700117148658535
0.00032789710701120312972
0.00036837870874252917229
0.00040017496804031408133
0.00044228765100800800179
0.00050088762494735644161
0.00056548760783766435865
0.00063015637105572010115
0.00069170761505300566024
0.00073718618185312655058
0.00076178380684709307881
0.00078578502088569519065
0.00083569357446243300921
0.00091611302750465488723
0.0010006463018816210472
0.0010633328590530025104
0.0010989948856936328572
0.0011276614161852952824
0.001180444281817201414
0.0012976335615344598493
0.0014755004957516422437
0.0016653783358366921336
0.0018161074384457126431
0.0018994085385629986672
0.0019262423703071626397
0.0019315961967171512998
0.0019378744128000697546
0.0019526669659899516945
0.0019917296781176560203
0.0020927403331002653042
0.0022328138906967326741
0.0023760519960742058736
0.0024981677530653972896
0.0025778716132231057831
0.0026190765328905473569
0.0026585084492179744155
0.0027466128189094591791
0.0030245349643304871544
0.0034659554675878518487
0.003764541195849854284
0.0038952625230244610106
0.0039249526299435242085
0.0039297515798563560641
0.0039416484399824877963
0.0039811565673091619047
0.0040768639663263427433
0.0042016779721819174503
0.0043425353059046356216
0.0044767674135673439853
0.0045719146490819971909
0.0046124120841897226636
0.0046181382791740032898
0.004621378193363408389
0.0046485620427665933982
0.0047861530286715013929
0.0051763063581863983861
0.0055548979762271881097
0.0058383582150281750425
0.0060377035918013485447
0.0061580778418597144006
0.0062126996299263275922
0.0062389619373538485192
0.0062845658557639481889
0.0064364787700410394308
0.0069929042510280042463
0.0076841806051997797039
0.0080388021848965627442
0.0081294342763367759969
0.0081165554975305941043
0.0080487879351643469572
0.0080351484696265483565
0.0081052273674276278242
0.0085060275044821082036
0.0093279277159541030412
0.0098625987695206557282
0.010089842333029520535
0.010128105729105213798
0.010115215679399261126
0.01011557271986155554
0.010208387384456616906
0.010519017156166474147
0.010676410116163510128
0.010677943713203718809
0.010566106638707696563
0.010322357907453930462
0.010241410008368328002
0.010249723339650627582
0.010347437437347440509
0.010593008573403124573
0.01077563438110347091
0.01090533863148339562
0.011009030978974924941
0.011088446809133232704
0.011133253240586671318
0.01114604054114893758
0.011141497070870720956
0.011097018920175772544
0.01098912012755318135
0.01092341369055272772
0.010901275422278953325
0.010900089515714805888
0.010919520983590643229
0.011013095274453914979
0.011158073403052375452
0.011247780819159537702
0.011291960007196694821
0.01132063030861480725
0.011369748818614137248
0.011488618100745114428
0.011683814583860056488
0.011875858455067290695
0.012037346850786117755
0.012167201996675877998
0.012281146849935246912
0.012397619728211597273
0.012524776883151077927
0.012661305036284379449
0.012796685598732822353
0.012922869204660063225
0.01303833870640749848
0.013148744728167507598
0.013262656633066549974
0.013390837869477638378
0.013539519612702159701
0.013706746261402079357
0.013883462806410267615
0.014056601116987206546
0.014215804036340420544
0.014354227363294754308
0.014473202568501394513
0.014581519131222638042
0.014691451941929943234
0.014813989804047909479
0.014954708437153758221
0.015108903495140825826
0.015271307314493895793
0.015429652016797417921
0.015574475767310323737
0.015699188628349958208
0.015802751536593131337
0.01589078053288417447
0.01597435517619006512
0.016068665688620521054
0.016185329740287468514
0.01633051986516194376
0.016500379011711720917
0.016684279706443268243
0.016870686370672224874
0.017047653471062136632
0.017205816667697257372
0.017339947860849583977
0.017449730194536244854
0.01753672560044752804
0.017607683811466396523
0.017672682753451664228
0.0177410165406031127
0.017821872859606759792
0.017920604907694172997
0.018039473344480218969
0.018178627676644593808
0.018336580653364072807
0.01850756296644865892
0.018685669850708450102
0.01886457849461140035
0.019038900897067424778
0.019202208930963693412
0.019349567439741980485
0.019478625030534223866
0.019589282292698809163
0.019680375065381266325
0.019753193047871042687
0.019810909975896351387
0.019854077428349027612
0.019884736560819713663
0.01990439960352670401
0.019916088536616138871
0.019920798718383311149
0.019921015606408982307
0.019919614164209710483
0.019915097423759752643
0.01897419064410199932
0.018955366358765875917
0.018936300914975952303
0.018917396940197662297
0.01889893986127369821
0.018880681372018350006
0.018862118463546368591
0.018843024787478918763
0.018823209341966320313
0.018802412541530404838
0.018780524941244824966
0.018758096935124285443
0.018735927584091319892
0.018714664074953341055
0.018694211867622250595
0.018674281982004093533
0.01865432226384789241
0.018634515782317052218
0.018614966878506722381
0.018596261352651091703
0.018577983495463225305
0.018560207118098713541
0.018542238172519879408
0.018524235177137766267
0.018505178309925169461
0.018485275031312354416
0.018464336338446137031
0.018443934710965437934
0.018424211217075880942
0.018405793372358272841
0.01838758669474559182
0.018369822625606078287
0.018351440574215272666
0.018332822684069879221
0.018312940723013915872
0.01829279747208050616
0.018271946085087968636
0.018251703718279770061
0.018231186544701610125
0.018211312067184438901
0.018191006115923540748
0.018171301884614375621
0.018151207793318479417
0.018131705226022674232
0.01811168694278935884
0.018092348818428007073
0.018072483346099867813
0.01805313479570021945
0.018032600730356108248
0.018012051610111420863
0.017990128118607381924
0.017968744697954001921
0.01794675197470669073
0.017925992491369689696
0.017904688083428384193
0.017884286500123705577
0.017862926688360154792
0.017842620361486545566
0.017821853755470545844
0.01780247961324189776
0.017782275738129297432
0.017762932141490748311
0.017742677343599494444
0.017723715602610556202
0.017703920379131012769
0.017684856899525504964
0.017664276547374620913
0.017644545986173782587
0.017623918659007229565
0.017604613483504359672
0.017584288182505139475
0.017565095190838170974
0.017544926305225756746
0.017526189894437535499
0.017506338199714976955
0.017487627234723256836
0.017467353393865535371
0.017448059700611723288
0.017427076412391002969
0.017406853943192863998
0.017384761231984336566
0.017363597673071235611
0.017340867423993173296
0.017319644989273304259
0.017297372865095948097
0.017277238414420068024
0.01725647364490944663
0.017237707499152800372
0.017217531499210937673
0.017198591307425851321
0.017177899412564645587
0.017158794385755411771
0.017138416661588207895
0.017119875128447488433
0.01710012877801336123
0.0170821604145445817
0.017062694818730975155
0.017044358611862476388
0.017023468952989506686
0.01700329193751731055
0.016980924880436693708
0.016960474068483468585
0.016938669010562078937
0.01691893945042466027
0.016897398625171949904
0.016877855924142849686
0.01685671049190491308
0.016838070034722738694
0.016817974263249806793
0.01680009423565959753
0.016780168137775757636
0.01676193562157013775
0.016741339109321309864
0.016722689400495347606
0.016702041412439638801
0.016683545519019314651
0.016662857926535337705
0.016644192460668741362
0.016623487539130721996
0.016605256322828065157
0.016585465997223713952
0.016568147604358148678
0.016549022651096534364
0.016531956677957249796
0.016512720814489418447
0.016495285068054491018
0.016475767285702307835
0.016457875717897821333
0.016437780477176745092
0.016418897670224797541
0.01639766031337545546
0.016378055514924001745
0.016357005704000986829
0.016338616819911631894
0.016319401409647785184
0.016302929518865152958
0.016285054172508587472