/*--------------------------------*- C++ -*----------------------------------*\
  =========                 |
  \\      /  F ield         | OpenFOAM: The Open Source CFD Toolbox
   \\    /   O peration     | Website:  https://openfoam.org
    \\  /    A nd           | Version:  12
     \\/     M anipulation  |
\*---------------------------------------------------------------------------*/
FoamFile
{
    format      ascii;
    class       volScalarField;
    location    "0.00514";
    object      k_0;
}
// * * * * * * * * * * * * * * * * * * * * * * * * * * * * * * * * * * * * * //

dimensions      [0 2 -2 0 0 0 0];

internalField   nonuniform List<scalar> 
75962
(
4.230114257323965265e-05
6.2902135311492887878e-05
8.4795561206964936707e-05
9.4465756669915551644e-05
0.00010079600283518742258
0.00011417260791258419448
0.0001501909075217235654
0.00019349959886968805061
0.00021916102354982094523
0.00023831954195184195766
0.00026997161420520365913
0.00031922419316775528823
0.00037000744458316693532
0.00041096897263880071728
0.00044572175936428385257
0.00048747556646441581084
0.00054859497503766845635
0.00062131796276647139211
0.00067969810262588387529
0.00071052310376088813337
0.00073119399124446323758
0.00077102734030443597323
0.00083749488617756930216
0.00091192555619334187897
0.00097322563966083448003
0.0010118470148015694388
0.0010403483276278299979
0.0010885944417190521975
0.0011823086603200848223
0.0013167279135358328761
0.001457999928718039075
0.0015704188285768545547
0.0016491323476065019443
0.0017131505476666009612
0.0017744381829492997336
0.0018254568996296962995
0.0018563034218792265513
0.001873197975049208314
0.0018955006108991344967
0.0019461421592007381934
0.0020830981537519567201
0.0022544926942502162108
0.0023743210278844768292
0.0024336829084289171056
0.0024804126257992743614
0.0025838344626441154227
0.0029129764010252718644
0.0033988539205698138114
0.0037010736655625695035
0.0038122578620610899323
0.003825342511919114976
0.0038132469244230482626
0.0037869881509007149133
0.00377858822815192643
0.0037797226300261836836
0.0037966313792335100105
0.0038760041133699368703
0.0041025233498676923899
0.0042939050149013455529
0.004375048906885347505
0.0043848122793578390294
0.0043801736678096584929
0.0043942410284403040505
0.0044966402658632182582
0.0047649592507395767058
0.0050029441281281648163
0.0051953864598230925509
0.0053562813872251599859
0.0054777710587596709427
0.0055482215712714085323
0.0055818610312995849132
0.0056212775049320632195
0.0057242883356259490271
0.0061004409647096935823
0.0068609087449278049683
0.0073782208385848174759
0.0075921382367928180041
0.0076228165814878918322
0.0076010634765372453447
0.0075812618061225581917
0.0076092691963808344394
0.0078043082433078428753
0.0083619646238493692408
0.008810740380232336133
0.0090236608900437602354
0.0090721179774253240397
0.0090660595244766249007
0.0090601384754806606192
0.0090942849180670297382
0.0092411034714828654141
0.0093230135811674507557
0.0093173557893904915966
0.00922540702478205632
0.0090828765974927411914
0.0090535764801199826446
0.0090850732494183426835
0.009271355676940373769
0.009556264035107162047
0.0097083610188479791542
0.0097685409341345657425
0.0097850404711382725498
0.0097886710865053207925
0.009788565213888192687
0.009783054779692684777
0.0097590719714498435494
0.0097243743077778214967
0.0097000962538406326069
0.0096887755012615567329
0.0096856611636680200322
0.0096899689429504418797
0.0097210597987466562664
0.0098386240714936536861
0.0099910590779954417534
0.010097017852455822742
0.010180675613442519145
0.010275304199019027682
0.010398255989372955435
0.010542679245888067832
0.01068379773400031027
0.010795936118723594224
0.010866166599294365888
0.01090206380402621196
0.010924863290219312059
0.010961395015675973186
0.011044104893164487582
0.011230913229732590944
0.011450510686092955567
0.011655993354636986353
0.01182445835496853323
0.0119510446789217184
0.012051155140141487851
0.012147301524000089085
0.012257787181827092468
0.012387619244526811013
0.01252845277936835873
0.012664572774205976047
0.012778686557743692415
0.012863771863517989291
0.012924483047482976383
0.012976171775524418875
0.013040737467891732465
0.013138024024448200291
0.013277992936122529066
0.013458633617630864215
0.013665345792795555516
0.013876654908745783903
0.014070306369969460755
0.014230098382736446755
0.014350055952215881247
0.014433915966828374591
0.014494282215219006504
0.014546364612471347072
0.014606580664838187192
0.014686915328902004629
0.014793376168621049857
0.014924522254914465366
0.015074534979335061508
0.015233535830328132077
0.015389611190242171931
0.015533746463070950694
0.015658239467771190717
0.015761158588294993388
0.015845921846404004835
0.015918381052173566359
0.015988588347358841102
0.016064965140081235301
0.016154299929466157254
0.016261752871361667694
0.016389167508261942574
0.016534560536354853122
0.016693626358259598674
0.01686102752142451186
0.017031288783848304302
0.01719699780003276085
0.017350773302225480643
0.017488138717839076669
0.017604749704208038502
0.017698409996744594863
0.017770473932610889728
0.017822678124156061952
0.017858212112422104656
0.017880717465746806538
0.017894003281746069522
0.017901156411711208194
0.017904194827721531952
0.017904766001046790169
0.017904133078104657317
0.017901574413401573349
0.017100617437910633351
0.017083426621985628446
0.01706630766125954296
0.017049103418453448455
0.017031867982426212443
0.017014681269782665207
0.016997124819954228386
0.016978635494285916618
0.016959102429998866579
0.016939209680914821265
0.016919752463705417522
0.01690107047808970045
0.016883011301713969632
0.016865443623562220016
0.016848176249021951795
0.016830940079506685053
0.016813443651605766704
0.016795944046620530504
0.016778934789102670916
0.016762764061135929095
0.016747068272983372389
0.016731376635168108274
0.016715165420637053545
0.016698408890040095098
0.016680957482990445978
0.016663217488874608463
0.016645392154291265702
0.01662808651566775528
0.016610985579755467578
0.016593997612481821424
0.01657639044264198544
0.016558536127662809578
0.016540251005352245295
0.016522255956705502594
0.016504071772577139782
0.016486229821430449516
0.016468191093240637513
0.016450650084669459633
0.016433045532699357139
0.016415968799699937747
0.016398648941233030796
0.016381612368959255766
0.016363981755677253077
0.016346356775948478468
0.016327884962540995667
0.016309504444259843164
0.016290304022188187294
0.016271322121878956102
0.01625164765819733792
0.016232619457731786716
0.016213268350494958875
0.01619467729217539953
0.016175621786781536893
0.016157280262655882713
0.016138517059435905643
0.016120446449194823779
0.016101697895011597705
0.016083559745419053616
0.016064895485974901856
0.016047016084968009075
0.016028550081244548331
0.016010761490653953321
0.015992491137705903276
0.015975160422203427135
0.015957222236053260345
0.015939850278055948257
0.015921414516009459172
0.015903644655480751041
0.01588528879075157621
0.015868141804668906697
0.01585054703857315464
0.015833937951577788106
0.015816483008510653224
0.015799841891756701701
0.015782168191894097031
0.015765181170243048464
0.015746904538644412863
0.015729284896291530205
0.015710529020577231746
0.015692585037340559678
0.015673436624452911914
0.015654876825694802323
0.015635046071011907826
0.015616190819346157173
0.015596687723790829058
0.015578614816130235618
0.015559882703833214507
0.015542221027918485393
0.015523743719560870527
0.015506426923141717819
0.015488617621889137072
0.015471968416074753649
0.015454691839099735443
0.015438164819486498505
0.01542073238393319029
0.0154036617998192394
0.015385347460324150931
0.015367242236279337816
0.015348063446981256158
0.01532959914520797863
0.015310472006844771595
0.015292151898639728957
0.015272895061077953333
0.015254284056263372332
0.015234806165922749541
0.01521654936403709496
0.015197920814506035714
0.015180900294785854357
0.015163298747470349906
0.015146771042464301019
0.015129006923503702728
0.015111995952012039976
0.015093847892741835831
0.015076683868731724156
0.015058596352793818945
0.015041555347994657252
0.015023774716290677969
0.015007216066159944148
0.014990054365259313299
0.014973935930061885863
0.014956967251252954038
0.014940707022435117252
0.014923375229378884818
0.014906571356772297873
0.014888825687584471627
0.014871809641904739155
0.014854214003617294965
0.014837193070947949161
0.014819250184872843554
0.014801567090907455024
0.014783171746723378776
0.014765560979700805347
0.014748006251587052542
0.014731535016481044423
0.014715405327957953308
0.014700032005122735598
0.014684478132986561807
0.014668809855625821598
0.01465230754357421325
0.014635713546732083065
0.014618654364257509595
0.014602342288802177411
0.014585941260393378571
0.01457059003264063457
0.014554942029795198827
0.014540131480866868435
0.014524589150113568353
0.014509630616163496017
0.014493825635350014031
0.014478708149304174782
0.014462861084136564502
0.01444777132523146837
0.01443215832140426827
0.014417086748582209205
0.014401610002082626191
0.014386031913137730873
0.014370041671229998731
0.014353803256879942712
0.014337490068390737127
0.014321496784114803869
0.014305316132976027971
0.014289861884197674335
0.014273642852851752341
0.014258380920333950728
0.014242313030840390506
0.014227267818754382039
0.014212059239071116179
0.014197514711135370696
0.014183179216717401588
0.014168876651979885398
0.014154468976250958456
0.014140037401752401577
0.014125185127457489179
0.014110467717404730909
0.014095406609622716451
0.014080311709851550672
0.01406552290870422342
0.014050637664390124015
0.014036763240708337655
0.014022865278835018252
0.014009792866811988585
0.013996397948665462857
0.01398321868788218042
0.013968583007643057756
0.013954411262927712487
0.013938487791019161036
0.013923660548446152238
0.013908086242783047198
0.013893793062188901366
0.013879179071661361042
0.013865950042609643394
0.013851926479059363875
0.013839734820102710805
0.013826037833295622831
0.013814245267293729855
0.013800349873551743043
0.01378818792084660419
0.013773414881578934302
0.013760614377065457856
0.0137453254493004242
0.013732527996860539876
0.013717636819119473704
0.013705607043915844778
0.013691212472914472686
0.013679026963806781292
0.013664075638131094326
0.013651114058146104902
0.013635549457234979326
0.013622887134588316377
0.013608063313422890175
0.013596232080443469356
0.013582349416700353548
0.013571323318055853943
0.013557914408774646847
0.013547661802241539597
0.013534379784272597413
0.013524212782550417561
0.013510593094516401211
0.013500184823364447945
0.013486118092386716397
0.013475723270243860491
0.013461305098129625751
0.013450766958580058497
0.013436279900313896976
0.013425721661967338419
0.013411486848738288225
0.013400821276700725093
0.01338658594983653527
0.013375916287846258829
0.013361836092276525162
0.013351862038966490556
0.01333845643946508959
0.013329086007757971755
0.01331592418903933088
0.013306428243262500774
0.013293070555458096765
0.013283362172838276624
0.013269302655378859002
0.013259158524512185476
0.013244367912174601423
0.013233744078869319472
0.013218931082697621057
0.013208951847225917919
0.013194642184268447205
0.013185425989644821571
0.013171945337902979042
0.013163368876971795474
0.013150532955473911295
0.013142646007719778825
0.01313030439134447655
0.013122406700856339631
0.01310967093629233915
0.013101322262302135188
0.013087966369749891651
3.1609511940131930496e-05
5.450159430109126151e-05
8.0243332343010991686e-05
0.00010275588784495066344
0.00012201151756192728367
0.00014278490988171225855
0.00016434373652492715624
0.00018600544388342526102
0.00021611640797824431624
0.0002601851512270838781
0.00030872336705732019921
0.00035005402424589536405
0.00038665219620898544405
0.00043059701479034907801
0.00048392617983533073745
0.00054071127483459359431
0.00060045345153592467706
0.00066041792950609736531
0.00070549938761453893834
0.00073029430152310058008
0.00075452649944329427695
0.00080362897601329559907
0.00088250092912468553873
0.00097013902638357226403
0.0010400296649300234085
0.0010804648397754357692
0.0011019431805338573711
0.001128815599705399516
0.0011886002932192329083
0.0013202735984843025439
0.0014767762901880825046
0.0016170106440815484004
0.001722440956677636411
0.0017958995273132801699
0.0018464607207871984451
0.0018793198881194663787
0.0018994067148672734175
0.0019195802882780387509
0.0019593122980137898069
0.00205744887897571678
0.0022293818943267102416
0.0024013375576886486495
0.0025262823516733743691
0.0025887544676596089231
0.0026282112619959328501
0.0027070562532772691686
0.0029544503560541739498
0.0034278824408569639332
0.0037624091708127562796
0.0039088947287207985448
0.0039373173312898454568
0.0039325585656827697842
0.0039184077648562734217
0.0039150130825372150833
0.0039181062418302201045
0.0039387015397870503083
0.0040200114368931358019
0.0042311983749251953074
0.004412391634669895514
0.0045016305830804384872
0.0045219113621553829255
0.0045227409682982279773
0.0045328752583418405533
0.0046004652785896693254
0.0048402658960175438604
0.0051494288909803374171
0.0054172006711193628273
0.0056451806848026630029
0.0058138165591993676631
0.0059092544006096054537
0.0059489969157289551357
0.0059845879630200911684
0.0060743360189605506358
0.0063961841809585919319
0.0070279103575844100588
0.0074703943125238444697
0.0076634477068941901992
0.0076961644359965454207
0.0076867088336558817355
0.0076881255000893610613
0.0077662656526343749885
0.0081656787628025615661
0.0089047050721946467006
0.0093822309191036699916
0.0095869257159769041138
0.0096232236872724648269
0.0096105680559962925608
0.0096060109920716105214
0.0096604055118773794059
0.0098674999025136437419
0.0099764394865511519389
0.0099731703063295623624
0.0098730028483936509848
0.0097031579853171234795
0.0096647055274367739408
0.0096979667576630648046
0.0099048290114965471809
0.010226704652684161581
0.010391040789663089083
0.01044775689931309523
0.010459182916008249314
0.010459847229965102064
0.010455259830585305128
0.010427506312568970287
0.010354561983353832363
0.010298260891860472679
0.010273253182203942457
0.010268121648988076666
0.010277185325863235146
0.010336350576381238969
0.010429184971304619398
0.01048259438864760848
0.010519772091082313717
0.010577146179571665641
0.010680825943722953644
0.010829382193713075339
0.011000201222233187831
0.011157673562078774046
0.011274019962275168977
0.011341039123414775602
0.011373578557528426711
0.011401374409941614219
0.011457749989151418471
0.011570172992151199834
0.011730203430193543793
0.011916196072093442754
0.012101271922893204816
0.012264378708741762586
0.012399967330418197597
0.012516471512582498515
0.012630616277830309865
0.012758182752875366073
0.012905706064008537481
0.013068081729167058819
0.013232118494566402767
0.013379216445389335854
0.013494177084321835533
0.013572613957151119513
0.013621830423243365404
0.013659857245380624749
0.013710964291642204274
0.013796399044942829828
0.013930383983289829075
0.014114675662888511581
0.014337944749546499557
0.014578707297505771531
0.014809637060922161908
0.015006897560097669578
0.015154593894522531625
0.015248533759705747842
0.015299010118202397562
0.015324236757024793307
0.015348244288753528503
0.015394452796957006774
0.015493310119561539209
0.015631974772261802986
0.015794148355495512409
0.015967233728552406719
0.016137708485077131848
0.016295781132482086567
0.016432985092768054303
0.01654710424880698888
0.016641583853762024342
0.016723265374018164708
0.016803225424013527173
0.016890148190660272953
0.016991502888205611832
0.017112410615951697407
0.017254224179693515573
0.017414118457792605171
0.017587280925812541488
0.017768647556739375348
0.017951885651859372794
0.018129004900835653247
0.018292324846467963861
0.018437901867391710137
0.018561245627544933207
0.018660142814186642807
0.018736378916104610287
0.018791382219209458448
0.01882877957012439249
0.018852409847998480991
0.018866243335345554699
0.018873704266662801043
0.018876434303124554198
0.018876563984683274872
0.01887504207768280623
0.018870538369409300961
0.018858894792000698709
0.018019405088852667035
0.018001198135500103698
0.017982999022787250765
0.017964960031288331604
0.017947226794617927165
0.017929690409718770927
0.01791198193713741324
0.017893696263676286268
0.017874475881470210104
0.017854221570875360853
0.01783327337017175801
0.017812308125614195048
0.017791904211361550536
0.017772246251420268509
0.017753180659554709808
0.017734398089299191481
0.017715619924279432662
0.017696787045777446351
0.017678266250151494776
0.017660433527980266832
0.017643439992577166636
0.017626836085060562653
0.01761030584610784322
0.017593297224659434214
0.017575662826035155784
0.017557001107464456635
0.017537857847568588676
0.017518708989996221309
0.017500469582224457282
0.017482849133670881614
0.017465644850809602245
0.017448021784537116885
0.017430076280875835687
0.017411507718637333347
0.017392786889046687321
0.017373694694183726417
0.017354747708790869976
0.017335631139283824709
0.017316841701519390673
0.017297985377704182264
0.017279558988035507994
0.017261096397004231651
0.0172428706305978105
0.017224235775359520578
0.017205497501807810734
0.017186244102983919829
0.017167082939262331281
0.017147484989180655085
0.01712787077687223658
0.017107553507706825535
0.017087303647205804441
0.01706672897368275571
0.01704667444068814694
0.017026564714673654566
0.017007036576669694317
0.016987297014677087831
0.016967927592521577645
0.016948232384654361021
0.016929093920105355714
0.016909844130419866143
0.016891045781897404826
0.016871874882803079149
0.016853074016465970086
0.016834212900724641881
0.016815928068733835415
0.016797260739130740609
0.016778639548950525368
0.016759430899053025243
0.016740579552745729619
0.016721644385028298224
0.016703246620677920237
0.016684721877935449613
0.016666581081677522141
0.01664828802702903246
0.016630318851201152802
0.016612014045928626821
0.016593683706544456319
0.016574724579441327266
0.016555596586345734667
0.01653587321927053877
0.016516025970499951386
0.016495666362968130353
0.016475228640069779912
0.016454597351956087165
0.016434374026665934942
0.016414585159721304525
0.016395539881776655805
0.016376654945454278273
0.016357893459578134315
0.016338835361275602653
0.016320010748266319811
0.016301358965709607934
0.01628322892789301965
0.016265244275426211235
0.016247481488372968184
0.016229642509130146749
0.01621166470565901449
0.016193108051632282979
0.016173853828913252462
0.016153874790331035349
0.016133736265577663244
0.016113662641534839959
0.016093905855132147747
0.016074097812474385377
0.016054293613202364616
0.016034471990002078373
0.016015094714993207553
0.015996237018677323533
0.015978082358872384289
0.015960111660447980075
0.015942251919173745095
0.015923859900367563769
0.015905300862976829573
0.015886470234789819289
0.015867840918196929323
0.015849218507768776665
0.015830712145749908926
0.015812194404487254357
0.015793941851605309418
0.015776008280213749124
0.015758409536044001853
0.015741024686189541981
0.015723625660786284819
0.015706097274425456778
0.015688322984501054669
0.015670400287760975766
0.015652400356151938143
0.015634464122594501218
0.015616258103590408002
0.015597707516473411499
0.015578584409422198756
0.015559375553140559686
0.015540321320846553488
0.015522128975364342732
0.015504554687444363839
0.015488049441934407732
0.015471695235374210292
0.015455669570618345982
0.015438936992723821875
0.015421923487566600516
0.015404232322575501374
0.015386651393699738929
0.015369088869465398484
0.015352081829826768125
0.015335568949968835309
0.01531957313575029421
0.015303859003668462621
0.015288066320437819837
0.01527190724381397198
0.015255424972352753937
0.01523869306852648764
0.015222043530187077606
0.015205285917358027023
0.015188839279042493091
0.015172047780097577818
0.015155723150571924138
0.015138746872042647962
0.015122209413574040637
0.015104934834317771536
0.01508825221030885011
0.015071349324608705744
0.015054977814105236986
0.015038710885356514069
0.015022401750507084761
0.015006229379467665025
0.01498991166863562069
0.014973667745047063507
0.0149577838031888493
0.014941663114420314362
0.014926457760385035065
0.014910660495317471994
0.014895754399550978006
0.014880185096042039539
0.014865044420976534015
0.014849188317133679704
0.014833671563737696811
0.014817346199077293181
0.014801980441473306868
0.014785879550087524179
0.014771644761038982274
0.014756750029750130213
0.014743684297485506671
0.014729429334030206752
0.014716201529401940623
0.014700663693618505612
0.014686190213379954339
0.014669266922719111437
0.0146539982740137055
0.014637197231382178403
0.014622237980912651187
0.014606324647183598769
0.014592620031857335069
0.014577496574113481265
0.014565064088371923456
0.014550449003013095003
0.01453835433205799034
0.01452348559975026078
0.014510920217466477186
0.014494990123571150839
0.014481589597251792734
0.014464830216602409321
0.01445123860805332984
0.014434813240175047716
0.014421960202059051076
0.014406292571880429526
0.014393704403084617988
0.014377781706998804187
0.014364675174630936808
0.014348389653342112637
0.014335587610793683322
0.01432004622012593778
0.01430801874885698384
0.014293341845888927685
0.014281971638639421804
0.014267583452899428378
0.014256865641150711158
0.014242453619875534987
0.014231790719869555698
0.014216984583764896016
0.01420602804742793733
0.014190977616288675059
0.014180129599401625207
0.014164771088394974979
0.01415386087640861483
0.014138329682153984168
0.01412714017134684974
0.014111448619427729989
0.014100029540007337492
0.014084235636290838231
0.014072733220755091754
0.014057332275574541125
0.014046634618723349147
0.014031974249607290575
0.014021917081574812938
0.014007518522226121774
0.013997455953061949466
0.013982885734562071345
0.013972701095943527994
0.013957601411035951838
0.013946910684713995435
0.013931072295603192171
0.013920073072563413433
0.013904122393520420772
0.01389367058052248978
0.013878197524221726894
0.013868331912231071298
0.013853503620544160846
0.013844098565861552921
0.013830043226668064724
0.013821423840823576779
0.0138078734606102288
0.013799395858375603993
0.013785566802541027523
0.013776481251695893437
0.013761829966272088113
4.5030090444507671604e-05
6.1218725922938617878e-05
8.3079546514489501668e-05
9.9440653922644450802e-05
0.00011844005269692485147
0.0001443295536126259907
0.00016945504080658298956
0.00019263763244759991183
0.0002263197627904179601
0.000275698246113263018
0.00032792063919247069941
0.00036836259921744232909
0.00040015541182531182834
0.00044230092293581454218
0.00050091830463278562164
0.00056550830290495377167
0.00063017492352403323575
0.00069170679577597923154
0.00073712254506936691466
0.00076167649455911585858
0.00078571159108159743106
0.00083571440649359647525
0.00091618074283471458413
0.0010006796072053875113
0.0010632803202234991907
0.0010988785131852204114
0.0011275688913109640707
0.0011804858957615849135
0.0012979273692640233735
0.0014758618983179753147
0.0016656417804910682995
0.0018161656164948213488
0.0018992651912438705906
0.0019259949181876646722
0.0019313382325273163037
0.001937627910744676215
0.0019524541721442282942
0.0019916523563918110337
0.0020929024849017287963
0.0022330125754626080521
0.0023762146991988908167
0.0024982042840667193287
0.002577748536756727972
0.0026188689525176549189
0.0026583614294309076444
0.002746742092604874657
0.0030255943619026956851
0.0034668378555771490156
0.0037648458600410194749
0.0038950819960895952457
0.0039245746614451444342
0.0039293738835962993203
0.0039413278323805495812
0.0039810014978373465047
0.0040768854287474001405
0.004201751989099631289
0.0043426241861706767547
0.0044767586895855075724
0.0045717084380690166737
0.0046120374304822985001
0.0046177296187205002856
0.0046210181677199093156
0.0046483938665305103363
0.004786668100039177462
0.0051774630742064831762
0.0055556307418458544811
0.0058387578625704716212
0.0060378027072705807432
0.0061578802876376317194
0.0062122699751968411125
0.0062384609241437852939
0.0062841878569793504367
0.0064368397359354633663
0.0069950510809798464862
0.0076855159183541865014
0.0080390426143852541929
0.0081290116031810105701
0.0081158852118714645829
0.0080480618783029846119
0.0080347034483434932178
0.008105341958373755637
0.0085082240453240465944
0.0093298639769119895426
0.0098633624097462548053
0.010089665550926395915
0.010127523490892055558
0.010114562346943970633
0.010115022044690778411
0.010208498158551885041
0.010519445873909924125
0.010675988492968163657
0.010677241243632265913
0.010564690802589940533
0.010321264474087534987
0.010240856047420145505
0.010249355875145228778
0.010347614647235686691
0.0105933224574137827
0.010775660441719391372
0.010905266085493728681
0.011008913857683566909
0.01108824580469955183
0.011132921154626131827
0.011145597220447492001
0.011140972355053619172
0.011096195107456078427
0.010988234422218006586
0.01092269766621451095
0.010900679685738373995
0.010899565656887712575
0.010919177365996613621
0.011013167337378761135
0.011158043494304813528
0.011247561393823869019
0.011291626530425478633
0.011320311305784083386
0.011369564084286232913
0.011488776146087500626
0.011684053980716769747
0.011876022369738949494
0.012037402533777432842
0.01216720032629709132
0.012281158013518502642
0.012397678221427635425
0.012524871625765959804
0.012661395807706837813
0.012796733903147956835
0.012922869579902242568
0.013038317531362845006
0.013148737956132434263
0.013262695303229550536
0.013390944438046632065
0.013539697565362154505
0.013706973613982049998
0.013883693916139076829
0.014056785564678373965
0.014215904329883583684
0.014354227076958265066
0.014473114172853305051
0.014581380275734561608
0.014691317004936503207
0.014813912754546390907
0.01495471174750337591
0.015108976785674032434
0.015271413577152427588
0.015429742809245295537
0.015574516495766577151
0.015699162188358282977
0.015802662160637165334
0.015890653032653065391
0.015974231021355294463
0.016068584007897668969
0.016185308876253676202
0.016330551904941540547
0.016500443035674102615
0.016684367852646285468
0.016870801844234707689
0.017047785819276541769
0.017205931829288416413
0.017340000928919043627
0.017449683149698008017
0.017536569472016622084
0.017607452082402327148
0.017672434027550816549
0.017740805081825523903
0.017821725012082755002
0.017920519432672817051
0.018039444380055329187
0.018178663824989012288
0.018336694630087094215
0.018507753596996787127
0.01868591417578783706
0.018864835030772044572
0.019039119531910453365
0.019202342561376265634
0.019349585606822022193
0.019478518848504940142
0.019589060307435825214
0.019680065108558960491
0.019752839098761677122
0.019810544677156361609
0.019853708316716407734
0.019884351648567229198
0.019903979421297526842
0.01991561907210859933
0.019920282245791263304
0.019920478918563015724
0.019919074302110761909
0.019914555946250037111
0.018973692899317971122
0.018954878824662735326
0.018935824167970273513
0.018916933552097035115
0.018898489677402988823
0.018880236542476093453
0.018861664034913214888
0.018842544022028243078
0.018822691471380374739
0.018801860711171056173
0.018779958113067606734
0.018757540623436874672
0.01873539895148342016
0.018714163144631444646
0.018693725169592511487
0.018673793848963046726
0.018653826469690736045
0.018634019367753586194
0.018614485082113021303
0.018595806017046072334
0.01857755392725330551
0.018559789108939881569
0.018541810873081650962
0.018523779756178092998
0.018504687503137752513
0.018484758850650373496
0.018463818923962801999
0.018443440603756612595
0.018423751895548148155
0.018405362572304080626
0.018387166537882110307
0.018369392433355349881
0.018350985394894242519
0.018332337553381105461
0.018312431733911067877
0.01829227756836051752
0.0182714283434180641
0.018251195918481500496
0.018230690431827147741
0.018210825645906116715
0.018190525259668934716
0.018170827171064687228
0.018150736461378033648
0.018131231693484448075
0.018111203085166213689
0.018091844712982110138
0.018071949457980983345
0.018052564758925561395
0.018031996767201709936
0.018011425850418736477
0.01798949913442282264
0.017968129152052713521
0.017946158584947222853
0.017925419796251507165
0.017904127965203919109
0.017883729455459088098
0.017862367613783017989
0.017842060488522021311
0.017821299107856600902
0.017801936727178675757
0.017781748868453697843
0.017762422028188958045
0.017742180761302277919
0.017723224921586313435
0.017703425382556006035
0.017684348912638203632
0.01766375335614390335
0.01764401262776142329
0.017623384609084687819
0.017604088058395229999
0.017583777366850291551
0.017564599630855777523
0.017544441488152838493
0.017525706876907378579
0.017505847800086644234
0.017487123051482703767
0.017466834407541223517
0.017447528421436389601
0.017426535639908931341
0.017406304588842184261
0.017384202954623343557
0.017363030292605677318
0.017340294474030609057
0.017319074630613141841
0.01729681643723416859
0.017276704905624631209
0.017255964374257058008
0.01723721491592187724
0.017217043895806447701
0.01719809891712188038
0.017177399582588095267
0.017158291875563176643
0.01713791968771291585
0.017119389670241551976
0.017099654009062704302
0.017081687603433794165
0.017062209894624393719
0.017043847338370856498
0.017022924853537454298
0.017002719949846586273
0.016980340920156388601
0.016959897756655000628
0.016938116577955058401
0.016918418570765664938
0.016896908602089446422
0.01687738892844981714
0.016856255210047660364
0.016837614713161159347
0.016817510021282962296
0.016799617434978202091
0.01677968091040420856
0.016761443669930289196
0.016740849226842175607
0.016722205870780909587
0.016701564687080640986
0.016683073121719366877
0.016662387508117205287
0.016643724366766986938
0.016623025141926067727
0.016604804466762802806
0.016585027575331548477
0.016567722429342023743
0.016548606796253112483
0.01653154334649498472
0.016512301809831677474
0.016494853503597459166
0.016475318025241172948
0.016457407367962483685
0.016437294196950474889
0.016418397525873422438
0.016397152456439498952
0.016377546578222091506
0.016356501394015246498
0.016338121183272349274
0.016318916126981330983
0.016302453900866313574
0.016284586238456296575