/*--------------------------------*- C++ -*----------------------------------*\
  =========                 |
  \\      /  F ield         | OpenFOAM: The Open Source CFD Toolbox
   \\    /   O peration     | Website:  https://openfoam.org
    \\  /    A nd           | Version:  12
     \\/     M anipulation  |
\*---------------------------------------------------------------------------*/
FoamFile
{
    format      ascii;
    class       volScalarField;
    location    "0.00514";
    object      pMean;
}
// * * * * * * * * * * * * * * * * * * * * * * * * * * * * * * * * * * * * * //

dimensions      [1 -1 -2 0 0 0 0];

internalField   nonuniform List<scalar> 
75962
(
98732.637532735534478
98732.851461243189988
98732.427735329212737
98732.07801045080123
98731.836122248452739
98731.552052433456993
98731.255000698802178
98730.893915776192443
98730.489437862386694
98730.109906698868144
98729.764374268139363
98729.395074741507415
98728.960086426683119
98728.498046470092959
98728.040683911269298
98727.577220464343554
98727.085426077741431
98726.563849843441858
98726.029466242427588
98725.487655179123976
98724.942882210307289
98724.42039739296888
98723.941102301279898
98723.48142967322201
98722.997076228828519
98722.477926853112876
98721.951202646989259
98721.436465422026231
98720.915873646124965
98720.372356148989638
98719.826735584443668
98719.312058321826044
98718.829601810110034
98718.352392266591778
98717.863318715331843
98717.374262782206642
98716.90237609257747
98716.459912034755689
98716.049538152379682
98715.658678397929179
98715.259831129485974
98714.838059940680978
98714.401798597333254
98713.96321891763364
98713.528174264298286
98713.104121682670666
98712.69872178339574
98712.308060299808858
98711.926037250465015
98711.553209284582408
98711.190081591266789
98710.826675932810758
98710.457313893552055
98710.090595354282414
98709.739753474888857
98709.402332691810443
98709.06864925113041
98708.743130049231695
98708.4375842330046
98708.151714580089902
98707.866872035781853
98707.57061270311533
98707.263336011616047
98706.945694102760172
98706.619237272389
98706.293152388141607
98705.978044075585785
98705.669668440503301
98705.349153261675383
98705.000531048921403
98704.633482201083098
98704.273189349027234
98703.945362384794862
98703.647026329010259
98703.357965482136933
98703.062936152506154
98702.765880652295891
98702.483232450293144
98702.224984395303181
98701.98582442998304
98701.752294199657626
98701.518635428379639
98701.293129218203831
98701.085385073776706
98700.892667317311862
98700.698871711385436
98700.490640232004807
98700.26777881954331
98700.042156224808423
98699.828342301188968
98699.636337668285705
98699.47197447445069
98699.335135963410721
98699.216027423797641
98699.098249488888541
98698.968593031488126
98698.825431106670294
98698.675498229655204
98698.52461692293582
98698.371464108393411
98698.210509417243884
98698.037031836269307
98697.850949326588307
98697.65524811251089
98697.453099351696437
98697.249676693463698
98697.054918035675655
98696.882190332224127
98696.740663445103564
98696.629166348750005
98696.537103506503627
98696.453371707175393
98696.37406884021766
98696.300453743970138
98696.231778605506406
98696.161966632280382
98696.082782121724449
98695.990406108205207
98695.888457042892696
98695.785906213248381
98695.690648002593662
98695.603873157611815
98695.519336713681696
98695.427522943049553
98695.322045381151838
98695.20367695078312
98695.078207696744357
98694.949350512455567
98694.813612403537263
98694.662507962289965
98694.48985013498168
98694.297863387459074
98694.096963071831851
98693.898851934194681
98693.709497914023814
98693.527264620715869
98693.346723849608679
98693.163755087560276
98692.977921596757369
98692.791781986161368
98692.610120712299249
98692.438540735034621
98692.28132244264998
98692.139387349016033
98692.010374368386692
98691.889497486481559
98691.771654636002495
98691.653898399395985
98691.535775745636784
98691.41800404166861
98691.300047396289301
98691.179481741768541
98691.053539084110525
98690.922776778403204
98690.792826259857975
98690.671899995606509
98690.566329903289443
98690.477522359433351
98690.40160760350409
98690.331551271374337
98690.260692477517296
98690.185170771175763
98690.103701691492461
98690.015657536801882
98689.920172393351095
98689.816655087663094
98689.706509197814739
98689.594184373680037
98689.485968419714482
98689.387168839864898
98689.29982603478129
98689.222341463406337
98689.150791960841161
98689.081174530452699
98689.011647206643829
98688.94324207950558
98688.879732740475447
98688.827118991510361
98688.791386609664187
98688.775477841467364
98688.777653675642796
98688.7921072972822
98688.810984769748757
98688.827531112474389
98688.839028970498475
98688.847047274146462
98688.854880899467389
98688.864710304012988
98690.519757346875849
98690.544759203577996
98690.5628288686421
98690.573260264151031
98690.5755548425077
98690.569806366387638
98690.557724032711121
98690.54354597251222
98690.533296342560789
98690.532342451871955
98690.542838104927796
98690.56275669245224
98690.587052836213843
98690.610096185657312
98690.62816675909562
98690.640569276874885
98690.648781528565451
98690.654225364327431
98690.656562829521135
98690.653711680759443
98690.643318091300898
98690.624399428226752
98690.598347347899107
98690.568543049943401
98690.53888830334472
98690.512457019431167
98690.490818068152294
98690.4739012203936
98690.460491585181444
98690.449038395599928
98690.438359157065861
98690.42787551190122
98690.417442943784408
98690.40710564031906
98690.396939771730104
98690.386687918697135
98690.375541125773452
98690.362161121171084
98690.345033798774239
98690.32280961133074
98690.294651015559793
98690.260313343067537
98690.220228034551837
98690.175387009789119
98690.127129870234057
98690.077381295384839
98690.028937113136635
98689.985578061110573
98689.951141151046613
98689.928294039083994
98689.917635200632503
98689.91748946547159
98689.924670208696625
98689.935886864783242
98689.948898952497984
98689.963076953397831
98689.979310796436039
98689.999169498856645
98690.023956293385709
98690.053986682338291
98690.08837271653465
98690.125459384085843
98690.16348023795581
98690.201308845629683
98690.238747434850666
98690.276452480233274
98690.315531513406313
98690.356930123831262
98690.400696349039208
98690.44561195957067
98690.489351674521458
98690.529164548832341
98690.562995505606523
98690.590453283832176
98690.613121180664166
98690.63386015172
98690.65569130415679
98690.680843419453595
98690.710242528817616
98690.74374819843797
98690.781023971081595
98690.822269680982572
98690.868224478428601
98690.919724163759383
98690.976982864071033
98691.039169728537672
98691.10463441113825
98691.171483165511745
98691.238315948459785
98691.304731479511247
98691.371147901430959
98691.438207324812538
98691.506049730989616
98691.574076121178223
98691.641263834346319
98691.70678503192903
98691.770818295844947
98691.834941518638516
98691.901905995531706
98691.974826805701014
98692.056166542504798
98692.146916019803029
98692.246269361057784
98692.351987568792538
98692.461074411839945
98692.570627942579449
98692.678540164764854
98692.783830965767265
98692.886524949062732
98692.987161844794173
98693.086348115975852
98693.184435019968078
98693.281371034769109
98693.376731303535053
98693.469875536713516
98693.560155829618452
98693.646896530219237
98693.729388110019499
98693.806911268577096
98693.87876883255376
98693.944328790981672
98694.003185460765962
98694.055397750445991
98694.101579018984921
98694.142910958413268
98694.181003841222264
98694.217647954908898
98694.254539946487057
98694.293106297947816
98694.3343708589382
98694.378811788687017
98694.426284345085151
98694.475989995306008
98694.52661749451363
98694.576644216111163
98694.624737897742307
98694.67008111285395
98694.712537420389708
98694.752644106993102
98694.791523176492774
98694.830692347837612
98694.871641448320588
98694.915460093543516
98694.962543565023225
98695.012523867728305
98695.064377290429547
98695.116648436654941
98695.167782161021023
98695.216456324153114
98695.261835336685181
98695.303764948548633
98695.342733872807003
98695.379773023974849
98695.416187774841092
98695.453380195787759
98695.492678835682455
98695.535264516685857
98695.582076164311729
98695.633701529673999
98695.690204853221076
98695.751137502113124
98695.815608180317213
98695.882427513366565
98695.950365771510405
98696.018378138469416
98696.085790479264688
98696.152506367172464
98696.219080036418745
98696.286377486321726
98696.355213275324786
98696.426091248329612
98696.499122910259757
98696.574068253525184
98696.650505896759569
98696.727966265214491
98696.805966047322727
98696.883953626922448
98696.961224627273623
98697.036928590765456
98697.110152295601438
98697.180086742417188
98697.246273795040906
98697.308838969882345
98697.368518530827714
98697.426542739267461
98697.484370229954948
98697.543334604124539
98697.604286566565861
98697.667307359268307
98697.731569942930946
98697.795468556185369
98697.856971067260019
98697.914076217755792
98697.965310998653877
98698.010091190357343
98698.048896205800702
98698.083129491540603
98698.114804117954918
98698.146086680484586
98698.178887582369498
98698.214558058854891
98698.253794059957727
98698.296681034480571
98698.342897548587644
98698.392066504486138
98698.44399937154958
98698.498699554402265
98698.556215811855509
98698.61647968798934
98698.679139228130225
98698.743437207711395
98698.80828374158591
98698.872491379908752
98698.935142316971906
98698.995873223553644
98699.054961204907158
98699.113266027576174
98699.172030733971042
98699.232582039010595
98699.296000041169464
98699.362928678703611
98699.43360537647095
98699.508055077152676
98699.586279411189025
98699.668384516058723
98699.754736011353089
98699.845974299008958
98699.942877814130043
98700.046133345851558
98700.156152949479292
98700.272940433598706
98700.396280641303747
98700.52603779808851
98700.662336328809033
98700.805734545283485
98700.957345438378979
98701.118775762966834
98701.291856854513753
98701.478359104148694
98701.679709375282982
98701.896874800237129
98702.13031324185431
98702.379995993818738
98702.645536338022794
98702.926381228477112
98703.222006117095589
98703.532011322837207
98703.856230975739891
98704.194855185953202
98704.548498641262995
98704.918183090776438
98705.305372729766532
98705.711958596875775
98706.140191449128906
98733.102753687882796
98733.146673476614524
98731.90431287161482
98731.622913458777475
98731.487265578485676
98731.262432139745215
98731.002728172767092
98730.636458370150649
98730.212505846342538
98729.809413722803583
98729.404431090661092
98728.982895426088362
98728.555522438065964
98728.136711982951965
98727.719590802196763
98727.287234015355352
98726.821288678867859
98726.319238723895978
98725.788018673105398
98725.241054314567009
98724.697915609838674
98724.181236799384351
98723.707342688780045
98723.248732568055857
98722.763137792950147
98722.245541885422426
98721.72662578211748
98721.217845911523909
98720.692450101414579
98720.136134127751575
98719.578077022728394
98719.056472598793334
98718.570617312667309
98718.092341530529666
98717.604968284838833
98717.111626808051369
98716.630776403297205
98716.184200269723078
98715.784063566185068
98715.40678711826331
98715.012442228282453
98714.585600231628632
98714.135698554746341
98713.675250034051714
98713.214740646581049
98712.772224555781577
98712.362070767980185
98711.973868085173308
98711.588077435400919
98711.199108545028139
98710.815274592430796
98710.439697566864197
98710.069567940925481
98709.711021040959167
98709.372753436779021
98709.047713824678794
98708.72463232865266
98708.409641894060769
98708.114200190437259
98707.834561419687816
98707.554278164374409
98707.260234898567433
98706.949053202595678
98706.621962696110131
98706.283185076739755
98705.946426951282774
98705.624814896989847
98705.312368505765335
98704.988833577983314
98704.641478122430271
98704.281190772759146
98703.938554608641425
98703.637033338352921
98703.373136000940576
98703.121899178848253
98702.858238236774923
98702.580489933330682
98702.309888032948948
98702.065618196807918
98701.845819768466754
98701.632394037529593
98701.412038881040644
98701.188396351222764
98700.973415315704187
98700.771271718345815
98700.572899903316284
98700.366996560638654
98700.151950521132676
98699.936252255662112
98699.731935099101975
98699.550908243661979
98699.399617475923151
98699.275490209896816
98699.164411772144376
98699.049075155562605
98698.920085429723258
98698.77928045495355
98698.635123877378646
98698.494420359187643
98698.356196718916181
98698.212851281263283
98698.054998192266794
98697.880016856608563
98697.691771996891475
98697.496871010618634
98697.302225974592147
98697.116586165589979
98696.951851384641486
98696.817576019020635
98696.7138280057261
98696.630275333489408
98696.553998235423933
98696.478417510836152
98696.403985037090024
98696.332098292259616
98696.26019279382308
98696.182764515746385
98696.096543581137666
98696.003983471659012
98695.911811490834225
98695.826350969771738
98695.748132319436991
98695.670338456242462
98695.582567879842827
98695.47767866376671
98695.356408170133363
98695.225233651770395
98695.090012896762346
98694.95110419523553
98694.803423530349392
98694.641428511342383
98694.464119994911016
98694.275725954503287
98694.082376904101693
98693.88847842605901
98693.694946747607901
98693.500637448916677
98693.304855758789927
98693.108628134155879
98692.915716292132856
98692.732223984639859
98692.563889196273522
98692.413221261580475
98692.27828125844826
98692.154275037755724
98692.035802232523565
98691.918354902096326
98691.798840318951989
98691.675973745266674
98691.549368862630217
98691.418494300407474
98691.282594118994894
98691.14220512661268
98691.001432297663996
98690.868239736111718
98690.751474247372244
98690.655825358306174
98690.578746801067609
98690.511311258669593
98690.442512190624257
98690.364859994791914
98690.27713690296514
98690.182335083576618
98690.083564096130431
98689.981736752553843
98689.876158040002338
98689.766875685847481
98689.657325142805348
98689.55358534095285
98689.460288824615418
98689.377758343311143
98689.302246272418415
98689.228163103500265
98689.15117224061396
98689.070680072443793
98688.99004881962901
98688.915309653355507
98688.85394498349342
98688.812370741550694
98688.792973911666195
98688.792880597145995
98688.804899205671973
98688.820240451212157
98688.832489542575786
98688.840142803353956
98688.84604466726887
98688.854094821363105
98688.86635706431116
98688.882193449928309
98690.62346224981593
98690.65463843557518
98690.681211401257315
98690.701493995919009
98690.714341195052839
98690.718650834664004
98690.714103987353155
98690.702480335516157
98690.688121187893557
98690.676853418452083
98690.673640813969541
98690.680234488449059
98690.694504715516814
98690.71184017212363
98690.727624128106982
98690.73931233685289
98690.747090764867608
98690.752771844810923
98690.757506778682
98690.760163637751248
98690.757638064227649
98690.746812505007256
98690.726603222094127
98690.698732772623771
98690.667168704705546
98690.636537158090505
98690.610243774834089
98690.589226819080068
98690.572043148087687
98690.555993554546149
98690.538659364436171
98690.518750658404315
98690.496378259776975
98690.472841779759619
98690.449891058902722
98690.42883832239022
98690.410052833671216
98690.392896230652696
98690.375946345360717
98690.357364010153105
98690.335381268843776
98690.308525915257633
98690.276089886203408
98690.237952644238248
98690.19449089646514
98690.146792688028654
98690.097048928379081
98690.048709808921558
98690.005955460801488
98689.972751802997664
98689.951648420552374
98689.942997673497302
98689.945087407526444
98689.954867293010466
98689.969145507391659
98689.985844973183703
98690.004583923102473
98690.026290613503079
98690.052305471457657
98690.083350026674452
98690.119055016024504
98690.157987511091051
98690.198173118405975
98690.237878385538352
98690.276146916672587
98690.313148305911454
98690.350076856848318
98690.388585574590252
98690.429883248667466
98690.474077679347829
98690.51991673077282
98690.56509046323481
98690.606986068378319
98690.643700041458942
98690.674887524335645
98690.701868402888067
98690.727068822365254
98690.753111914149486
98690.781990894116461
98690.814745262032375
98690.851753454408026
98690.893334434309509
98690.940144432315719
98690.992941747928853
98691.052121681132121
98691.117182679634425
98691.186547123856144
98691.257992455066415
98691.329599123288062
98691.400477983697783
98691.470958702848293
98691.542019051194075
98691.614316282633808
98691.6876000414195
98691.760748156884802
98691.832402040206944
98691.901911993802059
98691.970016029561521
98692.03899618142168
98692.112115430281847
98692.192602403418277
98692.282556810037931
98692.38221370698011
98692.48991731890419
98692.602627088490408
98692.716813819730305
98692.829461557135801
98692.938814485693001
98693.044568151875865
98693.147515571195981
98693.248837550883763
98693.349522511620307
98693.450045582707389
98693.550257762006368
98693.649598533462267
98693.747376263228944
98693.842955211221124
98693.935836994365673
98694.0255514884484
98694.111515892975149
98694.192922213798738
98694.268795772790327
98694.338235883435118
98694.400735680406797
98694.45648974100186
98694.506415607203962
98694.55202094076958
98694.595188574065105
98694.63784090615809
98694.681647631718079
98694.727732276005554
98694.776666920704884
98694.828490668587619
98694.882755481288768
98694.938643872839748
98694.995134008393507
98695.051226885159849
98695.106152271851897
98695.15951414949086
98695.211378708074335
98695.262274980152142
98695.313033915212145
98695.364624688445474
98695.417766437545652
98695.472718818200519
98695.529147467968869
98695.586156324177864
98695.642548851013999
98695.69715993310092
98695.749100960718351
98695.797924216749379
98695.84371967651532
98695.887100236897822
98695.929099931629025
98695.971016768336995
98696.014168623863952
98696.059746125087258
98696.108781069298857
98696.162047912483104
98696.219980228241184
98696.282549650131841
98696.34918266691966
98696.41883147326007
98696.490192141456646
98696.562028553584241
98696.633471990731778
98696.704169828895829
98696.774310423526913
98696.844557135409559
98696.915885885478929
98696.98929531541944
98697.065522017757758
98697.144886482245056
98697.227316341057303
98697.31250806726166
98697.400071198921069
98697.489529113547178
98697.580201053613564
98697.671171050591511
98697.761344379992806
98697.849570355159813
98697.934811469880515
98698.016360584078939
98698.094081707924488
98698.168505555004231
98698.240772474950063
98698.312358422524994
98698.384674797955086
98698.458760268622427
98698.534928531633341
98698.612620442247135
98698.69050515210256
98698.766843141638674
98698.839881128835259
98698.908248895328143
98698.971384172589751
98699.029746673229965
98699.084770497225691
98699.138445300937747
98699.192842510776245
98699.249710994074121
98699.310199365136214
98699.374775734308059
98699.443343915554578
98699.515450219085324
98699.590604436802096
98699.668507951500942
98699.749128337643924
98699.832580721398699
98699.918961488001514
98700.008156893542036
98700.099709318688838
98700.192845399011276
98700.286680246892502
98700.380469364405144
98700.473860309735755
98700.566963897756068
98700.660318249312695
98700.754638675862225
98700.85062505985843
98700.948917681511375
98701.049997671638266
98701.154220623226138
98701.261932009700104
98701.373640728037572
98701.490106009528972
98701.612252773018554
98701.741052441066131
98701.87734540666861
98702.021685759886168
98702.174262374974205
98702.334934138227254
98702.503436189639615
98702.679665610063239
98702.863874302987824
98703.056768710390315
98703.259539236969431
98703.473696955246851
98703.700852495399886
98703.942464751424268
98704.1996078590455
98704.472886931907851
98704.762460767567973
98705.068165880365996
98705.389669357071398
98705.726582690593204
98706.078524384633056
98706.445198314148001
98706.826436941861175
98707.222261203336529
98707.632982296767295
98708.059382542414824
98708.50274875733885
98708.964839484266122
98709.447756964553264
98729.95310108421836
98731.242604649800342
98731.065996829624055
98730.824574320999091
98730.617087210775935
98730.410834135909681
98730.21779043355491
98729.960354845170514
98729.671597263411968
98729.359410971796024
98728.957397770238458
98728.504020794600365
98728.075492889372981
98727.682961568803876
98727.304579447081778
98726.923555815199506
98726.518082594440784
98726.050219893062604
98725.525949148024665
98724.984177907565027
98724.454342893805006
98723.950837120981305
98723.475613638933282
98723.001945548938238
98722.507207975897472
98721.994992906300467
98721.479682454446447
98720.957417555851862
98720.417011851168354
98719.867524233326549
98719.334295516237034
98718.833541559841251
98718.358169489263673
98717.886296182899969
98717.399648106482346
98716.900895120372297
98716.418737251602579
98715.98187199824315
98715.584970122916275
98715.187230224502855
98714.758323455767822
98714.300298006797675
98713.833934534966829
98713.370364163289196
98712.910219115074142
98712.464478918409441
98712.046514497938915
98711.650306326846476
98711.256576511383173
98710.860936000783113
98710.474571072816616
98710.103709371731384
98709.743958830513293
98709.396635111785145
98709.064440673959325
98708.742715276399394
98708.426243202804471
98708.115255895681912
98707.813223930017557
98707.518768728987197
98707.224001860158751
98706.921765673483605
98706.607323385818745
98706.27667307946831
98705.934930803618045
98705.595910815740353
98705.270755013596499
98704.953293807455339
98704.627764695076621
98704.289244535772013
98703.950938592868624
98703.639550792227965
98703.370921575115062
98703.13931884826161
98702.917031685676193
98702.677229357825126
98702.418435441883048
98702.163212311555981
98701.933906368663884
98701.730114880789188
98701.532398577634012
98701.32144344507833
98701.096527080779197
98700.871062579026329
98700.655004204352736
98700.447737970389426
98700.243273780666641
98700.040546655029175
98699.843655839475105
98699.660925118310843
98699.501155964215286
98699.366586968826596
98699.249194767922745
98699.134730384219438
98699.01201570982812
98698.878748387418455
98698.739032595156459
98698.599247399732121
98698.464087124841171
98698.333296535725822
98698.200258502489305
98698.055891122683533
98697.89555388034205
98697.72217390476726
98697.542854503772105
98697.363478072336875
98697.192308314974071
98697.038897132617421
98696.912934266714728
98696.815906532574445
98696.73754015302984
98696.663960733101703
98696.586629594865371
98696.505626475161989
98696.424799405373051
98696.345734255985008
98696.266357172222342
98696.183996971143642
98696.099713445873931
98696.018101415364072
98695.942981682470418
98695.873206259173458
98695.801158261179808
98695.716377613338409
98695.61148256494198
98695.486718790227314
98695.349266144563444
98695.20745792647358
98695.064861262435443
98694.919268667174038
98694.765821975204744
98694.601027568336576
98694.42443973243644
98694.238037918315968
98694.043956554640317
98693.843934584583621
98693.640197261542198
98693.435611946551944
98693.23394841197296
98693.040547427735873
98692.862051767544472
98692.702871097106254
98692.562283140665386
98692.435441628374974
98692.315710864932043
98692.197510398182203
98692.077548788380227
98691.953557380053098
98691.823612577019958
98691.686425690990291
98691.541511574396282
98691.390140048912144
98691.236616185182356
98691.088887389749289
98690.957170726513141
98690.849593655220815
98690.767321101739071
98690.702813251918997
98690.642690211010631
98690.573620479699457
98690.488512952928431
98690.388879732097848
98690.281572344771121
98690.172826731490204
98690.064994522181223
98689.957414141128538
98689.849917307990836
98689.745356774772517
98689.648608680334291
98689.562377787558944
98689.484618796996074
98689.409503254093579
98689.330786215970875
98689.245305152420769
98689.154611585327075
98689.064257290912792
98688.981869915311108
98688.915264837574796
98688.870219199205167
98688.848258423211519
98688.845800174443866
98688.85528782743495
98688.867903764665243
98688.877325466426555
98688.882315440539969
98688.885941969187115
98688.892714018322295
98688.905226516115363
98688.922721696377266
98690.769411132481764
98690.799287747096969
98690.824829831632087
98690.844506046298193
98690.856986698810942
98690.861229361529695
98690.857113933001528
98690.84645072274725
98690.833081217497238
98690.821888484395458
98690.816952952474821
98690.819678959203884
98690.828211823376478
98690.838681430614088
98690.847374374585343
98690.852583149098791
98690.85499599063769
98690.85627812097664
98690.857249754510121
98690.856775217995164
98690.852049310342409
98690.840042622439796
98690.819324488198617
98690.791233264506445
98690.75958813422767
98690.728984573681373
98690.702738133535604
98690.681419275191729
98690.662848931606277
98690.643365379539318
98690.619591744049103
98690.590034585868125
98690.555606117355637
98690.519001086402568
98690.483574684243649
98690.452041958313202
98690.425434108910849
98690.403106718309573
98690.383429478635662
98690.3645292766887
98690.344644347729627
98690.322399622906232
98690.296297404551296
98690.265042312283185
98690.228071884790552
98690.186074663681211
98690.141345787647879
98690.097579677632893
98690.059126780470251
98690.029757679978502
98690.011675997069688
98690.005083721713163
98690.008329887510627
98690.018775828488288
98690.033977834304096
98690.052593500353396
98690.074621593288612
98690.100905437459005
98690.132199551168014
98690.16847346634313
98690.208619684897712
98690.250787224518717
98690.292966776425601
98690.333589161047712
98690.37204397507594
98690.408943573536817
98690.445872157913982
98690.484736117141438
98690.526812414755113
98690.57218173299043
98690.619599141195067
98690.666838209348498
98690.711469110610778
98690.751742984502926
98690.787220289712423
98690.818922295904486
98690.848889158136444
98690.879272758902516
98690.911788581419387
98690.94759287807392
98690.987601037777495
98691.032792770842207
98691.08432267770695
98691.143135906721
98691.209288558340631
98691.281590398604749
98691.357767662164406
98691.43520236290351
98691.511959932046011
98691.587458109788713
98691.662475391916814
98691.738310742715839
98691.815738907564082
98691.894397541022045
98691.973022616744856
98692.050308051737375
98692.125836868624901
98692.200683599716285
98692.277365574525902
98692.359087558477768
98692.448668423996423
98692.547560313498252
98692.65530859323917
98692.769628554378869
98692.887132264804677
98693.004319189538364
98693.118527953061857
98693.228548006183701
98693.334691708514583
98693.438272809406044
98693.540840921312338
98693.643441380656441
98693.746358223201241
98693.84924590436276
98693.951447738101706
98694.0523839094094
98694.151779786043335
98694.249610039114486
98694.345813692809315
98694.439969658225891
98694.531153481046204
98694.617970549254096
98694.698913214670029
98694.772816963217338
98694.839241769193904
98694.898721600926365
98694.952745363741997
98695.003412862046389
98695.052937675718567
98695.103170643735211
98695.155392972446862
98695.210257140744943
98695.267938497592695
98695.328213896675152
98695.390459517671843
98695.453882161906222
98695.517682690770016
98695.581147081873496
98695.643808673092281
98695.705546288241749
98695.766601552677457
98695.827477967482992
98695.888801836248604
98695.951046990521718
98696.014243047975469
98696.077854462695541
98696.140886257606326
98696.20219473799807
98696.260813308443176
98696.316254144345294
98696.368575533604599
98696.418362914977479
98696.466598676037393
98696.514453886789852
98696.563098463448114
98696.613547155808192
98696.666585005514207
98696.72281702113105
98696.782722305972129
98696.846581009041984
98696.914332529966487
98696.985479281560401
98697.059101754115545
98697.134017207237775
98697.209086723451037
98697.283569171151612
98697.357336841916549
98697.430793822393753
98697.504771846492076
98697.580392755466164
98697.658795612616814
98697.740914052381413
98697.827275354546146
98697.917942045154632
98698.012618524240679
98698.110790616017766
98698.211828250685357
98698.314948527564411
98698.419147018081276
98698.523261930866283
98698.626050410166499
98698.726347700270708
98698.823250170447864
98698.91638858114311
98699.006067433831049
98699.093150935266749
98699.178904469226836
98699.264674981095595
98699.351559825023287
98699.44018374197185
98699.530496393956128
98699.621767085729516
98699.712749517479097
98699.802025231809239
98699.888413071574178
98699.971326501501608
98700.051011645540711
98700.128593863279093
98700.20580886566313
98700.284507270727772
98700.366189495922299
98700.451764269906562
98700.541505458910251
98700.635199430500506
98700.732410976750543
98700.8326386098488
98700.935537123150425
98701.041084664946538
98701.149552996255807
98701.261205401475308
98701.376106074865675
98701.494076884278911
98701.614753988324082
98701.737680718433694
98701.862423637576285
98701.988701438924181
98702.116438197932439
98702.24572534908657
98702.376696145787719
98702.509433508952498
98702.644037440244574
98702.780754358056583
98702.919950912517379
98703.062214342062362
98703.208467231248505
98703.359929222293431
98703.5179566728184
98703.683817669632845
98703.858463588025188
98704.042445091967238
98704.235917811354739
98704.438750291039469
98704.650757805415196
98704.871953332461999
98705.102741673181299
98705.344052908127196
98705.597157465672353
98705.863376051129308
98706.143845287690056
98706.439399839975522
98706.750524400806171
98707.077393797051627
98707.419998537487118
98707.77823372290004
98708.15197398152668
98708.541139641078189
98708.945678869320545
98709.3655399713316
98709.80069805381936
98710.251196642275318
98710.717238554527285
98711.199281490509748
98711.698192904601456
98712.215344857817399
98712.752555263868999
98713.311913210898638
98730.887797400355339
98731.693744557996979
98731.292654407865484
98730.9593502941716
98730.709719048623811
98730.501814652598114
98730.262645011724089
98729.953186304424889
98729.633846330543747