/*--------------------------------*- C++ -*----------------------------------*\
  =========                 |
  \\      /  F ield         | OpenFOAM: The Open Source CFD Toolbox
   \\    /   O peration     | Website:  https://openfoam.org
    \\  /    A nd           | Version:  12
     \\/     M anipulation  |
\*---------------------------------------------------------------------------*/
FoamFile
{
    format      ascii;
    class       volScalarField;
    location    "0.00514";
    object      rho_0;
}
// * * * * * * * * * * * * * * * * * * * * * * * * * * * * * * * * * * * * * //

dimensions      [1 -3 0 0 0 0 0];

internalField   nonuniform List<scalar> 
75962
(
1.1399547692166016599
1.1393502870170082453
1.1404545646492731947
1.1409691292915271621
1.1410073864691459011
1.1406867177075779018
1.1410603700839767605
1.1414874048791361361
1.1404989127686713246
1.1386979435651447545
1.1376774637691224878
1.1382083389421315811
1.1392755987649922922
1.1397707612692109524
1.1399197994603793571
1.1401049076026628093
1.1401993087876356459
1.139944739720543998
1.1397163638202583158
1.1399273199468893392
1.1403615418912524948
1.1405234773671595327
1.1404173837376623268
1.1404159744601130022
1.1404573228923695627
1.1401519329893701205
1.1395149477442045871
1.1391208624056066157
1.1393555073614034523
1.1398777341290187159
1.1401068239760852041
1.1399778083771121562
1.1398337611985900342
1.1397913611758214714
1.1396838590053459672
1.1395770305666688138
1.1396263440327325522
1.1398801770174096237
1.1403084321750305286
1.1408029975621576391
1.1411447813946882235
1.141058184180454127
1.140661992165116212
1.140353140662295317
1.1403294550425178144
1.1404939854782767394
1.1406762577901623512
1.1406736152483871738
1.1402897421694950797
1.1395741992137411458
1.1389433820869001579
1.1387566485779927472
1.1389973969385800423
1.1393548000633373363
1.1396271499483314749
1.1397487178872081071
1.1395722061490054511
1.1390355503730917874
1.1384024423875489518
1.1381064825208175861
1.1382505921390064785
1.1385557988160175391
1.1388067850875751574
1.1389348377229124853
1.1388900753801520782
1.1386724740373403986
1.1384788568539876419
1.1386092950105093369
1.1391083535924502179
1.1396761949853888574
1.139939213005342955
1.1397367438316594601
1.1393778817750634946
1.1392552445863783905
1.1394545795943766819
1.1397460250753910227
1.1398241458255717884
1.139561980282063125
1.1390944724885077033
1.1386216445457231217
1.1382132644545355227
1.137788531359404498
1.1373176355116045855
1.1369661294002468832
1.1369783928969585673
1.137433221989929466
1.1381718311367845509
1.1389355590578966737
1.1395384816595632849
1.1398849542831475112
1.1399081788664306991
1.1396025026153906445
1.1390762480528326961
1.1385216961420812076
1.1380871466355548804
1.1378053220408383961
1.1376481461527461203
1.1376340826169641929
1.1378505960709801581
1.1383380812696954898
1.1390213067368959443
1.139717697389567963
1.1402544045296485464
1.1405435218071999781
1.1405552913785781399
1.1402708202125497738
1.1396922022147388809
1.1389190457305422566
1.1381838911459067898
1.137728511903067341
1.137678454039567022
1.1379870687862467804
1.1385303820797199048
1.1392378406460570428
1.1401137712712456906
1.1411658559047364037
1.1423158113784872558
1.1434180906917053022
1.1443329741516230502
1.1450010211370136304
1.1454684574472944192
1.1458425775793135148
1.1462111538770620722
1.1465821463184022733
1.1468863607932089366
1.1470501097772107801
1.1470761146823305054
1.1470581501641654576
1.1471102142643219146
1.1472643126161250482
1.1474376113248712095
1.1474982511885001291
1.1473744490479431679
1.1471113977309446152
1.1468196875316194472
1.1465947003700815987
1.1464685600321453673
1.1464165900738274573
1.1463937610617733753
1.1463570631182853354
1.1462765562628265403
1.1461514054301640275
1.1460129422938749588
1.145905325361436855
1.1458648977369043642
1.1459062991953954391
1.1460133412374899908
1.1461466090224745606
1.1462718051756428661
1.1463879234421159303
1.146524770416780914
1.1467021490796893701
1.1468934686943281775
1.1470277084854383354
1.1470381121647170719
1.1469144401176247783
1.1467154193974362641
1.146534829777697384
1.1464493222208178569
1.1464824762614960196
1.1466078924291362995
1.1467863562280917744
1.1469959653293648749
1.147236792603233857
1.1475073496833108067
1.1477817549216793314
1.148009174041247249
1.1481438447643996792
1.1481771156763813657
1.1481453282927978066
1.1481097551363517173
1.148122379845736285
1.1482017571775828824
1.1483284386808758626
1.1484585979526031885
1.1485403308353663299
1.1485304129762574643
1.1484125777951996739
1.1482098629112498234
1.1479829271390000756
1.1478079130167093691
1.1477398786655050866
1.1477848369656458161
1.1478970341821863599
1.1480077781720046115
1.1480690954306467244
1.1480810686690092748
1.1480743936492616708
1.1469744347269887896
1.1470310993881143169
1.1471059742617579769
1.1471950628484752777
1.1472925895206316227
1.1473774691661262626
1.147411456091303128
1.1473565773608822571
1.1472039366955633088
1.1469888715283511615
1.146777046552239554
1.1466307802779520664
1.1465789737368958789
1.1466074369158485435
1.1466741957262354124
1.1467397577246374318
1.1467932650429082386
1.1468541826275568951
1.1469508754020716346
1.1470952158523204378
1.1472695396230263576
1.1474337196057702304
1.1475466830332354817
1.1475879948498766137
1.1475653633764799633
1.1475065942847113565
1.1474446418535424463
1.1474044476197353681
1.1473965043249900742
1.1474180312087975953
1.1474576978761898971
1.1475029618470691251
1.1475454499192307978
1.1475834872296273304
1.1476221413683420636
1.147672041396897713
1.1477451245283110115
1.1478486680062238712
1.147983081640630898
1.1481410060499153136
1.1483103852707547965
1.1484782419971162337
1.148634878760646183
1.1487713671376587055
1.1488774928044300783
1.1489394008794511226
1.1489423265303893018
1.1488805824241179465
1.1487661952719783187
1.1486287329307602878
1.1485062677454023206
1.1484317970370137019
1.1484186065633588125
1.1484548716753841813
1.1485114600166463905
1.1485554673444351437
1.1485672724296127623
1.1485473421897762769
1.1485111720287928261
1.1484792846006348643
1.1484672770009320963
1.1484799708856501255
1.1485113710507122153
1.1485478060054379323
1.1485741868169847546
1.1485812775337553848
1.1485709212884060992
1.1485568569855242327
1.1485609719831995079
1.1486047584164325031
1.1486993452846090413
1.148837762139625962
1.148993953492855935
1.1491322082755917044
1.1492226012580661898
1.1492530320137470667
1.1492311186663610734
1.1491773693204525575
1.1491119396734907898
1.1490434302065160033
1.1489663515691193041
1.1488691999612066219
1.148745516096093322
1.1486021435831106352
1.1484585906520246024
1.1483376372637974505
1.1482535177928809844
1.1482056503843036666
1.1481801782001519463
1.148159683544705878
1.1481341731247307614
1.1481061916211816598
1.1480867495177751181
1.1480852427950862804
1.1480997638840904074
1.1481135038847656293
1.1480988744244386979
1.1480287241142861365
1.1478881310063711041
1.1476821739182798687
1.1474352103232785538
1.1471824605481717452
1.1469576761855020397
1.1467833073205007111
1.1466653806488289469
1.1465943097949335971
1.1465504662609731223
1.1465120758030336034
1.146463009287604029
1.1463974694764993423
1.146320086784772041
1.146241919613136151
1.1461740468025023443
1.1461233932733183583
1.1460914800444412798
1.1460752147057977623
1.1460692960621645664
1.14606929009673153
1.1460728705327882793
1.1460791485640811072
1.1460867410760549046
1.1460914488775348907
1.1460857599802729556
1.1460611835289933325
1.1460112121279506514
1.1459336107222843903
1.145830687195928288
1.1457087197864479489
1.1455772709073719362
1.1454478456048455826
1.1453321646997520755
1.1452402923603783869
1.1451782050839482974
1.1451466734212174536
1.1451415874809149908
1.1451542474789884185
1.1451725556293508301
1.1451845069848416436
1.1451800068714361736
1.1451526750080478489
1.1451011448966628148
1.1450304767148378193
1.1449509127242274431
1.1448760786449165838
1.1448200229789089466
1.1447931773011685852
1.1447994612097152078
1.1448356458632884536
1.1448932532848044019
1.1449606187176719629
1.1450261292008996339
1.1450803011108445784
1.1451171005678995041
1.1451332862447056726
1.1451278610230113397
1.1451020846990016544
1.145060427663497471
1.1450097331652657751
1.1449594833465299715
1.144920342809366387
1.144901670944310057
1.1449088730389960222
1.14494130841803754
1.1449926146381561587
1.1450531385885551749
1.1451128912548775851
1.1451640129149356362
1.1452035327663632192
1.145234895541271003
1.1452658994940076997
1.145304771144234568
1.1453576851979780926
1.1454268928040156617
1.1455099480041999183
1.1456007803708432302
1.1456933053866789063
1.1457850284724384604
1.1458770652317338268
1.1459728936537914024
1.1460745499123772273
1.1461799172595446006
1.1462822513871748775
1.14637165965028065
1.1464378773284382707
1.1464740326420892469
1.1464802737785342313
1.1464647861912724558
1.1464423246612940321
1.1464319585456792527
1.1464526154431076144
1.1465181211951613882
1.1466331958925115586
1.1467915742210741392
1.1469769283864204024
1.1471666091089760542
1.1473362919887413192
1.1474660801912670571
1.1475459730633801314
1.1475768295692714283
1.1475680404266728196
1.1475337723018141922
1.1474886958104664192
1.1474437881842867171
1.1474043472019839207
1.147371053808251995
1.1473425689037393127
1.1473191281757793014
1.1473045417525273848
1.1473050394063721846
1.147327312578275027
1.1473768701784978763
1.1474554580853342234
1.1475600202310589637
1.1476820781977259411
1.1478091984170160078
1.1479285063442146164
1.1480298258560919233
1.1481081840358036139
1.148164836719790971
1.1482056784012528716
1.1482387488305467738
1.1482709986323633711
1.148305556240177383
1.1483412934399377381
1.1483747025354278382
1.1484015434337782047
1.1484197739440913377
1.148431553965902463
1.1484433021084270443
1.1484639780236320927
1.1485010960433255089
1.148557397948147818
1.1486290203676774446
1.1487053696713405149
1.1487723347872587087
1.1488166763206690835
1.1488291817938900419
1.1488064331095797499
1.1487523446460565779
1.1486769237333225302
1.148593706053837149
1.1485173533717276673
1.1484612204124853285
1.1484349223310512667
1.148442601735579327
1.1484828315843980118
1.1485502523566426536
1.1486367955878311609
1.1487325176747860134
1.1488259902470749907
1.1489046982021449139
1.1489565817526048441
1.1489723535903764162
1.1489457288006392766
1.1400115596904025761
1.1414338600403357571
1.1432297683435215241
1.1424686526104401718
1.1410807860367211397
1.1398157613493091755
1.1404499339845077799
1.1415849538888791503
1.1408915536584025574
1.1394769540222222659
1.1387594245819996353
1.1388314528400549364
1.1392851669664441072
1.1397036521940087095
1.1399941220418909893
1.1401422010906396842
1.1401741489624532822
1.1401257672016413824
1.1400969992934011366
1.1402632976741295945
1.1405432776338733092
1.140607100944745822
1.1405259194776684595
1.1405807332486193051
1.1405540873613844166
1.1400900440548955572
1.1393588368743368111
1.13904955285160292
1.1394419012878647113
1.1400032699149746929
1.140157470498503578
1.1399741682675001986
1.1398096627469331832
1.1397294052992625879
1.1395964183209748022
1.1394385677684635283
1.1393246603691109531
1.1394059906070896915
1.1396950777368128893
1.1402984816252192957
1.1408427761880373108
1.1409091515083342738
1.1405711802820479583
1.140283948821700033
1.1402432633470047652
1.1403485743728281054
1.1405155405797018364
1.1406490334750749582
1.1404958135903577876
1.139901253626752764
1.139166007329993846
1.1387451447797765081
1.1387790324385695939
1.1390451070528342381
1.1393478390317799409
1.1395508587630724939
1.139426075680838979
1.1388982805937362119
1.1382954711495705258
1.1380401029488982356
1.1382227987172284234
1.1386260318081178333
1.1390049393025059032
1.1392222819314996585
1.139190465407444508
1.1389392813989334119
1.1387321798959388897
1.1388697547426043233
1.1393627079894184106
1.1398489714473956091
1.1399460657864808333
1.1395317165727061326
1.138949485097802139
1.1386376517401448627
1.1388058403185470357
1.1392313055879306205
1.1394797063359050071
1.1393118741556789164
1.1388578589823528109
1.1384167612271072212
1.1381320778111643222
1.1379192789575380829
1.1376668404337890728
1.1374416694166944453
1.1374389386252286016
1.1377606509755211484
1.1383293404775625124
1.1389555847403274313
1.1394675176678081829
1.1397500132375388837
1.1397290846430556677
1.1394316577234508969
1.1390080083453686388
1.1386146373980690072
1.1383188734994300617
1.1380912758683092711
1.1379047730008586825
1.1378138322466195831
1.1379260187551134553
1.1383255945250243535
1.1389748510331421105
1.1397005808007321104
1.1402908546442529492
1.1406002331234628144
1.1405943939054219438
1.1402851930080386555
1.1397055392425199383
1.1389429723685706719
1.1381928665701399606
1.1376959407699793747
1.1376098937899536967
1.13792453025561624
1.1385225473907378824
1.1392967211318303367
1.1402040584851993454
1.1412304332074947322
1.1423135703235092198
1.1433353525554541541
1.144179148131134971
1.1447916532071533702
1.1452167918109013023
1.145563272360007101
1.1459280456349600907
1.146325509407019716
1.1466764572904304398
1.1468848537926796816
1.1469290291594884668
1.1468790844765692771
1.1468408164335333055
1.146872188884513033
1.1469492022907370465
1.1470017815024664554
1.1469785893427124623
1.1468792998040715503
1.1467450354774468835
1.14662006453290366
1.1465278213686123099
1.1464639642852541002
1.1464003222322287634
1.1463035398503349516
1.1461596163224692102
1.145989625779032961
1.145845294561296468
1.1457742312634686677
1.1457891866019800364
1.1458763855819580346
1.1460100562815831449
1.1461602732946161165
1.1463046147091731086
1.1464395628191299537
1.1465752350248219482
1.1467109885066377739
1.1468128904132555146
1.1468204835530755314
1.1466919475483876578
1.1464531239257169659
1.1461993388411273465
1.1460469756901106031
1.146065840511346634
1.1462410086446177537
1.1464912482690206019
1.146731420243685351
1.146927233968772164
1.14710199898941001
1.1472933710425359255
1.1475027269136361951
1.1476842504243585097
1.1477848740779166281
1.1477971023769528713
1.1477713800504252273
1.1477807805138955377
1.1478731986597787706
1.1480461828112404898
1.1482536419026034835
1.1484323695230405082
1.1485255128889699794
1.14849624415250684
1.1483414535544438362
1.1481013579353871457
1.1478532339588773947
1.1476807177228947054
1.1476346041226610506
1.1477056179809892456
1.1478306804414171172
1.147931843440805455
1.1479668046964990324
1.1479481771974073823
1.1479208537885599029
1.1479188877846915329
1.1470518872516519693
1.1470659620897465381
1.1471072305197196339
1.1471696774179036549
1.1472536678072047245
1.1473541620080429659
1.1474474752663785804
1.1474929225984156211
1.1474524805243200287
1.1473184010950820966
1.1471253268013434923
1.1469356083648614142
1.146806450957734258
1.146760377882567683
1.1467784675811820705
1.1468197395433326058
1.1468514403678655711
1.1468701371819489676
1.1469020555168103481
1.1469818967605305282
1.1471237848413040616
1.1473058217813927318
1.1474790482895369514
1.147593718179329203
1.1476250396171305823
1.1475843143573156713
1.1475117099227170048
1.1474557185519895786
1.1474510531152488646
1.1475064666060914575
1.1476050329090852209
1.1477160517355828873
1.1478094174691708673
1.1478675057257350378
1.1478913645512440755
1.1478966707883453413
1.1479043030556630445
1.1479330052302962883
1.1479950013872797232
1.1480925643181794094
1.1482203811908775481
1.14836817137110625
1.1485241193708251028
1.1486790692389188262
1.148821044519283241
1.1489327669792632758
1.1489939008333673875
1.1489889103153501093
1.1489143824616214751
1.1487855471746881708
1.1486357265621052193
1.1485044073615309212
1.1484214375515433559
1.1483965094643475702
1.1484164553038582746
1.1484526223448729976
1.1484772189719900659
1.1484759048687802618
1.1484520701083438254
1.1484219899882091021
1.1484048964631399237
1.1484138045773586434
1.1484498878568401015
1.1485026052112750072
1.1485544736696666757
1.1485882588768867585
1.1485947118125208188
1.1485770711277363265
1.1485508219113227391
1.1485388570332890623
1.1485629187689334607
1.1486333167315678772
1.1487431221157267114
1.1488689542003875932
1.1489799004022820395
1.1490503885640448445
1.149070465947551245
1.1490459451098287147
1.1489909609365009935
1.1489178381004871987
1.148830099111505243
1.1487227108388504693
1.1485900287194967806
1.148435174467483888
1.1482738118172577391
1.1481294986256713742
1.1480224140943613431
1.1479586217981145868
1.1479275984885257689
1.1479091726547023811
1.1478861672263145355
1.1478547013898112716
1.1478249033931038348
1.1478124420162867381
1.1478259092552689502
1.1478575985008283578
1.1478828711638340287
1.1478688165868393689
1.1477883149760390591
1.1476321235460336112
1.1474136102569327811
1.147164802204432732
1.1469253123014984119
1.1467293301309542386
1.1465953792429603997
1.146522352725075633
1.1464917057354298002
1.1464758970239765645
1.1464487741297064716
1.1463942268074349684
1.146310613302092607
1.1462088158685412864
1.1461060085063750069
1.146018011309991369
1.1459533021936012531
1.1459118175893641123
1.1458876607541479409
1.145873617354754348
1.1458651755252737825
1.1458625146734897626
1.1458686795539967385
1.1458857924403191841
1.1459116533231814561
1.145938147535000784
1.1459530789980469923
1.1459445460376393999
1.1459052019543405354
1.1458344543926735071
1.1457381425938684139
1.1456266290962782151
1.145511985367658081
1.145405224499258745
1.1453144915719373209
1.1452444520762947722
1.1451954360858640491
1.1451653685183174058
1.1451504672963401799
1.1451446757235983487
1.145140475009868597
1.1451308088295295562
1.145110433795316629
1.1450762342942997218
1.1450296169097824439
1.1449765128767410705
1.1449263571571697273
1.144889852097488836
1.1448759081757109435
1.1448880901822648948
1.14492270229345805
1.1449711325130902395
1.1450228881709538786
1.1450684613540109691
1.1451008219793410436
1.1451161901590174441
1.1451134891733789622
1.1450935519910478977
1.1450585875708834127
1.145013201487333987
1.1449640888715624243
1.1449198339962121107
1.1448906882817531105
1.1448848463743899195
1.1449067962950696398
1.1449544486438960611
1.1450191326676830705
1.1450881708969713468
1.145150040574125061
1.1451968615745313773
1.145225638338997376
1.1452399785706011137
1.1452486577532456913
1.1452618740375857254
1.1452870254024702934
1.1453275260444957251
1.1453830381355507573
1.1454500876233972839
1.1455244928516354896
1.1456042582243701755
1.1456909451128238775
1.1457877314611402131
1.1458967921851861416
1.146016255148727403
1.1461389799488510555
1.1462540141055990173
1.1463498384938701768
1.1464173046422097002
1.1464535791094634387
1.146464042700413799
1.1464618452911758961
1.1464645457557596231
1.1464909254380801773
1.1465556859991830052
1.1466653372906281394
1.1468159240537765253
1.1469928336360712962
1.1471741047723427176
1.1473362904487005576
1.1474600786299242738
1.147535255322585046
1.1475627760208759742
1.147553401990814459
1.1475227308650071123
1.1474863663042789153
1.1474558280303819302
1.1474360834836638823
1.147426572153318558
1.1474242112390846682
1.1474263959375021749
1.1474341401675012264
1.1474520952088180792
1.1474866296357517648
1.1475433763547413513
1.1476248386213905306
1.1477288414956048346
1.1478491352761845956
1.14797718188823894
1.1481037468309129856
1.1482210938603976125
1.1483249633315104621
1.1484146492752460578
1.1484921636325682304
1.1485601974719201746
1.1486201096052783832
1.1486709635898588733
1.148709900147038887
1.1487343441130539734
1.1487446375266612275
1.1487445186309492851
1.1487402562561304098
1.1487398017388765759
1.1487514208624218792
1.1487804529846650237
1.1488268665715677397
1.1488847579087027029
1.1489430089548406944
1.1489882391555108487
1.1490093201729605354
1.1490006335098090773
1.1489627438449414587
1.1489019646885714199
1.1488284626356519702
1.1487542293086174805
1.1486910145190933896
1.1486483290219791087
1.1486329708609921418
1.1486481748922785506
1.1486937292987655646
1.1487664591085937627
1.148860227364483011
1.1489665328212457229
1.1490748847859870718
1.1491729260113590083
1.1492479180748857992
1.1492878000869595212
1.1492837266403399532
1.1369328474348667779
1.1382602619661590371
1.1411058982885444735
1.1431868439412042893
1.1419337920360392857
1.140121402491167224
1.1403373020159539575
1.141148549143071067
1.1406845393607130124
1.1404081919595379091
1.1405581897925420876
1.1402114785294925614
1.1397488065694165726
1.1398199874124863573
1.140056074886971027
1.1400264291712867148
1.1399687507007327802
1.1400979747670403341
1.1401656424573642923
1.1402300819106645502
1.1403919883188751161
1.1405636986601801475
1.1406861586348084892
1.1407361870945871285
1.1404983797743155627
1.1399232401910235346
1.1394246054678174307
1.1393997580219228372
1.1397498703426109934
1.1400449812620536694
1.1400454581520591546
1.1398373705981670323
1.1396148988901089183
1.1394418370762480208
1.1393207562571481262
1.1391943685090366589
1.1390487298031359842
1.1390950533651984511
1.139645885518503432
1.1404684919736540749
1.1409906006528909295
1.1408901982111065987
1.1404181455075925733
1.140097030406675982
1.1401325197013305601
1.1403488370243750616
1.1405699137193345827
1.1406822277916035535
1.1404810723184155563
1.1398418146676492224
1.1390506173962458014
1.1385936870332447057
1.1386527443740477317
1.1390045727987667679
1.139371588902446053
1.1395235278256274913
1.1393468979857472867
1.1389283413869240036
1.138518373587317889
1.1383792069765601429
1.13856771292741632
1.1389227899757181639
1.1392609980318000318
1.1394428669609570903
1.1393809285591780522
1.1391395122661858164
1.1389677321110731611
1.1390852782913152286
1.1394407176805521065
1.1397030051671122042
1.1395650249417232924
1.1390319287706687224
1.138403906784086761
1.1381047699226556347
1.1383362525242815
1.1388433148293859443
1.1391533205809785123
1.1390085676809036386
1.1385665880737390054
1.1381747737063723225
1.1380180711352942957
1.1380212790051689176
1.1380043110447486399
1.137927361763415357
1.1379121569314858409
1.1380782746861402011
1.1384213187550973334
1.1388497191440190015
1.1392341793446427722
1.1394458337203021703
1.1394424736552102306
1.1392709226203217021
1.1390427000341223351
1.1388173314544272063
1.1385973109493274791
1.1383640237267196316
1.1381579765691014483
1.1380574617611021182
1.1381363385395746324
1.138452981171485634
1.1390017895743826948
1.1396528831239045587
1.1401899726686344216
1.1404563036916273155
1.1404062298080512861
1.1400984324099201483
1.1395746313700210184
1.138921079132523495
1.138268225569957437
1.1378516640179248132
1.1378316155836074586
1.1382077041471678758
1.1388496068667612882
1.1396324484496558327
1.140494250610407434
1.1414257368307128004
1.1423987682928931076
1.1433344827265659038
1.1441354480707000008
1.1447477307518518774
1.1451929403134883945
1.1455546963472706956
1.1459151194090355652
1.1462907531354562529
1.146618254223294997
1.1468076746139139743
1.146820755839504935
1.1467058896044701743
1.1465646021465243365
1.1464803240684935393
1.146468415158470977
1.1464942409371370324
1.1465235614044080314
1.1465434070234050701
1.1465521049118969632
1.146546765136672974
1.1465271384003266064
1.1464868211911545259
1.1464051293587333991
1.1462623326753695885
1.146065970944668555
1.1458668492178938347
1.145728853778563705
1.145687927716199539
1.1457351120416674473
1.1458353480052538842
1.1459630981820041473
1.1461105860257294609
1.1462754772957131078
1.1464489736248992813
1.1466105264242698603
1.1467240721138631798
1.1467385969226353559
1.1466086351382434039
1.1463347270806263367
1.1459893086651611327
1.1457015127379535091
1.1455970047925176925
1.1457258407946822043
1.1460303791445414223
1.1463812326135083275
1.1466614942217352446
1.1468340700657926323
1.1469419979775870022
1.1470523510018502122
1.1471854317032517123
1.1473032600920516355
1.1473587161247824628
1.1473536696309274419
1.1473482867771720439
1.1474146734548411608
1.1475856290189263564
1.1478339111830822006
1.1480912874699560344
1.148284226504971528
1.1483615980875585549
1.1483047856263619568
1.1481278746868666119
1.1478798321794296822
1.1476382009078163193
1.1474821699628698912
1.1474552370675288326
1.1475430879547436902
1.1476807754883364687
1.1477913988408032786
1.1478319968111339033
1.1478136978332915685
1.1477836060824997411
1.1477832372735521371
1.1471611547010089893
1.1471776893275353881
1.1472133585872230643
1.1472670053860682948
1.1473411489625851001
1.1474311117293198858
1.1475142397732498445
1.1475540127809840119
1.1475184261168172029
1.1474019940141264584
1.147234794864998797
1.147070029087692733
1.146956571793404267
1.1469132219224993374
1.1469225285917212798
1.1469478842090072845
1.1469616245707605628
1.1469636702055017174
1.1469797874923763903
1.1470429689524352934
1.147167808271782885
1.1473353890835513713
1.1474988332923583556
1.1476071126752032114
1.147633243027727401
1.1475889501151730343
1.1475195792011505524
1.1474821062869058341
1.1475179840850264767
1.1476347241668019006
1.1478049914122938624
1.1479806560293703832
1.1481160142587445439
1.1481864373240260324
1.1481944932584140506
1.1481636624738216224
1.1481244474118015297
1.1481021894708305364
1.1481106526928923639
1.1481540635206068934
1.1482277342605133885
1.1483297464596533555
1.1484612346875198163
1.1486116728338073845
1.1487623710542067546
1.1488878674643494548
1.1489618791543170229
1.1489662788607979405
1.1488998698361201356
1.1487823736660924823
1.1486483265289404443
1.148533501506729948
1.1484605975739434758
1.1484320685375501991
1.1484321555635690348
1.1484369327651131609
1.1484274747833616015
1.148398675948665737
1.1483601892206569683
1.1483305335909417266
1.148327362808687413
1.1483587853667269751
1.1484197913197766727
1.1484939382825531951
1.148559748038719075
1.1485984160710023261
1.1486009318344030383
1.1485721755471207661
1.148530026030870399
1.1484985821215638602
1.1484992311590782599
1.148541586505194223
1.1486196025014514532
1.148713641638437144
1.1487984521191274556
1.148852994792115334
1.1488677157968398834
1.1488447975862527972
1.1487913204704545134
1.148711928939850857
1.1486054815377451099
1.1484684437048506833
1.1483018672639622171
1.1481184470523326802
1.1479419460065340974
1.1477988573947208728
1.1477058580420609335
1.147661371126104779
1.1476466729673278078
1.1476369447205931884
1.1476150914242120304
1.1475811249510834422
1.147550006891777441
1.1475399258753991028
1.1475580557021787254
1.1475930113227108542
1.1476165197967835852
1.1475952173077494933
1.1475054232317973835
1.1473445711311358597
1.1471326982098648539
1.1469053091933443245
1.1467011414698065064
1.1465498004354599537
1.1464627367683837278
1.1464309085776944741
1.1464287737322274019
1.1464248104125758232
1.1463935973445089633
1.1463241399308889967
1.1462219033496643394
1.1461039430078032719
1.1459904238016545008
1.1458969027600791613
1.1458292271242300764
1.1457836646156709381
1.1457514023713779583
1.1457249560268638611
1.1457023975882698608
1.145688171495152563
1.1456900523750879195
1.145713481866711847
1.1457577756028700655
1.1458141084968520573
1.1458668236953890585
1.1458990720345332281
1.1458983638173718678
1.1458606924499379343
1.1457910002348998812
1.1456993760779168312
1.1455979259062514242
1.1454976915654455638
1.1454064062980384708
1.1453288150368139409
1.1452670314264548068
1.1452214461144010205
1.1451908554059637702
1.1451726511359447969
1.1451609065013403921
1.1451489619847463608
1.1451312875168959682
1.1451047321273737367
1.1450693704728494016
1.1450303827177248372
1.1449959290213831409
1.1449748563712216498
1.1449735290434490675
1.1449936708514474315
1.1450296866998188605
1.145071521708642015
1.145108747839049812
1.1451334583833541192
1.1451419122357768821
1.145133855988625049
1.1451116954025755135
1.1450792686084589889
1.1450405042127871358
1.1449994843656523535
1.1449614746668559384
1.144932593031456225
1.1449198533172519898
1.1449290467657700088
1.1449628874273303225
1.145019042808957721
1.1450889051617250125
1.1451596598808342353
1.1452186755880167102
1.1452578709526408662
1.1452743265817462159
1.1452707145742164752
1.1452551381154039145
1.1452388062227671917
1.1452318671449788212
1.1452406672282773314
1.1452675879811831106
1.1453120463816097718
1.1453716295653069146
1.1454439463414003431
1.1455283735383732235
1.1456261995551553223
1.1457387273546417727
1.1458651493802922694
1.1460001534568955428
1.1461343797499434771
1.1462568980651086648
1.1463575882922745208
1.1464302463099977913
1.1464753903253941392
1.1465009655830089574
1.1465211574155533825
1.1465527267974107151
1.1466103747245799394
1.1467029062238720538
1.1468303947701892209
1.1469831147052760301
1.1471432714113429796
1.147290206496453413
1.1474060080961896446
1.14748090965590821
1.1475153696725217678
1.1475190119155700419
1.1475061854360568692
1.1474907904023892158
1.1474827787708117288
1.1474866428457231038
1.1475012430197100155
1.1475225008982197217
1.1475465012961372224
1.1475722654050699578
1.1476030210070251592
1.1476440984965110559
1.1477008071600203198
1.1477765821927836676
1.1478715824037548643
1.147982658233533515
1.1481048130657072193
1.1482326780894682727
1.1483616177385695956
1.1484884778087782742
1.148610999129006105
1.1487269923618237399
1.1488335490345873424
1.1489259909107658597
1.1489990751226453192
1.1490486796666559144
1.1490737196357156957
1.1490774591198327226
1.1490680291320187756
1.1490559072761368231
1.1490506042942925102
1.1490584224518747281
1.1490813053099713237
1.1491157119994750424
1.1491537480386082581
1.1491852104428041947
1.1492008710673162764
1.149194669958454762
1.1491656915664687499
1.1491182489070475015
1.149060255678904463
1.1490002330100681505
1.1489465040674717855
1.1489057706731704567
1.1488827728755264257
1.1488801384135129968
1.14889935040483393
1.1489407590627487288
1.1490038097222881053
1.1490858619859023459
1.1491816881383927207
1.1492835952064783811
1.1493813054377086669
1.1494629918975145522
1.1495165524767509968
1.1495306497805528601
1.1494991893816886019
1.1388160943532308345
1.1381873098184718263
1.1398625570654572492
1.1413252517033385391
1.1415840304004685191
1.1409772032754625926
1.1412407787909895074
1.1414091312448069182
1.1408609816388572966