/*--------------------------------*- C++ -*----------------------------------*\
  =========                 |
  \\      /  F ield         | OpenFOAM: The Open Source CFD Toolbox
   \\    /   O peration     | Website:  https://openfoam.org
    \\  /    A nd           | Version:  12
     \\/     M anipulation  |
\*---------------------------------------------------------------------------*/
FoamFile
{
    format      ascii;
    class       volScalarField;
    location    "0.00514";
    object      T;
}
// * * * * * * * * * * * * * * * * * * * * * * * * * * * * * * * * * * * * * //

dimensions      [0 0 0 1 0 0 0];

internalField   nonuniform List<scalar> 
75962
(
300.20692290777924427
300.09913882945375008
299.97755653281564037
299.91146273354536333
299.90716801686727422
299.83947964713553347
299.7997563587134664
299.86409164338482469
299.96556503722331399
300.0692364587063139
300.15980969696437342
300.23858888678364565
300.26513792314921147
300.23237506041681399
300.23552558535749313
300.33599047014405414
300.50474922722798965
300.655071075833348
300.73219695089051129
300.70644211023068237
300.56285032858158957
300.34235653646817354
300.163504910859956
300.13733024680237804
300.25070463594659032
300.3953191945497565
300.48800245971131062
300.52759362776941998
300.53801255128172443
300.51140148761356841
300.4441464273972997
300.39340210845023194
300.43656409020536557
300.57672239319697383
300.72906988252248084
300.80623636318023273
300.75710189258910532
300.59100764018234031
300.3883857761204581
300.26049618984154677
300.27539793747496333
300.40220458072491283
300.55687251851344399
300.6536842317948981
300.6371850998812647
300.5182839857924364
300.38283945453349588
300.33130898400463593
300.40328615193544692
300.55871143815818414
300.71527096665369072
300.78461192059313589
300.71839079739942235
300.54109111930182507
300.3497830127013799
300.24222982243441038
300.23519922632846146
300.27477040646454043
300.30585299351184858
300.31539517767077996
300.3121676079015856
300.30856502240715145
300.33081674573730879
300.39400991092287541
300.4766943482560464
300.53838956911039304
300.56303894618008599
300.57092970818388267
300.58274991301533419
300.59510267028963426
300.5876503250224232
300.54260406878921685
300.47478293954929995
300.40821055754673807
300.35040885069832939
300.29725598958992805
300.24961349657019127
300.22373160759065058
300.2462966496871104
300.328926846837021
300.45208851875378286
300.57205664183823046
300.65194240548487414
300.68446211417790437
300.68242770871341918
300.65231241392513084
300.58491463362332752
300.47138496487843895
300.32323211399716456
300.17231964530543564
300.05488784635036836
300.000784461495698
300.02748320095793133
300.13386887570504769
300.29298230099414013
300.45663156376400593
300.57515846649187097
300.62090750770897785
300.59767977485535084
300.52899663095126925
300.44452567077809135
300.3701267213877486
300.32808385999334178
300.33549652617728043
300.39639426688069079
300.49632943241584826
300.60723696228706103
300.70220301189772272
300.76755165443034912
300.79748889543924406
300.78603228580817586
300.72260991617133641
300.60065833997316531
300.42831651966548634
300.22655520057912781
300.01772059888338617
299.81306253479459656
299.61311680712248062
299.41527959247815716
299.22204699602065148
299.04413433799305722
298.8959639154981005
298.78707704265730172
298.7158744466950111
298.67024542626592165
298.63598533377648891
298.60621105453492419
298.58392610316667515
298.57556738555581433
298.58092239902975962
298.58979494219693152
298.58852946463184708
298.57059690463188417
298.5416731851319696
298.51348327045815267
298.49494790335893413
298.48743133990660681
298.48613938453803485
298.48480923627420225
298.47864846741811107
298.46549648653075337
298.44710674937454087
298.4289201741013926
298.41732117470132835
298.41684029784454424
298.42846487964595781
298.44890450471893928
298.47191713632616938
298.4919476445426767
298.50764999090870333
298.52193568346160646
298.53767258462858081
298.55354959157489247
298.56377717946793382
298.56278167785177402
298.55043159311009049
298.53323057917981487
298.52071524900588884
298.52006367966652078
298.53253350490302864
298.55406472259130624
298.57950749086421638
298.60600447155132997
298.63354965564195709
298.66244686985481849
298.6907154360782215
298.7138289070828705
298.7277104209896379
298.73205221096316109
298.73114817668982823
298.73181175346172722
298.73977674659357717
298.75711549383379406
298.78168388300861125
298.80851263227231129
298.83154008786368649
298.84543948869605856
298.84768776404428081
298.8400328608126415
298.8284113640953592
298.82066854875802164
298.82260992554330414
298.83499622532684725
298.85317298403475661
298.87001359413511636
298.88053685214055122
298.88485520553166452
298.88641980204533866
298.77770318651266734
298.78356540921140549
298.79146395939011427
298.80106345025876635
298.81174382270626211
298.82118629302277668
298.82521736890078046
298.81969234519982592
298.80358052802671409
298.78060919225373482
298.757806465495662
298.74191347911391858
298.73614278520597054
298.73909028635790719
298.7463029395279932
298.75346738965242821
298.75923192653351634
298.76550635976968806
298.77527900364805191
298.78993933256668925
298.80783449703210408
298.8249030594404303
298.83687174988432389
298.84152029903907533
298.83952040096357905
298.83365901830217126
298.82729822623304017
298.82302692098181751
298.8219622637547559
298.82386661894980762
298.82762375799438814
298.83200100421737488
298.836193423857992
298.84008771427409101
298.84424010869366839
298.84975365549576054
298.85782200679602738
298.86913755847501761
298.88366537878744111
298.90058518866334225
298.91861216753733288
298.93638538728419007
298.95290186538295529
298.96721316432274307
298.97825993549275836
298.98459468563032715
298.98470285624324561
298.97801474710860248
298.96583011925702067
298.95129037009189688
298.93842468358445785
298.93072023592009145
298.92958893500838258
298.93377757507488468
298.94016966351597375
298.94522224772077834
298.94675854015400773
298.94475986149865321
298.94085234830953368
298.93725270608734945
298.93569905697137301
298.9367969610660225
298.93997737642177981
298.94380789784014496
298.9466468433602131
298.94743451073247797
298.94628462803069624
298.9446045506028895
298.94470514218272683
298.94889436180284292
298.95840925645489961
298.97258487100509683
298.98872528285596673
299.00308841573729524
299.01251184460528521
299.01569382800295216
299.01340418991628667
299.00778018421004845
299.00095026887908034
298.99385395376828001
298.9859572844945319
298.97607223877008664
298.96349872502861444
298.94888991796278788
298.93421034778953072
298.92178264105876906
298.91306748063612986
298.90801305059437709
298.90520085174006226
298.90283891358080837
298.89991022817088151
298.89671445639731928
298.89445579691897592
298.8941841127628436
298.89575728865457904
298.89743574371158275
298.89629304046314928
298.8893860956893036
298.87501564967789136
298.85358578016609954
298.82757766358759
298.80069873462036867
298.77658638071852693
298.75773486776921573
298.74491335660349023
298.73720962422146386
298.73259582290376102
298.7287535095400699
298.72390441006496076
298.71733596432147806
298.7094421416064165
298.70132806402074266
298.69414444013443699
298.68864831621891653
298.68506238866120839
298.6831360644108031
298.68237024941709024
298.68231398456237002
298.68269225284706181
298.68335710948701944
298.68411123478426816
298.68449035015407844
298.68372586089208198
298.68098363301004383
298.67565241003455867
298.66755635624343768
298.65695874406935673
298.64448539770916113
298.63105856486066614
298.61778308434065821
298.60579410595732952
298.59609570694766489
298.58933035980112436
298.58565252933590273
298.58473385581135062
298.58575969434332364
298.58752159949455063
298.58876780423025821
298.58840016045633092
298.58567962988610134
298.58037905629117859
298.57295755799520975
298.56445664860893885
298.55631800445235058
298.55006018639903687
298.5468474996673649
298.54717330742852255
298.55077520012793002
298.55681620498745588
298.56408851807350402
298.57134024742015299
298.57750254948234669
298.58184475298730831
298.58393325713927879
298.58359360876505662
298.58092366021907083
298.57640014041675158
298.57077854940115458
298.56511118318451281
298.56060147979502517
298.55830720410261847
298.55885664900779375
298.56221631636350367
298.5677181990543545
298.57431961080169458
298.58092960994503073
298.58666633052069983
298.59114708894941259
298.59467379944749155
298.59802903639689475
298.60207074592892695
298.60747047603297233
298.61450160317298241
298.62294767971559395
298.63220754297515214
298.64167021442796113
298.65110023078159429
298.66063763431117195
298.67066956241887965
298.68143134020158413
298.69270629263422734
298.70376460877224645
298.7135212181077577
298.72083521290466024
298.72491247243374346
298.72571275696992643
298.72407603897124773
298.72157233824202649
298.72026376019357485
298.7222155575556144
298.72895580089959822
298.74104257591170608
298.75785530588751726
298.77768430289148682
298.798115883219225
298.816536483795403
298.83079013379835942
298.83976386795751523
298.84348703363860977
298.84289389910577484
298.8394395089329123
298.83464520206672432
298.82966274985892596
298.82507470866920585
298.82099743587616558
298.81735432968548594
298.814248742737675
298.81216152311270662
298.81180720846037957
298.81392081046021758
298.8190785963343501
298.82743268000689341
298.8386107441286299
298.85165545129768816
298.86518638410530002
298.87780243388482404
298.88841920651742612
298.89652802294472167
298.90230109561582594
298.90641032921195119
298.9097493235942693
298.91308527511893089
298.91676131924776882
298.92065737453503971
298.92439242131240462
298.92749641279880279
298.92972320195821112
298.931263093717007
298.93274616147954248
298.9350654680461048
298.93897934576199305
298.94475865275273918
298.95200250498641026
298.95962381317383461
298.96618604516407913
298.97034807030001957
298.97119717627600721
298.96841813451356984
298.9624427826956321
298.95432860929696517
298.94548484296137758
298.93743376838057202
298.93155619961441971
298.92883259746815838
298.92967165003005903
298.93390697688687396
298.94098442790550507
298.95006806842479818
298.96013882471248735
298.97000624126735602
298.97836070989961854
298.98393617981400894
298.98574379844353643
298.9831237873174814
300.20486413767639533
300.37143512716880878
300.28762428718272304
300.06341065969030524
299.9121059374053857
299.74891994318477373
299.73516219894264623
299.87364448628738955
300.00760259393280194
300.15773579640756452
300.2890827891097274
300.31301436258797821
300.24753571544431452
300.18059282946734356
300.19655495961177394
300.31538953232990252
300.50540158932977874
300.69396404566953152
300.79596999087760878
300.76318848837320274
300.59981464086479264
300.36292168265464397
300.17673684943684975
300.14756521991296268
300.25330299451286464
300.39160452463812589
300.4896358861852832
300.54841814681304868
300.57323628420141404
300.53469194042446588
300.43578514611067476
300.3586623663201749
300.39044765338189791
300.52946967766257558
300.68940241308752093
300.77376146430674453
300.71833619824207062
300.5407330442503735
300.32334689823659346
300.20329555562426549
300.2396705388364353
300.39355530896114033
300.57560697969967123
300.69510279498945238
300.68090702330994191
300.5354565919523111
300.36107701370684708
300.28846503519264388
300.36889246169693024
300.54586814436248687
300.71650748722271373
300.78826959693651588
300.7171771178204267
300.5311715895000475
300.33134098739617457
300.21922779713850105
300.21498333282085014
300.26735176429804142
300.32183407245565832
300.35192884192542806
300.35492992163671033
300.34939613125413871
300.36664829081746575
300.42392998502481305
300.49976433821984756
300.55379090835151601
300.57125728629404193
300.56960344453926837
300.56819978147404981
300.56281949863404179
300.53884669945006181
300.48526716644101953
300.41934056096437189
300.36370733610272055
300.33064259664388373
300.30866179933519788
300.28010930526335187
300.24966502308137706
300.24841076104632975
300.30528954205772152
300.41404522306078206
300.53383218707114111
300.621369871600848
300.66120556764911953
300.66299401970383087
300.63588748994311572
300.57675050233717684
300.47820450913610557
300.34619384597283442
300.20426380923709075
300.08445163367900932
300.020718131533215
300.03901578362678038
300.1404120502327828
300.29491910748282635
300.45151513705735624
300.56221456764251343
300.60235021461829774
300.57515680230216049
300.50573063503037474
300.42575265185854505
300.36186888443432963
300.33285410506556445
300.34992435197420946
300.41576237326472665
300.51817846288901137
300.63249010869714084
300.73195032244422009
300.80072270761780828
300.83350552274555412
300.82605735320152007
300.76835745986028314
300.65125537697173286
300.47757530657509051
300.26473700563911962
300.03666287832777471
299.81115001194990555
299.59552181666293791
299.39108996029966647
299.19970155160586955
299.02837835457421534
298.88753428172532267
298.78432401297544629
298.71620514320704842
298.67027657746564273
298.63162838457583348
298.59323850440677006
298.55806672842675198
298.53342912989262459
298.52247593724445096
298.52082624001843669
298.52039095986702932
298.51591959753727679
298.50776927990625609
298.50018411800846252
298.49678032364982982
298.49801855096552572
298.50101478550425327
298.50064893906335328
298.49205908519650166
298.47348515045746353
298.44798417415074709
298.42291428519786223
298.40591532016202336
298.40088409966307381
298.40807844083474265
298.42524513816465515
298.44842578311187253
298.47353051265599788
298.49810209545364614
298.52133725613731485
298.54194115617417538
298.55596118224286784
298.55745658435921541
298.54305412055606439
298.51682597441293865
298.49013265076422385
298.47609801709432986
298.48224882698485771
298.50647739430797856
298.53920690752579503
298.57030967845480518
298.59523640627236318
298.6159802982203928
298.63663831697851947
298.65798512682118826
298.67606600227315994
298.68613128411067237
298.68807493404335673
298.68776535680763118
298.69336539683172305
298.7102600832751591
298.73829663641350862
298.77239727036152317
298.80536614014516772
298.83046511723830463
298.84299261648351376
298.84184479082455255
298.8306399252219876
298.81713543129359323
298.80999297541279702
298.81458406011284978
298.83003632043778452
298.8498123889883118
298.8657714036085622
298.87351556912329897
298.87450440139002694
298.87371161306020895
298.87505382619099237
298.78551579303308472
298.78712773341305819
298.79154776059863252
298.79823519180314406
298.80730125509359141
298.81822672548673836
298.82844461622659082
298.83355604239244485
298.82945187857768587
298.81525298847873273
298.79462020310194248
298.77422600122338281
298.76025931236182487
298.75522897998882854
298.75718425195975669
298.76173246158100483
298.76525671485097746
298.76720952267669418
298.77024603836963479
298.77806383603223139
298.79233427956449987
298.81098472095925445
298.82902178881312238
298.84122901516235515
298.84488734100443708
298.84101020390028225
298.83365719634008428
298.82784813125425671
298.82723628188824705
298.83280745351680707
298.84286837063893927
298.85427475773474271
298.86392207823138278
298.86999146195040566
298.87260817792741818
298.87341840817805405
298.87459521818027497
298.87806010001321511
298.88501356328771408
298.89562418830757906
298.90926845918460231
298.92486989098767936
298.94118219250611901
298.95728908186663375
298.97199378662139679
298.98353247392282128
298.98980267998427962
298.98918676507014425
298.98133969511661689
298.96786316212626389
298.95225086186411545
298.93864860457341592
298.9301883643624933
298.92786977284544037
298.93027540705043066
298.9343424896343322
298.93709236922148875
298.93698086517395041
298.93435928089871823
298.93097216452576959
298.92890090101695932
298.92958297709958515
298.93320597778932779
298.93869496333587676
298.94420650681087182
298.94788406445121609
298.94868649388695303
298.94688725719873901
298.94407338961678988
298.94263968649090657
298.9448909143865194
298.95195030001303849
298.96314074365704982
298.97605226050393412
298.98746668815101657
298.99470612979240514
298.99671359215687971
298.99408318189398415
298.9882875300599494
298.98063159548735257
298.97151854747073685
298.96046523078746304
298.94689564656977154
298.93110637211685798
298.91465967811848259
298.89992962492357265
298.88895592255812517
298.88234569926760287
298.87900912322726299
298.87687278582427552
298.87418118496628949
298.87057371835840058
298.86716222425076239
298.86564954754544488
298.86699723705976339
298.87043948969198937
298.87338313106846499
298.87230405031806413
298.86422926382465448
298.84805359361365618
298.82508185686236857
298.79865666159201965
298.77300571942998886
298.75185409796443992
298.73730047622234451
298.72935211374044684
298.72611554416806712
298.72467655230957462
298.72221102999162667
298.71692101598762292
298.70853126322901971
298.69811325352844733
298.68743907938943494
298.67817646739132442
298.67124754651939611
298.66669300387167141
298.66394140306152849
298.66227080553602491
298.66121908594737988
298.66079169536646987
298.66128531913437882
298.66290296470765497
298.66541464929093763
298.66799576846085529
298.66941286097119246
298.6684672685293549
298.66441822649085225
298.65720266832067864
298.64739821796314345
298.63602243618578314
298.62426815689491377
298.61323240052826122
298.60373657802517755
298.59627973169250481
298.59094284643151695
298.58756734057533322
298.58580454803814064
298.58505241444839839
298.58451973104718036
298.58343999481701303
298.58122583946396844
298.57751677934754753
298.57243297163125817
298.56659310963448206
298.5610093127708069
298.5568472919039209
298.55509498898811671
298.55618283233445709
298.55977016460667528
298.56498224776356665
298.57072243767709097
298.57595931810618595
298.57988595423785227
298.5820161691203225
298.58214546468656181
298.58028902901435231
298.57664276976748852
298.57168810751630872
298.56616867772834212
298.56104476408484061
298.55747786549858347
298.55642289910520049
298.55843451221340956
298.56334456852272297
298.57025047697271702
298.57778935553085375
298.58468728513707902
298.59004571658658733
298.59347107775158747
298.59527293452032382
298.59633587494107587
298.59772786304546344
298.600251481659825
298.60430864016257146
298.60990753128061215
298.61671483500094837
298.62431246748980129
298.63250977320996071
298.64149058932338221
298.65161005468888789
298.66311770139839155
298.675825924738092
298.68897029809090782
298.70135887709972167
298.71172346252512853
298.71904045266654748
298.72296066217535326
298.72402843295316188
298.72364022011583984
298.72369512400729263
298.72624375547763975
298.73290942241612811
298.74443378939281502
298.76043611480179152
298.7793940892135538
298.79897870391528159
298.81666898597404725
298.83035593578568978
298.8388870149548211
298.84228912822288748
298.84162600794996933
298.83849231313388373
298.83451744275453166
298.83093393145156824
298.82831205017970433
298.82666493998783608
298.82575011382243702
298.82536924065067296
298.82569438257445427
298.82725657361493177
298.83072742813953937
298.83667121053588289
298.84529974218190773
298.85632434702648652
298.86903528597269997
298.8824988749885847
298.89573398359152634
298.90794176928875459
298.91871023392627649
298.92800939580166641
298.936091145518958
298.94326712162433068
298.94968665269550456
298.95523941812632529
298.95959970304431863
298.96246881849003785
298.96385766222897473
298.96413990778842162
298.96395826414425301
298.96412406170833265
298.96547436407252007
298.96854170583628729
298.97330027077009618
298.97912215125347757
298.98485484674159807
298.98912229464860957
298.99080294245413825
298.98936457923593935
298.98492265856157246
298.97818670437311539
298.97024942665700564
298.96236908672528898
298.95575445882167287
298.95136699317129114
298.94987549591508014
298.95157944004381534
298.95642260315304384
298.96406178029781131
298.97386599436470078
298.98496804052422249
298.9962968237879295
299.00658047779830895
299.01448819199168838
299.01875318934071402
299.01845173160899094
299.83540984821013353
300.01077900492680328
300.12458931472440327
300.20909943930769259
300.0277546017088639
299.77354079103071172
299.73503073030650512
299.87281446401220819
300.03041806215776433
300.27433979774485806
300.4822454246561847
300.46578127567420324
300.30335889828944573
300.18195238181999684
300.166518076327975
300.25482223128489068
300.44858799364106972
300.68596560994069478
300.82347470005777268
300.78632998144593103
300.60140976379017275
300.36700841710671739
300.2073773731045776
300.19746468676464701
300.30253207195289633
300.43650339593921217
300.54700282924682142
300.61050689129370994
300.6014741155398724
300.50887835063110742
300.37810829413325564
300.29803042466807028
300.33846176962498475
300.49037940191590224
300.6713804812457056
300.76549742076838356
300.69644402609088729
300.49662839514104462
300.29855221924248099
300.2155042965889038
300.2807988501225509
300.44904164776522748
300.63269442616308424
300.74050763828154231
300.70694028410866849
300.53980328833995372
300.34705100330614869
300.26614487100960105
300.35007602393977777
300.53260539001882989
300.6971125988023914
300.7523131108285952
300.6680796649393983
300.48574276855009657
300.3064727342825222
300.21875446661755404
300.24149929073314524
300.32621420805867274
300.4031878935502391
300.4319864977159682
300.41599182347590613
300.3891458136268966
300.39378556336959036
300.4454260443121143
300.51718342855434685
300.56752526763091282
300.5788830844057884
300.56287568841702296
300.53759308489100022
300.50703617569968173
300.46719631833485664
300.41918137668034205
300.37108037630986246
300.33793878370659058
300.32700196035727913
300.32193825948729682
300.30156621711040543
300.26959942349816401
300.2604144909111028
300.30793086122821478
300.41056509635285465
300.53052199145128043
300.6212332185109517
300.66099983642658344
300.65646309564067451
300.62061489767467037
300.55648466698841048
300.46210541348727929
300.34154208744843118
300.21101186630289703
300.10237789645850626
300.05080070055271335
300.0794788600838956
300.18137316575229079
300.32246407374924502
300.45657092559525836
300.54753961075209645
300.57760174759187066
300.54849252604907406
300.48151850643859007
300.4082513314812104
300.35589613760282646
300.33959863469038964
300.36673558200766365
300.43639327952013218
300.53946956166049631
300.65117656646640398
300.74596333116215874
300.80434516725142657
300.82523347396755753
300.80964050322796766
300.75176573658950474
300.64147095861562775
300.47699809460908682
300.26888040805522451
300.03653101214081289
299.79805415497276044
299.56481259555954466
299.34291368912511189
299.13852424481581238
298.96067839801008859
298.81994994210145933
298.72252988583016986
298.66457809183123118
298.63191514713787456
298.60685376431382565
298.57775376122521038
298.54370754415970168
298.51160349535530258
298.48868687625372331
298.47670536140196873
298.47284437359792264
298.47419750872660416
298.47936647233450458
298.48709465250209405
298.49499245200104269
298.50056377836989441
298.50120600259032244
298.49385740054952976
298.47660900731489164
298.45119344580990628
298.42439329392294667
298.4046447929975443
298.39736940336484849
298.4027419194178492
298.41724834564985258
298.4373621301074877
298.46078154489435974
298.48564865486832787
298.50974481274249683
298.53024850066839235
298.54340535336785933
298.54441582909964836
298.52938636965404839
298.4994110723945937
298.46315165185450269
298.43498180909364237
298.4284236199885072
298.44837974229210431
298.48781647585798282
298.53183800582763752
298.56693820219800273
298.58845246400693441
298.60078780049519764
298.61155778723195908
298.62394298387295066
298.63509632717148179
298.64101350730732065
298.64253567847993054
298.64641810904242902
298.6605150570202909
298.68835705311443007
298.7268769495954075
298.76836493630605673
298.80428555260260737
298.82836294922225306
298.83782462317361706
298.83352251808668143
298.82019325833067569
298.80581999898100776
298.79875641053973823
298.80372987722211064
298.81941588259826403
298.83912363034454529
298.85483299206504171
298.86207985106284468
298.8621519034099947
298.86023308886672112
298.86100824759552097
298.79710374457334865
298.7991443881393252
298.80307542792110098
298.80885546829472332
298.81682777403028695
298.82653538349291011
298.83555773027893565
298.83995474131603487
298.83626356812396807
298.82386856731466196
298.80597275766496068
298.78827884476089594
298.77606373817980057
298.77139515741720288
298.7724247032040239
298.77518278713489508
298.77658804552083893
298.7765015897815033
298.77761836999496836
298.78352512794396034
298.79597530022886076
298.81320170708806927
298.83039758479128523
298.84216100230787561
298.8454795449954986
298.84135775376716992
298.83437643056987554
298.83044977262289876
298.83398035674275661
298.84588875361248483
298.86344533093233622
298.88170294843718011
298.89590757421763101
298.90346822875085309
298.90462409043834668
298.90180217735405677
298.89816176054546304
298.89630263888659556
298.89760268626167772
298.90243666104123577
298.91027600367351624
298.92085901700119166
298.9343908065596338
298.94986197347395773
298.96540873560695672
298.97842346990796614
298.98617280409672503
298.98674270218225502
298.9799650042065764
298.96786767781367189
298.9540562820131413
298.94227750339115346
298.93489934023892829
298.93214676256832263
298.93231619315042735
298.93285077032749086
298.93174225191495452
298.92847544736542886
298.92411707465566906
298.92067741293158178
298.92007332332894975
298.92320155555643169
298.92955823736872389
298.93741389255592367
298.94448741321491525
298.94876342650383094
298.94924636515105476
298.94639623033106091
298.94204889005783343
298.93871271326833039
298.9386298905361059
298.94282364842376865
298.95069305815604821
298.96022849344467431
298.96882855722054728
298.97431958617005421
298.97570651833660804
298.9732117516276162
298.96757205980833305
298.95928431372601608
298.94824723516831
298.93411124701373183
298.91698195116782699
298.89814664865474469
298.88002135015591421
298.86530831043023682
298.8557087979620519
298.85105425070929641
298.84940782175533514
298.84820456412376188
298.84568331667725261
298.841873201706278
298.83838237376636471
298.8371720795991564
298.83904762064776151
298.84284302301620073
298.8455679080894356
298.84363402040617075
298.83442887474774352
298.81756830127159219
298.79510192185114192
298.77078664523719453
298.74879177165314559
298.73237257036038272
298.72287445094394798
298.71943926619348986
298.71939615938060797
298.71936702777998107
298.71657415639924693
298.7097563837820644
298.69941025697545456
298.68729194846554265
298.67551776784512185
298.66573959055637033
298.65859075635682984
298.65369182979708285
298.65012629600585115
298.64711176938544668
298.64445662274215465
298.64264373303331013
298.64250921211015566
298.64464728527320858
298.64901420591314718
298.65471809080037247
298.66014705438180954
298.66355096058060781
298.66361208219854007
298.6598800835606653
298.65283197355103084
298.64348007955186404
298.63305421100830017
298.62269392393193357
298.61320870449304721
298.60509767659357294
298.59859588839259459
298.59375556462202894
298.59045028412487
298.58840375496089337
298.58698114065083473
298.5854779451478862
298.58331233358285317
298.58017666990139105
298.5761030200579853
298.5716628336786016
298.56774109413987617
298.56529775159145856
298.56502863560007199
298.56713311477017214
298.57104067030888928
298.5756969083633976
298.57999669703929158
298.58307941776814687
298.58450447422546858
298.58417450276880345
298.58226890102940843
298.5791229571985923
298.57510148759001822
298.57061540265453914
298.56624308681830371
298.56268447835981306
298.56075746456110664
298.56117531799623066
298.56432587539387669
298.57004003937282732
298.57743789832284165
298.58514721631001976
298.59176684729703766
298.59635809961906716
298.59853088011965383
298.59849851787771513
298.59707010936710958
298.59541428631047211
298.59462243354238353
298.59540498663221797
298.59805698393796547
298.60255143407158585
298.60865583629572484
298.61613067391471077
298.6249230776364243
298.63518178375818479
298.64705497016603886
298.66046256923220881
298.67483406845713034
298.68915133841250054
298.70221794012684313
298.71292577901573395
298.72058534642451377
298.7252403959281537
298.72774516258425592
298.72963825789940984
298.73275038628798939
298.73869244252506405
298.74844017957332198
298.7620284834806057
298.77843890097312851
298.79578285511001923
298.8118453724461574
298.82467057531840737
298.83314432810004746
298.83723512094007901
298.83789455043307726
298.83659314235791271
298.83478592214663649
298.83354821421005454
298.83341102366199493
298.83432980676951729
298.83595831162506329
298.83795557194031289
298.84026191384919002
298.84323791993597297
298.84743548974165606
298.85337230165828259
298.86135384498044232
298.87133796767602689
298.88295079742243843
298.89565306774505871
298.90889807045886073
298.92224014981371738
298.93540139267480527
298.94819201537796971
298.96041211145711713
298.97176384516768621
298.98173910938146491
298.98975147278406439
298.99532096352487542
298.99829372406719585
298.99899082518186333
298.9982568402411971
298.99719370927732598
298.99680240663457198
298.9977354062122572
299.00017393967874568
299.00372107203395444
299.00752511425923785
299.01050652395883844
299.01170719115629026
299.01053001894626959
299.0069387657210882
299.00145613480020756
298.99497580980556677
298.98843576063757155
298.98272080859391053
298.97850805289579057
298.97624161937795861
298.97613706664105848
298.97829942159029315
298.98272737303057056
298.98935308799946142
298.99790461898629701
299.00786173431328052
299.01844805157230667
299.02862303990031023
299.03716685716926804
299.04281231555461318
299.04437661538474913
299.04119511211484905
300.02719183476608578
300.04188642399685705
300.01561348379306082
300.03031504735099588
300.0064012434852998
299.86091965736909515
299.81053547295800854
299.88462803993905936
300.05304682190262611
300.37492119419687242