/*--------------------------------*- C++ -*----------------------------------*\
  =========                 |
  \\      /  F ield         | OpenFOAM: The Open Source CFD Toolbox
   \\    /   O peration     | Website:  https://openfoam.org
    \\  /    A nd           | Version:  12
     \\/     M anipulation  |
\*---------------------------------------------------------------------------*/
FoamFile
{
    format      ascii;
    class       volScalarField;
    location    "0.016";
    object      alphat;
}
// * * * * * * * * * * * * * * * * * * * * * * * * * * * * * * * * * * * * * //

dimensions      [1 -1 -1 0 0 0 0];

internalField   nonuniform List<scalar> 
75962
(
5.3197498216546051263e-07
6.4901478037000674329e-07
7.8114256356126748157e-07
8.5652467118625333308e-07
9.2618270260981740673e-07
1.0586916610069406435e-06
1.2140096224176572373e-06
1.3095322399546434769e-06
1.3547967968145167879e-06
1.4219683010230287063e-06
1.5456102787857817552e-06
1.6604844510524889933e-06
1.7409278767777704646e-06
1.8098296385322441218e-06
1.9015605741667662353e-06
2.0182678715967413148e-06
2.1296519139171982642e-06
2.2082008976006065635e-06
2.2605861982841081059e-06
2.3257191468110914556e-06
2.4376511098005782389e-06
2.5851408040761603629e-06
2.7197690354811653256e-06
2.8047611659377017568e-06
2.8451523962373259188e-06
2.8805334462198979913e-06
2.9584979622060252475e-06
3.1051544438695406826e-06
3.2263986957692136645e-06
3.2953225955364263229e-06
3.3400818709538714254e-06
3.3999161134494510892e-06
3.4897956534978273449e-06
3.6036720011082739793e-06
3.7319846845907075836e-06
3.8641238341128830675e-06
3.9842205113540041643e-06
4.0734780363839977218e-06
4.1262428074407302411e-06
4.155622917788545836e-06
4.1881762852674644533e-06
4.2560742205596946775e-06
4.3811921001156973018e-06
4.5349655801797885302e-06
4.6735002378216619078e-06
4.76318442596148671e-06
4.802022988584921032e-06
4.8124701059037692887e-06
4.8194723127495035805e-06
4.8374475297555360104e-06
4.88251384424084035e-06
4.9763260854117534875e-06
5.0911950013277683253e-06
5.2092731375586467135e-06
5.3106980663628377932e-06
5.3803951583641485584e-06
5.4195875516626982585e-06
5.4531344647603433742e-06
5.5207321553745937554e-06
5.6728630994748792895e-06
5.8553083716036147954e-06
6.0125164867023532747e-06
6.1166399629257603502e-06
6.1664094076982438596e-06
6.1798995321566319619e-06
6.1790422179743019593e-06
6.1779026990056339484e-06
6.1835516720690319106e-06
6.2100468358637097603e-06
6.2967459463974564577e-06
6.408449519783918911e-06
6.4926598588570359562e-06
6.5532402300320778026e-06
6.6028112802413492933e-06
6.6590243343696168814e-06
6.7355551290192925608e-06
6.8446383652805515161e-06
6.9922935638247174416e-06
7.1684665678669962573e-06
7.3458143343104110494e-06
7.4907000108761920076e-06
7.580784487429735881e-06
7.6167482855203230094e-06
7.6190685689777554808e-06
7.6086791249900982624e-06
7.5835666135104707851e-06
7.5688159704123885525e-06
7.5640203551082467432e-06
7.5733863624802774886e-06
7.6201935099328157536e-06
7.6734138077611496162e-06
7.7205716645101958448e-06
7.7746427875926625535e-06
7.8413390894244046076e-06
7.9216072614186262049e-06
8.013550841875555618e-06
8.1137809657957065811e-06
8.2181732217448652035e-06
8.3186046409478605327e-06
8.4040799295542145756e-06
8.4635909466351033284e-06
8.4932339060733786956e-06
8.4998022340619576822e-06
8.4964544424423659249e-06
8.4893883233977968246e-06
8.4822537046272048871e-06
8.4788836707555700033e-06
8.4943843320621915515e-06
8.567154366151923575e-06
8.6468396686462313554e-06
8.7064159503391433398e-06
8.7582744761143594195e-06
8.8130964970702290389e-06
8.8783947702915977292e-06
8.9565279599944031468e-06
9.0452611559158359978e-06
9.1382865598032246985e-06
9.2284872405293516653e-06
9.3091974298677713281e-06
9.3746903383781084141e-06
9.4217498748591389644e-06
9.4486666127064647213e-06
9.4583813877476229082e-06
9.4581406156748148127e-06
9.457030150584424505e-06
9.4620099989420076297e-06
9.4893601201660009983e-06
9.5564126398208040406e-06
9.6230405649599392594e-06
9.6771758549650341042e-06
9.7144142853978307804e-06
9.7344636663287324816e-06
9.7413187170762433856e-06
9.7421451501359656862e-06
9.7447979013207783366e-06
9.7576636672237549764e-06
9.7965846061959947408e-06
9.8979084972779482915e-06
1.0022630303713739498e-05
1.0138330364983855466e-05
1.0234959904278233039e-05
1.0307253526468801983e-05
1.0354768947797709857e-05
1.0380147537982586074e-05
1.0389875711708553143e-05
1.0392619241963624546e-05
1.0395587226408851028e-05
1.040373518076691141e-05
1.0427685718534643162e-05
1.0464454734141072329e-05
1.0492936606452038574e-05
1.0508862261460534022e-05
1.0512421318393157932e-05
1.0507784682107987938e-05
1.05006476111538897e-05
1.049603042358409179e-05
1.0497627643602843182e-05
1.0515043704396928373e-05
1.057750402367783794e-05
1.0695284076776315175e-05
1.0814356258079497956e-05
1.092917955661030954e-05
1.1037699458929299908e-05
1.1137545957683718471e-05
1.1225822797272794326e-05
1.129794252852395507e-05
1.1350961603036485928e-05
1.1384864849831926868e-05
1.1401482029842979841e-05
1.1405305132537187736e-05
1.1401039343779231216e-05
1.1393391119871779563e-05
1.1379007093337560442e-05
1.1344508054964638568e-05
1.1293367068584588811e-05
1.1253198702661884091e-05
1.1226982072661445926e-05
1.121285660437263982e-05
1.1206618378692131748e-05
1.1203714013785267192e-05
1.1215843760476220311e-05
1.1282155655957137834e-05
1.1438557113327118002e-05
1.1586419469385521902e-05
1.1715314777741006459e-05
1.1826854706493302696e-05
1.1922782424678421079e-05
1.2004086204462146589e-05
1.2268340600562536416e-05
1.2310333076875788684e-05
1.2431433446576240417e-05
1.2558865168764965628e-05
1.2670208677955905767e-05
1.2763574868541405636e-05
1.2837561825994040206e-05
1.2893389449217937588e-05
1.2933160661680177225e-05
1.2959439944975743007e-05
1.2974924010873049271e-05
1.2982003321880731354e-05
1.298232661277352633e-05
1.2977462460493466607e-05
1.2969884527467906503e-05
1.2960602083175424849e-05
1.2950934031237443085e-05
1.2939469223325329481e-05
1.2920968372601570083e-05
1.2879314738346353861e-05
1.2787656040496264925e-05
1.2696694109265917142e-05
1.262603939383883533e-05
1.2579384046556710012e-05
1.2553532197071376895e-05
1.2542535656055291284e-05
1.2536751960950146703e-05
1.2539742708952124223e-05
1.2571078993972186448e-05
1.2665591501777394873e-05
1.2763978848521558452e-05
1.2846285891315878809e-05
1.2913640313072949367e-05
1.2966571886017492452e-05
1.300593317195358589e-05
1.303314543042341106e-05
1.3048862201882187474e-05
1.3055564104957045806e-05
1.3055268895198792386e-05
1.305017487328680093e-05
1.3042335538287863725e-05
1.3033316131500430001e-05
1.3022875256674750993e-05
1.3007447657634234285e-05
1.2975525255763043205e-05
1.2905246193589055382e-05
1.283159857972909052e-05
1.2771240150817214811e-05
1.2725900297025961679e-05
1.2695327503091435249e-05
1.2676132797862704673e-05
1.2664127443533798609e-05
1.2654615652034014684e-05
1.2648935445054948582e-05
1.2655721933448621321e-05
1.2693466976068786014e-05
1.2744105478197070955e-05
1.2796300971151153048e-05
1.2851194065540600834e-05
1.2908194210793538892e-05
1.2964341379267107582e-05
1.3016273901800155056e-05
1.3059331385691333341e-05
1.3091253770370432215e-05
1.3110584961261578457e-05
1.3118361284922667274e-05
1.3117343910213302385e-05
1.3111497009658823294e-05
1.3103679490953219045e-05
1.30952661686626236e-05
1.3084754984309018619e-05
1.3064155253071470516e-05
1.3014894254520093704e-05
1.295372436435005334e-05
1.2901840557278359937e-05
1.286075070479655791e-05
1.2830753042050778521e-05
1.2809360169561732299e-05
1.2793981389287981847e-05
1.278065982224026474e-05
1.2767944582244253297e-05
1.2756020253688430283e-05
1.2749405518768229414e-05
1.2756969226190118205e-05
1.2773778031992062804e-05
1.279670806000646099e-05
1.2828338290824403028e-05
1.2868784147566724886e-05
1.2916524444354202144e-05
1.2968461313215422676e-05
1.3020199104050159182e-05
1.3067419526744854859e-05
1.3106327725771589284e-05
1.3134851613828100002e-05
1.3152100094317219301e-05
1.3159184434542159754e-05
1.3157688738676077823e-05
1.3150395074443055872e-05
1.314022881125435849e-05
1.3129335525232983009e-05
1.3118184977275999822e-05
1.3104725410292985023e-05
1.3081857013694999723e-05
1.3032586213027323824e-05
1.2974808081176629072e-05
1.2923362970038297686e-05
1.2879611996963751758e-05
1.2843542676469258106e-05
1.2814848526115534189e-05
1.2792486325009913006e-05
1.2775056387545927309e-05
1.2760799587968181694e-05
1.2748159848781701522e-05
1.2736840024591969403e-05
1.2727431516508852372e-05
1.2725427542864241608e-05
1.2746978071905624611e-05
1.281733687537679426e-05
1.2894126880803797022e-05
1.2963552498112442053e-05
1.3022981281249878789e-05
1.3069562320613295782e-05
1.3102720860238872396e-05
1.3122871612253142685e-05
1.3131575596869148737e-05
1.3131529791740959584e-05
1.3125796258268185402e-05
1.3116927290341708588e-05
1.3107324653553716683e-05
1.3096767478543433141e-05
1.3083714484993018448e-05
1.3063121249762842766e-05
1.3018336694838340546e-05
1.2947033024444783169e-05
1.2878789754947641129e-05
1.2817693734633996158e-05
1.2765701366264977845e-05
1.2723748363557024996e-05
1.2691924551677983166e-05
1.2669047299296625758e-05
1.2653340086479094944e-05
1.2642701299724146087e-05
1.2634610478091080833e-05
1.2627713989859349711e-05
1.2624190885113242429e-05
1.2631011829096978801e-05
1.2667947297495909227e-05
1.2724375797583361615e-05
1.2776449122457876655e-05
1.2823038376009420874e-05
1.2862862916681111754e-05
1.2894877978727732102e-05
1.2918697157753193804e-05
1.2934826333058861947e-05
1.2943835101473268452e-05
1.2946830059897163908e-05
1.2945109826848457459e-05
1.2939715056468434153e-05
1.2931776409237442691e-05
1.292252506527770242e-05
1.2912389801074657469e-05
1.2900952699711541836e-05
1.2887135039519724572e-05
1.2866795569386953144e-05
1.2837599198839167794e-05
1.2807626413558839288e-05
1.2776749881090090419e-05
1.2744562754968488276e-05
1.2710112432206565784e-05
1.2672673339656607847e-05
1.2632057101472278323e-05
1.2589673333306240175e-05
1.2546995274379729856e-05
1.2507141826798810481e-05
1.2472233375788786979e-05
1.2445178907791808634e-05
1.2426008270934487245e-05
1.2412811840658125693e-05
1.2402758751992056896e-05
1.2397904344041109901e-05
1.2412721390751919252e-05
1.2490649416246946528e-05
1.2631145236984946269e-05
1.2754448123366854618e-05
1.285462028426844001e-05
1.2931781400368919991e-05
1.2987483605341385075e-05
1.3025648015934408275e-05
1.3049482575002891937e-05
1.3062591966080578203e-05
1.3067876732052078703e-05
1.3067511467954486722e-05
1.3063417725658249601e-05
1.3057697893866510703e-05
1.3051209905360529741e-05
1.3042753553210053425e-05
1.3025644822531944763e-05
1.2980440751715377313e-05
1.287048546175685056e-05
1.2746595098014299472e-05
1.2631596146737814507e-05
1.2529471618032548321e-05
1.2442786469278506602e-05
1.237413478152020242e-05
1.2323167209650800799e-05
1.2289020930423486723e-05
1.2268547899262511333e-05
1.2257086323510222548e-05
1.2249277504208330616e-05
1.2245203829758576772e-05
1.2253873158432314542e-05
1.2304181190002047732e-05
1.2411657995464640228e-05
1.2509292617255646858e-05
1.2589905152791938108e-05
1.2651878055303302656e-05
1.2695829029909621709e-05
1.272377248290930254e-05
1.2738838607955785075e-05
1.2744070737267855248e-05
1.274269409633684442e-05
1.2737431119244087925e-05
1.273060602635818416e-05
1.2723326981259927465e-05
1.2716005288519469647e-05
1.2708319304199914687e-05
1.2699023098017200297e-05
1.2685112591349044847e-05
1.2658014857547370243e-05
1.2596880840753529402e-05
1.2518077040792994985e-05
1.2437537520339017819e-05
1.2357341996050135585e-05
1.2279498467009094135e-05
1.2206258420604393445e-05
1.213955085099114544e-05
1.208150467576947055e-05
1.2033987393460983078e-05
1.1997517640885220947e-05
1.197206400679048184e-05
1.1955664021655460752e-05
1.1945354017718020059e-05
1.193732953582637903e-05
1.1933445802543039474e-05
1.1943883472667785826e-05
1.2000812078638584411e-05
1.2109734225450468457e-05
1.2207168188624608024e-05
1.2287718250556877605e-05
1.2350939525667365296e-05
1.2397911287970473908e-05
1.2430783533299204159e-05
1.2451834941832167896e-05
1.2463756164546892552e-05
5.8078048219430241447e-07
6.8287144651205802264e-07
8.3144399832313548222e-07
9.6636209407804974976e-07
1.0338159734123544643e-06
1.0853470676987898622e-06
1.2061431836982186071e-06
1.3785595591850199138e-06
1.4756050335738782133e-06
1.5383658459476946002e-06
1.6389067620841443154e-06
1.7729235202576451682e-06
1.886203597407962898e-06
1.949988617215898182e-06
1.9893433632731749229e-06
2.0590415673742003228e-06
2.2101893716307101706e-06
2.3402438254251339908e-06
2.4048961105410881595e-06
2.4567136218976773513e-06
2.5671889051911999523e-06
2.7297633432980905979e-06
2.839780308578127132e-06
2.8922742951220632314e-06
2.9525398209502232945e-06
3.0548006835117777305e-06
3.1718909611291973013e-06
3.2653514468460118007e-06
3.3355154459280885937e-06
3.416730091006829874e-06
3.5314998341913968531e-06
3.6582311524393156549e-06
3.7563860268327037628e-06
3.8102056221922995847e-06
3.8488753950457163893e-06
3.9189334093261468981e-06
4.0406832364036466502e-06
4.1920185880460802193e-06
4.3302917150561637702e-06
4.4242730835798431979e-06
4.4705431164900271237e-06
4.4963574119457737371e-06
4.5388721612546934788e-06
4.620554845411347851e-06
4.7378125783861185655e-06
4.8686119949289303975e-06
4.986751780792783287e-06
5.0743809260599061052e-06
5.1267548797686799601e-06
5.1516091588365300769e-06
5.1678705889839309759e-06
5.1988711274633755982e-06
5.2810953101313759368e-06
5.4349998582702718723e-06
5.5800944222330759787e-06
5.6805486470143564046e-06
5.7316750587150030129e-06
5.7688106731544969087e-06
5.8353928556718945756e-06
5.9485350230677147578e-06
6.0967547857788074105e-06
6.2481601020861695742e-06
6.3700256342324677918e-06
6.446620986679748104e-06
6.4815603697701253605e-06
6.4904971635782430592e-06
6.4909241691040214494e-06
6.495606615159656471e-06
6.5147224707698259461e-06
6.5785902373043974369e-06
6.6813427921447444789e-06
6.773515995074514472e-06
6.8574138569731096234e-06
6.938027785679307501e-06
7.0218664320401746122e-06
7.1162954007013502612e-06
7.2310691549084858424e-06
7.3719085704206544036e-06
7.5337753686943003992e-06
7.6981082293817976967e-06
7.8365487487005518029e-06
7.9268866565819736308e-06
7.9658208538487763266e-06
7.9701861187365622568e-06
7.9616124834253467011e-06
7.9384855303392181866e-06
7.9205845644566231156e-06
7.9143378414741590097e-06
7.9176404448158909077e-06
7.9561894787251291313e-06
8.0480555829529994074e-06
8.1311823749989144036e-06
8.2080838312491680061e-06
8.2855247308093588732e-06
8.3686664069674983167e-06
8.4596599981039373244e-06
8.5568699983386623914e-06
8.6563650971651110252e-06
8.7506393016677540476e-06
8.8300208803639104358e-06
8.8853153152175689324e-06
8.9128160992126159468e-06
8.918604088474330028e-06
8.9150126784868751942e-06
8.9079139793537394593e-06
8.8988714830041695624e-06
8.8928228832295102554e-06
8.8939002294131068319e-06
8.9338392259040960805e-06
9.0370040795014072049e-06
9.1345011068781173076e-06
9.2261017502627575129e-06
9.3157079812567869954e-06
9.4044869639072660445e-06
9.4921811843735617268e-06
9.5778671022814645069e-06
9.6593777576242487751e-06
9.7342620053226944021e-06
9.7995533370796259484e-06
9.8517180127377679841e-06
9.8883162171222917659e-06
9.9081184278061433675e-06
9.9136454473633640546e-06
9.9112387353728440833e-06
9.9090718384707743874e-06
9.9130481131069549962e-06
9.938645769798677026e-06
1.00170115604072818e-05
1.010720719081621409e-05
1.0185414875386439079e-05
1.0246674908273248287e-05
1.0288915293930869904e-05
1.0312767577726098014e-05
1.0323033388828541034e-05
1.0328325765926497386e-05
1.0338556606898406266e-05
1.0365018192274006475e-05
1.043356323473202173e-05
1.053957411698879109e-05
1.064899492315935181e-05
1.0750245836247426627e-05
1.0835834945209791959e-05
1.0902011206932561431e-05
1.0947698644434209389e-05
1.0973900955582514987e-05
1.098517371329589838e-05
1.0987474007559626716e-05
1.0986321840893971895e-05
1.0984281819109161611e-05
1.0984071749934527546e-05
1.0984347848793316602e-05
1.098063206492524353e-05
1.0976962912216894043e-05
1.0979444622446115891e-05
1.0998782284059977713e-05
1.1049551084109535823e-05
1.1126873379183746253e-05
1.1225650547036816515e-05
1.1335753014012851163e-05
1.1445532515210133035e-05
1.1547424968611986931e-05
1.1637837671989936458e-05
1.1717655524519169022e-05
1.1786596096945743805e-05
1.1845148840155198062e-05
1.1891409776085724048e-05
1.1924151782045243323e-05
1.1944326911305842457e-05
1.1952716041526425882e-05
1.1953056955795434013e-05
1.1948234692492895533e-05
1.1940308162440195838e-05
1.1924820105500583906e-05
1.1889751898420195116e-05
1.1849018743755626538e-05
1.1819414547854275303e-05
1.1801631517991271317e-05
1.1793706055625615881e-05
1.1790620571883731927e-05
1.1801237701502404937e-05
1.1863331081654032226e-05
1.2046212969066220081e-05
1.2233437781765660386e-05
1.2380749964670665738e-05
1.249277497417150227e-05
1.2576988842466830352e-05
1.264044404927641326e-05
1.2688202466173185382e-05
1.2723070027710094832e-05
1.2910564534658290281e-05
1.2907529034411676386e-05
1.2928777913033421824e-05
1.3015100040666488989e-05
1.3129443716527680139e-05
1.3229627434447501617e-05
1.3316999019320837104e-05
1.3391752307937785906e-05
1.3454676456609960543e-05
1.3506904571159163392e-05
1.3548586992178571068e-05
1.3580424314279273041e-05
1.3602110679160585646e-05
1.3614493778502475117e-05
1.3617422397043217407e-05
1.3613650163669111502e-05
1.3605020416246454951e-05
1.3594776871095679474e-05
1.358189336031310656e-05
1.3558670051353446712e-05
1.3501150478639172483e-05
1.3399506512449811026e-05
1.3310097100155078088e-05
1.3241922954707575167e-05
1.3197698770448914183e-05
1.3173532138758614209e-05
1.316309010935476263e-05
1.3157128301882489591e-05
1.3160396165145115153e-05
1.3195113432315515228e-05
1.329806815151819356e-05
1.3402265805423573157e-05
1.3489947642112974746e-05
1.3562033227782318212e-05
1.362045364394646694e-05
1.3665572591996812373e-05
1.3698926240752967118e-05
1.3720640331528292176e-05
1.373253013336177641e-05
1.373605135132228492e-05
1.3732868641736359951e-05
1.3725317716359990703e-05
1.37153315242244631e-05
1.3704271229799963271e-05
1.368934757437693257e-05
1.3660834310199549825e-05
1.3594465245006893213e-05
1.3517050477503690225e-05
1.3453069398902651831e-05
1.34042910817547274e-05
1.3370986250057706937e-05
1.3349929920586840499e-05
1.3336799805257036356e-05
1.3326549047355986719e-05
1.3321088021065833823e-05
1.3332246130228423886e-05
1.3383499698515898357e-05
1.3446159795929677169e-05
1.350642323434420558e-05
1.3566453577039663263e-05
1.3625275332707682157e-05
1.3681813327339115339e-05
1.3732776323550352694e-05
1.3775346961767294588e-05
1.3807029369741968068e-05
1.3827844095597329705e-05
1.3837771754486761586e-05
1.383943453038988811e-05
1.3835255957240861146e-05
1.3828383172366982923e-05
1.382027989738849153e-05
1.381109196489601418e-05
1.3796110129484710937e-05
1.3761545534512057337e-05
1.3690048585012318147e-05
1.3619605284417069825e-05
1.3560646758785298454e-05
1.3514358879246835736e-05
1.3480291786185492575e-05
1.3455373103511221978e-05
1.3437032437762920124e-05
1.3421476843330426828e-05
1.3407290989370022714e-05
1.3395153195077665964e-05
1.3390040993940600085e-05
1.3403895489435596592e-05
1.3433624558800542643e-05
1.3467579701811119151e-05
1.350677867035780951e-05
1.3551121599387348007e-05
1.3598870519997545447e-05
1.3647753183531465012e-05
1.3694930378271265509e-05
1.3737926777960982007e-05
1.3774055716965652132e-05
1.3802308353462163296e-05
1.3821796552698597775e-05
1.3832284894154634491e-05
1.3834944522433657811e-05
1.3830690531360236386e-05
1.3822422225244953081e-05
1.3812136980019974059e-05
1.3801463082297111664e-05
1.3786945948292278355e-05
1.3757514227183628312e-05
1.3697438833601667063e-05
1.3637930091923970117e-05
1.3586881098607476073e-05
1.3545297935468920365e-05
1.3512998094131798449e-05
1.3488673802216474267e-05
1.3470656789686713645e-05
1.3456098587253599829e-05
1.3443793545901908527e-05
1.3433579146058284299e-05
1.3431954648394522662e-05
1.3458226228568549707e-05
1.3532757136827853364e-05
1.3607908403949862608e-05
1.3675275536198040058e-05
1.3732700745214501234e-05
1.3777968182641240404e-05
1.3810487920980690901e-05
1.3830566908015385513e-05
1.3839794600803775751e-05
1.384020484013143902e-05
1.3834723764942592758e-05
1.3825527214150941119e-05
1.3815168650561988447e-05
1.3804361882184985143e-05
1.3792752815909864941e-05
1.3778764854475901113e-05
1.3757065569503523715e-05
1.3710865010139220251e-05
1.3641081661642410968e-05
1.3573477136681017671e-05
1.3511579027191416519e-05
1.3458035456453491718e-05
1.341418565424769624e-05
1.3380872189658601034e-05
1.3356934720355917868e-05
1.3340843038542081475e-05
1.3329952511716697933e-05
1.3321439891767073905e-05
1.3314395782133886371e-05
1.3312514612925280242e-05
1.3327697435149774493e-05
1.338141253128150223e-05
1.3440828320908757454e-05
1.3493990483823612689e-05
1.3539935328049326107e-05
1.3577830408945815648e-05
1.3606990873049082749e-05
1.3627609664287009583e-05
1.3640056794941181334e-05
1.364523103563426701e-05
1.3644623652587383909e-05
1.3639350898545660941e-05
1.3630786186505308174e-05
1.3620515901122513418e-05
1.3609267489140966181e-05
1.3596853831948828647e-05
1.3582591474600286716e-05
1.3563384923419273756e-05
1.3532470173469466888e-05
1.3498638512132764546e-05
1.3465106985967340719e-05
1.3431322908106152004e-05
1.3396510536861677804e-05
1.336012023037365345e-05
1.3320980386572356068e-05
1.3278758161876990791e-05
1.3234485071864725598e-05
1.3189584240111405482e-05
1.3147129438042549153e-05
1.3109512442004097566e-05
1.3079995643498841095e-05
1.3058968963658590135e-05
1.3044845689562172439e-05
1.3034402124591482855e-05
1.3027966543892816672e-05
1.3036967913152236212e-05
1.3096372473836638239e-05
1.3241199464764113634e-05
1.3377437615211946908e-05
1.3489582254328353789e-05
1.3577423774691791148e-05
1.364221831557532009e-05
1.3687882666254517591e-05
1.3717953294701784557e-05
1.3735966395065592999e-05
1.374463800672200378e-05
1.3746394584402297506e-05
1.3743041671240658613e-05
1.3737169948017993726e-05
1.3730140479636316597e-05
1.372114676521536229e-05
1.3703240653741872453e-05
1.3656078702690626229e-05
1.3538471985895372666e-05
1.3402963366397451289e-05
1.3278869711926695509e-05
1.3169965920661728552e-05
1.3079512408149868076e-05
1.3009481555609760198e-05
1.2959235370976466918e-05
1.2926933901113293944e-05
1.2908370473010739407e-05
1.289807273714184997e-05
1.2890801702473298217e-05
1.2889183507149639145e-05
1.2906352955148016809e-05
1.2980667184954879347e-05
1.3091832121871535606e-05
1.3186855875376869555e-05
1.3263050317313016151e-05
1.3319982033488244079e-05
1.3358941415580890221e-05
1.338244593045970462e-05
1.3393991211594921627e-05
1.3396843284026868832e-05
1.3394144348317520198e-05
1.3388335031617235361e-05
1.3381425565540241632e-05
1.3374345096558337126e-05
1.3367219584693855081e-05
1.3359898997859328738e-05
1.3351323800865157242e-05
1.3339332350572373359e-05
1.3318334285960124332e-05
1.3270820970581186262e-05
1.3189681432554108297e-05
1.3103914617981247007e-05
1.3017464675590980139e-05
1.2932527596135482074e-05
1.2851724432661322485e-05
1.2777468899574704234e-05
1.2712217099114679267e-05
1.2658318005224876643e-05
1.2616704568983853646e-05
1.2587413504303746685e-05
1.2568556640791659523e-05
1.2557017254950135834e-05
1.2548346087521406155e-05
1.2542790733025594533e-05
1.2548255845556338455e-05
1.258955723434536943e-05
1.2690827272407643436e-05
1.2787195751473246294e-05
1.2869178553016166454e-05
1.2936064737723429661e-05
1.2988492942985450251e-05
1.3028298165355977736e-05
1.3057835807197851357e-05
1.3078668032011783821e-05
5.8904864817886939307e-07
7.2454503130911523809e-07
8.4368050093296534847e-07
9.3481143343775658096e-07
1.0405730767150980309e-06
1.1830209057269906592e-06
1.3139181506786421768e-06
1.3904859676521599819e-06
1.4394084398555963958e-06
1.5296098205193811006e-06
1.7160709308138902144e-06
1.8733067814999743859e-06
1.9545405443412710489e-06
2.0124409467643164512e-06
2.1031124860740611814e-06
2.2224323329077856095e-06
2.330800956130383636e-06
2.4046991160644522217e-06
2.4609291208105823518e-06
2.5428805651115660463e-06
2.6815815012809404999e-06
2.8618754718090711905e-06
3.0298692268683950753e-06
3.1406451015814576967e-06
3.1916426526190063796e-06
3.221356389362736637e-06
3.2805082819895581484e-06
3.4029984100130242116e-06
3.5031224565129658064e-06
3.567353628181674442e-06
3.6411794989647352991e-06
3.756378840777072312e-06
3.8887872318143263488e-06
3.9914252007178303063e-06
4.052398160409457043e-06
4.1113039415923315469e-06
4.2079234030837769174e-06
4.3389987586631220074e-06
4.4659928742692856239e-06
4.5545941259632477245e-06
4.611508186099478583e-06
4.6755079997304789541e-06
4.7797425623898606516e-06
4.9198980421285419025e-06
5.058888744549880874e-06
5.1597402115773048173e-06
5.2136266677476910235e-06
5.242010403163464335e-06
5.2753811110745229252e-06
5.3377131125708297664e-06
5.4363267605077975506e-06
5.5605731751491722012e-06
5.6882536306747362383e-06
5.7948964951170818511e-06
5.8658042024000896784e-06
5.9049904680975493385e-06
5.9347594460946906351e-06
5.9873812281578942844e-06
6.1125404367748954529e-06
6.3029505504478703908e-06
6.4824667178122627218e-06
6.6171049127425664259e-06
6.6955968971189615109e-06
6.7286383615604410124e-06
6.7382743243688192824e-06
6.7430239951891784278e-06
6.7554782780118382708e-06
6.8002298653987771222e-06
6.9092955857392315288e-06
7.0275849708542748306e-06
7.1354998203362520677e-06
7.2230180945079664162e-06
7.2844628055829424267e-06
7.3224387251190870641e-06
7.3528841266464883215e-06
7.4055786026013120456e-06
7.5246506210277501293e-06
7.7162153805775784401e-06
7.9355303770394514649e-06
8.1387368536349277031e-06
8.2875279445046219921e-06
8.3657049443669850137e-06
8.3873552097342318648e-06
8.3831397745276362097e-06
8.365543928423446057e-06
8.3409824031785122635e-06
8.3320709998822929844e-06
8.3353633792272251548e-06
8.3855740997216398632e-06
8.5267368729867086351e-06
8.6377023284037817531e-06
8.6979637400519584377e-06
8.7235024932477148245e-06
8.7403024036855540786e-06
8.7776081010423305658e-06
8.8692206652564456134e-06
9.0003527494190219669e-06
9.1373293450836104061e-06
9.2582927657593538733e-06
9.3460637963254695896e-06
9.392443660811389421e-06
9.4046942457195910326e-06
9.400297263615813644e-06
9.3918719400308320924e-06
9.3826260154412937818e-06
9.3787718917213989988e-06
9.3818565696481261233e-06
9.420436631484535082e-06
9.5193238752502761717e-06
9.6094087727584255826e-06
9.6839325579672921288e-06
9.7447935862301215824e-06
9.7960674531093490906e-06
9.8462497741574238141e-06
9.9063562463999092701e-06
9.9848185899330763342e-06
1.0082849659661453199e-05
1.0194664975333529906e-05
1.0308013818832282047e-05
1.0408007531932945408e-05
1.048277600290921259e-05
1.0524982301297826194e-05
1.0538024218744293907e-05
1.0534090588091132089e-05
1.0525232237899867036e-05
1.0512483894469355311e-05
1.050503457176213351e-05
1.05060114765712928e-05
1.0544083889540870224e-05
1.0651098773717942658e-05
1.0748491080799342794e-05
1.0824297909194554785e-05
1.0879140872213356357e-05
1.0912988094954330598e-05
1.0930388104233684145e-05
1.0943360403385485278e-05
1.0966526270404014975e-05
1.1019302655650809819e-05
1.1099547978529699218e-05
1.1190304040970132748e-05
1.1279689868772906409e-05
1.1358702443019675572e-05
1.1424081425757801715e-05
1.1477752884680774155e-05
1.1524242291841797349e-05
1.1566738968101144679e-05
1.1604802213196102237e-05
1.1635387360972949806e-05
1.1655136893809245444e-05
1.1663172502269667316e-05
1.1661638025360374034e-05
1.1654699186661066649e-05
1.1645525240740457363e-05
1.1636054227084267437e-05
1.1628989768534082338e-05
1.163132843220223053e-05
1.166056683370225307e-05
1.1738502434905070449e-05
1.183380066252151751e-05
1.1938932760627418892e-05
1.2049359246453680128e-05
1.2160201785750867677e-05
1.2264982438595822798e-05
1.2359279763683229426e-05
1.2436977312126699574e-05
1.24947489975767521e-05
1.2532164184583830739e-05
1.2550624411030083529e-05
1.2555502826666513482e-05
1.2552437101687592648e-05
1.2545895131216681871e-05
1.2531912991868522636e-05
1.2498350399214787031e-05
1.2460446497035746228e-05
1.2431846877537481189e-05
1.2412808015642399039e-05
1.2403508651311628564e-05
1.23998520375572393e-05
1.2411488937324147315e-05
1.2474401153811133785e-05
1.2634842197362454081e-05
1.2789391171905680822e-05
1.2920157076894975141e-05
1.3031417005011572199e-05
1.312715645439594394e-05
1.3211407842561486824e-05
1.3285763048982479999e-05
1.3348164327399803186e-05
1.3396322422789727128e-05
1.3528372594038381015e-05
1.3518972685812659067e-05
1.3517045401987675332e-05
1.3539819458199947645e-05
1.3630680039870970849e-05
1.3755294074416784823e-05
1.3868201417795287709e-05
1.3969667518382384094e-05
1.4059129690717467098e-05
1.4136329419579235609e-05
1.4200524562480361469e-05
1.4252164057297767713e-05
1.4290458000600742786e-05
1.4315795369829264572e-05
1.4328026416960628513e-05
1.4329238405173784309e-05
1.4322065451123390455e-05
1.4311292822553118548e-05
1.4296717597262217729e-05
1.4266589749374749291e-05
1.4187818866766977707e-05
1.4083976247677241892e-05
1.4002361510507880428e-05
1.3946663913908912604e-05
1.391457727985730322e-05
1.389989482364420335e-05
1.3892247067797988371e-05
1.389253926970679268e-05
1.3919965312573680255e-05
1.4009309537451291569e-05
1.4103379722400435106e-05
1.418135249468801195e-05
1.4248166120996141385e-05
1.4305608212526823599e-05
1.4356605459543881029e-05
1.4400905471822894724e-05
1.4438733954384306958e-05
1.4468451846855784985e-05
1.4488943039764785463e-05
1.4499887131516428241e-05
1.4501118145145729503e-05
1.4494889125407721173e-05
1.4483983007176314594e-05
1.4471256938441106924e-05
1.4452244795036891948e-05
1.4409940938875970921e-05
1.431974299690142855e-05
1.4235845601930709496e-05
1.417146087140152137e-05
1.4127617441389956298e-05
1.4100850714653407678e-05
1.4085605145156510304e-05
1.4074776928750878257e-05
1.4070153029627165383e-05
1.4088908689901540766e-05
1.4156882820623372071e-05
1.4226887284600212773e-05