/*--------------------------------*- C++ -*----------------------------------*\
  =========                 |
  \\      /  F ield         | OpenFOAM: The Open Source CFD Toolbox
   \\    /   O peration     | Website:  https://openfoam.org
    \\  /    A nd           | Version:  12
     \\/     M anipulation  |
\*---------------------------------------------------------------------------*/
FoamFile
{
    format      ascii;
    class       volScalarField;
    location    "0.016";
    object      k;
}
// * * * * * * * * * * * * * * * * * * * * * * * * * * * * * * * * * * * * * //

dimensions      [0 2 -2 0 0 0 0];

internalField   nonuniform List<scalar> 
75962
(
3.1413706141833834236e-05
4.6828700110059227099e-05
6.773374061863644336e-05
8.1561138465096214511e-05
9.53410315568502801e-05
0.00012446574657628056899
0.00016386480832556886205
0.00019105120411436004148
0.00020488213959546803253
0.00022609545434111144157
0.00026774575060158219662
0.0003096594227113237327
0.00034017121821437723821
0.00036706970127163367733
0.00040556081945448588895
0.00045828897545716030474
0.00051188459077098214921
0.00055142881672596069913
0.00057842211322442634806
0.00061238265055293028463
0.00067287601937331381185
0.00075762043546311671083
0.00084041427323667758104
0.00089580592729705409063
0.00092322341387345182011
0.00094774097808852778881
0.0010014856657192632277
0.0011049303219399151093
0.0011941707354383959867
0.0012467365060388202469
0.0012814093140846069107
0.0013282236470458850912
0.001400930881012398552
0.0014971413421481429441
0.0016095939299026443443
0.0017287244383564280385
0.0018396905371656569524
0.0019241965595458191633
0.0019755203271615553659
0.0020053293854990629323
0.0020392242595508791245
0.0021087820878101983663
0.0022377687945197006873
0.0024009231207801455532
0.0025530058341896831597
0.0026549393098591425079
0.0027017337113190813269
0.002717167198438378943
0.0027286472047442257571
0.0027523013624596165405
0.0028075137787149043872
0.0029213874070542983699
0.0030634619308012129776
0.0032123453128423810378
0.0033426895509823576456
0.0034341811550741910275
0.0034877476843150094152
0.003536021057038068148
0.0036315918362720563638
0.0038434012573450816383
0.0041029651964010361437
0.004331674880934079791
0.0044853031325888734204
0.0045601296078983189278
0.0045837341598179330918
0.0045886447172889793106
0.0045942978375262157054
0.0046096223676972691852
0.0046556329012172386825
0.0047935497590941376217
0.0049739343505807850562
0.0051144347628607391559
0.0052174882078129068003
0.0053019704832300770803
0.0053978106949615538637
0.0055301736845771807399
0.0057216029728139545033
0.0059835549509310902508
0.006300272304790343128
0.0066245943976412863599
0.0068945579956683870904
0.0070660279646104677889
0.0071381241013705578127
0.0071494408436266389945
0.0071398945813541895428
0.0071049661498833131118
0.0070897036795602294199
0.007092290103927291478
0.0071213386563315746527
0.0072223367799182603896
0.0073377636559182847151
0.0074420118544657179113
0.0075589792225508383935
0.0077006422461571343366
0.0078707615731402683079
0.0080667301934408217751
0.0082815764991080662027
0.0085062418374684863748
0.008723756457691451624
0.0089117948410785095825
0.0090475579086281010532
0.009121491827276447667
0.0091457369764537561896
0.0091472646956905021703
0.0091402986324843078086
0.0091352439245372032278
0.0091426459828554459269
0.0091951122517206409362
0.0093747730144621271159
0.0095712661232138698114
0.0097211666260200117057
0.0098509076789960476478
0.0099861984207743701575
0.010146183146441639655
0.010337138032310578747
0.010553634365781348892
0.010781418491311924382
0.011005882261918422532
0.011213294530407884667
0.011389890410291645881
0.01152509492155763017
0.011610925853958484893
0.011652141769522469592
0.011666644020925567155
0.011678287810367234123
0.01170550985685754608
0.01178891335678504404
0.011972756711566898483
0.012157909567570396661
0.012313391163133296721
0.012427303781158732104
0.012498040575924879159
0.01253471400740969327
0.012554374718322800636
0.012575944941294178378
0.012620578138474383353
0.012729724986462610803
0.013002621584343534294
0.013345272948345776945
0.013675828092383055315
0.01396664762990336775
0.014197747822180898161
0.014360473058490757711
0.01445606479846561071
0.014499984492073295789
0.014517433862158892616
0.014531858761845413072
0.014561185218777972228
0.014638626564351227277
0.014758383516664629401
0.014861132652866974879
0.014932797296132878026
0.014970981352966499303
0.014985011929233944469
0.014989352887127761066
0.014997322878343117419
0.015019257105860260929
0.015083296142465571835
0.015275362709386017604
0.015631635312323460124
0.015999166880227459059
0.016362114513834322832
0.016713460674947947654
0.017044519161060464607
0.017344482308180440844
0.017596739635936425178
0.017789449909134894684
0.017919884656353916169
0.017992778135241634802
0.018023357326278490603
0.018028736317796844463
0.018025266589990054933
0.018002665366403932529
0.017917726988820697337
0.017779580894533370677
0.017674544140889481003
0.017611435081041529327
0.017585020725810033421
0.017584038201456566458
0.017596458455922406316
0.017660471190606694125
0.017899569503220479766
0.01843259501808438075
0.018946044486284396857
0.019400520571280780585
0.01979781427134849614
0.020142373974382302149
0.020437684231118226352
0.02247728037604426396
0.022659927891305234327
0.023136118307938664806
0.023643747599068318938
0.024097739111772077669
0.024488621035916424695
0.024807578163116086878
0.025056057110018410683
0.025240566556257483521
0.025371474930905815737
0.025461058742553173417
0.025520398764809364839
0.025556652541676355694
0.025575128952923076309
0.025583722491797050713
0.025584839170554804499
0.025583185104928438808
0.025573986338069648605
0.02553808877457397139
0.025413325862310275766
0.025094055775919013596
0.024778803859747254579
0.024542900539718942587
0.024398220545095217204
0.024331265718055675173
0.024319512461571820422
0.024326859605754477117
0.024368558677406882557
0.024522090326890268186
0.024927020690003600517
0.025355335439620551446
0.025725742357093565882
0.026040503341265643783
0.026299564253616451726
0.02650446419113996338
0.026659336518105706398
0.026765648341802113913
0.02683303508934786058
0.026869895876195936529
0.026886042255708484522
0.026890537725411584047
0.026890114411670565375
0.026883555969927388357
0.026855707284413273678
0.026758952448276789732
0.026503576313416658122
0.026234488452684119608
0.026021662511119775935
0.025872398972563180608
0.025785590509915887886
0.025747022439355650436
0.025739007246072032054
0.025741832389507585122
0.025760409349482791402
0.025829501062894517222
0.0260248144420874572
0.026273770127090059073
0.02652883463389756058
0.0267943746197780025
0.027068193536072569089
0.027338931005357731963
0.027593932470512016336
0.027814890465096428485
0.027992712377841327126
0.028120423113609883947
0.028200408418649725723
0.028241882197434332175
0.028259491589028497283
0.028264411862194485647
0.028262995941570695502
0.028250278201019916186
0.028193970370187899921
0.028015439503842907987
0.027786825393980724153
0.027599808509703348952
0.027460363339455201581
0.027369918434673481261
0.027318709619980167946
0.027296879846213848581
0.027288452218423846218
0.027287038060451088151
0.027291685101943147923
0.02731896519360799136
0.027403968814595815184
0.027523488833084863714
0.027662413679179733567
0.027832134755370292051
0.028035201998341165858
0.028268319799608244286
0.028521752099310519052
0.028779569032859764893
0.029024676726007982153
0.029240648014651902248
0.029417120920661621319
0.029547918194767330141
0.029635473392571266144
0.029684513995764209848
0.029705614251102671619
0.029710679162936931563
0.02970878990080928761
0.029702120907603785788
0.029681948679595098611
0.029617219871884079008
0.029432244218767507349
0.029208599003264727051
0.029015038880811732519
0.028858319152759007165
0.028738713758190283926
0.028654932090725931254
0.028602202515167273605
0.028573707072611066737
0.028560824711917825319
0.028555714384562357055
0.028556144356724436767
0.028564069975215457958
0.028603602905435336623
0.028747183657003145402
0.029111131322920539427
0.029506977593598056331
0.02987048613820698223
0.030188838206813863735
0.030448034931266486358
0.030644845323610531151
0.030781144396031960564
0.030864437662409142937
0.03090736300222487673
0.030924349520466246771
0.030926885347635931639
0.030925579530898045927
0.030919267346390905821
0.030900727832393951738
0.030846812856552954796
0.030680271541957383763
0.03039012843643564693
0.030116747572935868155
0.029878773368638984753
0.029684169645488527045
0.029535905176177525144
0.029433208047198514828
0.029369920023809035353
0.02933772211141656705
0.029327182866486448815
0.029327075681445213817
0.029331511910877267058
0.029350897949747493249
0.029417765216404587192
0.029624703898938276742
0.029925156968522846623
0.030207224715184968072
0.030465436113514619831
0.030693573600706580001
0.030886521696306085821
0.031041860271259869714
0.031161704041862570841
0.031247894056111766292
0.031305656031921209881
0.031340826297321669469
0.031358572779398012631
0.031364860176231357247
0.03136587843227776895
0.03136371555797513172
0.031356123829728882457
0.031337355125419727453
0.031286590530539414023
0.031191137031736697327
0.031089780180157827044
0.03098167159154697689
0.030865179012952853599
0.030736530068083352946
0.030593286244945221142
0.030435698598878565407
0.030271370120478820198
0.030107828818242584473
0.0299600191004025726
0.029837850177260049483
0.029754928848338149661
0.02971112276965128321
0.029697008275841457747
0.029698590194467747866
0.029724887942139701508
0.029844452361964333986
0.030266549491436318953
0.030999497907716618006
0.03165581231768980347
0.032202407509688689424
0.032637195365048915496
0.032966051695521962628
0.033207377995280534799
0.033376212900403344486
0.033489656387208750765
0.033561192454620587811
0.033600769552342688029
0.033617562211645038439
0.03362243314394338517
0.03362075709126784856
0.033608083094423209236
0.033552237500148664184
0.033355909859494929648
0.032833590367437423541
0.032247292753879899796
0.031714734462324527253
0.031253304435474991985
0.03087273033328210084
0.030582829899727468487
0.030379457445159619572
0.030256924386320206005
0.030199366469866269214
0.030184325193914080671
0.030186235587870275526
0.030206285614870286016
0.030289599426821085804
0.030579522642610212912
0.031160845207040141491
0.031700711211682934543
0.032160027692354993534
0.0325278637113105909
0.032805033498557588378
0.03299996117490795744
0.033127400833389435142
0.033202197995952587029
0.033240542965980252044
0.03325629805802914063
0.033261537445491685949
0.033262312615287892292
0.03326133447205440602
0.03325773696709996563
0.033246067640699442092
0.033211897252986379014
0.03311178056716382323
0.032837954759743930022
0.032475804364180176076
0.032109734227666858475
0.031749847354117503861
0.031405354452754323524
0.031086314857337014189
0.030801046570696957033
0.030559018423945857879
0.030368751039244430007
0.03023235834250304413
0.030149691939010160591
0.0301113232820549373
0.03010301942094137026
0.030106273751671394634
0.030130870690120596656
0.030228476424452206672
0.03056240186005629994
0.031169072920015316458
0.031724456557025534909
0.032197418248849196676
0.032582592966030464454
0.032883050508984296156
0.033108177501666773146
0.033268757868503043285
0.033378426211142397939
3.5310989835424460117e-05
4.891918399836641941e-05
7.2594915677698571943e-05
9.8341380807602776152e-05
0.00011282908783560468863
0.00012478045619840062415
0.0001542494016568746911
0.00020143826187613321022
0.00023097703232394611286
0.00025122713133609523694
0.00028535639237376668031
0.00033441382975978967097
0.00037863616481614284157
0.00040443672164075565806
0.00042129389386256008024
0.00045264095939659708184
0.00052300811322731743241
0.00058741015676585562905
0.00062103085017264014148
0.00064850333043704505749
0.00070825874052999010597
0.00080168100042225071914
0.00086981955563758832275
0.00090463160561289222492
0.00094411070507800635455
0.0010120223544746659913
0.0010933811740319301833
0.0011612104165363730784
0.0012133168922375853378
0.0012739711159537466488
0.0013611122453154606959
0.0014604850806042319212
0.0015410539411994229973
0.001588448213811266118
0.0016244310921286161161
0.001687115757792024542
0.001795923249640815015
0.0019350124018129263078
0.0020666719695875382552
0.00215963039072021145
0.0022082191424420308072
0.0022373695942920603444
0.002283135540083074122
0.0023684885541512953541
0.0024921914038653391124
0.0026341105127706452259
0.0027668212977697841277
0.0028687716438263268816
0.0029321869863221990821
0.0029648174639681219682
0.0029886227187795764634
0.0030306309379455483553
0.0031332184207392113802
0.0033238054336310993327
0.0035076119135090005376
0.0036377837404340373356
0.0037061860681063306736
0.0037587717837280361886
0.0038533035343300886186
0.004013319798768861385
0.0042243097620395424555
0.0044424974648530840896
0.0046201765377048851016
0.0047334380170907450203
0.0047879719044180138118
0.0048071682077817741094
0.0048154989848416696746
0.0048297590718073893368
0.0048647993143036485919
0.0049678523644277987337
0.0051335138642263035066
0.0052861587671681519243
0.0054265011138592261081
0.0055611242782842374224
0.005701831563309008033
0.0058636293731503651844
0.0060648089737096845878
0.0063157753199187252266
0.0066079715488782577587
0.0069089760381930770058
0.0071673907858088668071
0.0073404387018462238443
0.0074196528549303770311
0.0074358138678893319004
0.0074296444097928359546
0.0073978245859215715705
0.0073758587626606489374
0.0073754891099606428514
0.007393573274197608701
0.0074791744226743095067
0.0076681000834353616608
0.0078427480709435653389
0.0080057427169833578207
0.0081700215692410132345
0.0083466774297578025243
0.0085410035492511360289
0.0087499331578963588513
0.008964902124152615559
0.0091701447645751530541
0.0093461105246886982262
0.0094741649431019751837
0.009545666517353106062
0.0095707771879537887477
0.0095732181378451915166
0.0095659697868238531548
0.0095556745972987106041
0.0095566138817013927126
0.0095781638731906350304
0.0096859063977910095367
0.0099314949621319408707
0.010163812569249853351
0.010381861458739519502
0.010596686308476949839
0.01081271026036594203
0.011028707178208396397
0.011240736361013872746
0.011443143666545994852
0.0116317934705936505
0.011802113648565924417
0.011946409554396698535
0.01205677742517449226
0.012126884382060809306
0.012160140664785273543
0.012171296008958127494
0.012180951056671010524
0.012205153774595198582
0.012283251335906757509
0.012494349638563918836
0.012739716925567464573
0.012958884160609427175
0.013137637831390762411
0.013268496928364785503
0.013350977978673706295
0.013395488425034685065
0.013423198581625900988
0.01345979239087271781
0.013536273746025548337
0.013724217331968265737
0.014018669429694105913
0.014334104401336766194
0.014639409612811255662
0.014909114558264595363
0.015125596812813201994
0.015279754799092637105
0.015371218783814475858
0.015413644968766413226
0.015427222547096610186
0.015431655545209168462
0.015437285258616354269
0.015453267634813316195
0.015475894314002529295
0.015491077141135312437
0.015508232056227760562
0.015542935554616008412
0.015624041688538928968
0.015792372438499669568
0.016034547915646617244
0.016337308476444677152
0.016673629625566011025
0.01701225540458312438
0.017333106386797619142
0.017626554111266342501
0.017894996802843982087
0.018136118161640599894
0.018348913323696768723
0.018524058763450097775
0.018654464480028505602
0.018741075382406435779
0.018786339722327217994
0.018804069295206560231
0.018806493417793779255
0.018801963567519428683
0.018776827309305348102
0.018692162036538138847
0.018589571868120526033
0.01852036533256859463
0.018485671634383502721
0.018479761815238568423
0.018488934552670786143
0.018543653431052187219
0.018764871523108062751
0.019379133946710886544
0.020023336785918836173
0.020545880176361216302
0.020953866119479316876
0.021267367676666003307
0.021507942526249577281
0.021692677568956986178
0.021831501462321947771
0.023610531614860763572
0.023633550360076249763
0.023742558338731439144
0.024090344563272688555
0.024546922663274069881
0.024955547929133518187
0.025319556934573907853
0.025637633581466076627
0.025910994366940658107
0.026143065940546796749
0.026335029924764226383
0.026490786632415955215
0.026610190766767270049
0.026696637284452737898
0.026748395589537662942
0.026774477868240498246
0.026780715546608727107
0.026779478187692471597
0.026767470098253618588
0.02671554351758853238
0.026530679179985795085
0.026173841717693251824
0.025866128931602724167
0.025640480177336458234
0.025505374893978218637
0.025445169757572445868
0.025436388967063017219
0.025444923856538698842
0.025490764200958540564
0.025660997587667020575
0.026102188675850710592
0.026556221371215944782
0.026949809078868385698
0.027283972911516955751
0.027564547345893183894
0.027791640194134815262
0.027970734100824755364
0.028101672967783791757
0.0281914706011013802
0.028246570626854556468
0.028274270833664932878
0.028284506716389119091
0.028284956394578820993
0.028280248156073304472
0.028257810370987408721
0.028176772339965707598
0.027937749161768565126
0.027652264497049255237
0.027423431550190644629
0.027259633359394797036
0.027162337298605166575
0.027118014308201817547
0.02710816373776418764
0.02711115516794029151
0.027133759726052416456
0.027223498415745252949
0.027476869740476937698
0.027778391398873496232
0.02807006941013215004
0.028360447354432351957
0.028645547717691483003
0.028921568062629229856
0.029175974888998409962
0.029398072442222457357
0.029577671712415952443
0.029714104915578905958
0.029805281681930612114
0.029859816429002400406
0.029886071311893889352
0.029896522462853500346
0.029898299712027027325
0.029893496316450829386
0.029864005779315000444
0.029751807150086066744
0.029481900240277414404
0.029218052239417355298
0.029005311158405926164
0.028848700334278561119
0.028747040520354347898
0.028688209435310623591
0.028661850870057410667
0.02865131906994632105
0.028648635081617950665
0.028653756267757839182
0.028684978536888984524
0.028791186923736129116
0.028959132367776505707
0.029139075396691135195
0.029337463594046913479
0.029557119368470968768
0.02979402303440639721
0.030041270197287195387
0.0302881536901332786
0.03052420909885869213
0.030736529466730753285
0.03091867636746867265
0.031064306509957492763
0.031169981647795837187
0.031238925921087287024
0.031273753910526239097
0.031286663993155106045
0.031286390119491698514
0.031280644896598867877
0.031254668692819481679
0.031159850784100794063
0.030926164582382807688
0.030696130861256030326
0.030507108498192044704
0.030364080320446611844
0.030266341043818267148
0.030207727985519610553
0.030180036027800696136
0.030169402019464660464
0.030169123234460255845
0.030177292326832968333
0.030222240860765980236
0.030390341703155226288
0.030776828088982601667
0.031168436204020846109
0.031525850085984047366
0.031838584880435262525
0.032095621418011290038
0.032293529184654896913
0.032433509677178451458
0.032522908470016480276
0.032571536669766039396
0.032593482938655188308
0.03259858311299860395
0.03259817796637562437
0.032594864377292608049
0.032586385587353661197
0.032565486264591089749
0.032507702415597319878
0.032335038184046434317
0.032052146960367983164
0.031781683466614772671
0.03153984850370563503
0.031337906031090753678
0.03118083540982606594
0.031071473395331915268
0.031003900174895189512
0.030971066264188610445
0.030961277016778893101
0.030962023728499054459
0.030969465756961623432
0.031000833049912527445
0.031111328634539414661
0.031402431882694002707
0.031722719012427985641
0.032014652919643907247
0.032273285820850802774
0.032494298711189792406
0.032674532475033483958
0.03281482508321404562
0.032917210232647611812
0.032986150999021655872
0.033028896847241202839
0.033050824498689804209
0.033058755689591809435
0.033060164547352131892
0.033058071820059778401
0.033051057376496439932
0.033035050942017051001
0.03299425890885378243
0.032894802045595673834
0.032778220547575322164
0.032660140144605637191
0.032538119480078842027
0.032409137369929875983
0.032271772699823030039
0.03212184153620675775
0.031958931179994549965
0.031788705595244451385
0.031618077021450197162
0.031461371576069978306
0.0313293253089293941
0.031236850676167857849
0.031185432330359010022
0.031167356532260701019
0.03116702734129689692
0.031185568900460838154
0.031277100848113831288
0.031609182590680823255
0.03235971409090991624
0.033078143210302494992
0.033683848695069705526
0.034172776118291559033
0.034548921750416773657
0.034830335767094607047
0.035033522599910126016
0.035174970723675591522
0.035267015543678392753
0.035320816684488914872
0.035344766731932319992
0.035352147280286565223
0.035350963079281552681
0.035338915565473263958
0.035282615513647010153
0.035080273426643021617
0.034523447768027390459
0.033882733030538736418
0.03330891745884729388
0.032817810467704655597
0.032422118911648888095
0.032128308223183653369
0.031930744536319957683
0.031818937359366687712
0.031771929464979399571
0.031763429830438137669
0.031768591631930742647
0.031801282799480787289
0.03192707454712617049
0.032337634368728933321
0.032940879554923085948
0.033470790541836430154
0.033911037342390808191
0.03425671900859649649
0.034512042702131838501
0.034688012721630183399
0.034801103823910835289
0.034867006058593205675
0.0349011696818248493
0.034915845791860952718
0.03492155736761685253
0.034923668983926688114
0.034923720648023612312
0.034922200588620250228
0.034914998323604076735
0.034892214575518443187
0.034826037230365140818
0.034626453234293946837
0.034255841630921136931
0.033866486428668025888
0.033478305226844480569
0.033101256538754411651
0.032747175517350492202
0.032426694999999512714
0.032150845477063441646
0.031930473281000786023
0.031769824649244174375
0.03166915946140984317
0.031619541749965278388
0.031606163468870532296
0.031607443319279129867
0.031625077085473303484
0.031699149597994240313
0.031954999214945926933
0.032521092654919758758
0.033069729790829477389
0.033548860688195285273
0.03395227538533035494
0.034281005377918200017
0.034542946958145692715
0.03474946661360501371
0.034908310066729647536
3.4536876701465678936e-05
5.2153591993727185349e-05
7.0966469832386928495e-05
8.741535052130882603e-05
0.0001086362884675768194
0.00014060643937124922423
0.00017329968454890892706
0.00019419495641323833825
0.00020855746497385645784
0.00023557252094828223386
0.00029640373161887815243
0.00035365221923231858654
0.00038562392383355227794
0.00040912681412410948929
0.00044726621302353623951
0.00050049035771316781676
0.00055152256890530799039
0.00058780167463878601683
0.0006166757605744302732
0.00065952835334465056798
0.00073375489922018982767
0.00083606148213933445534
0.00093907452499219904764
0.0010118840027709403821
0.0010470500248079381463
0.0010682867516077093357
0.0011103063322250746308
0.0011977253957685845328
0.0012713865991735141901
0.0013192918644082634975
0.0013744353755418070931
0.0014625838073745562554
0.0015683254215429205496
0.0016545953356687454275
0.0017089195664252985248
0.0017623879918713062503
0.0018492660562000841004
0.0019687413307079679355
0.0020877406112995359859
0.0021739073421509634738
0.002232058833147612404
0.0022985248868729150906
0.0024057768612307166116
0.0025513674738483755992
0.0026993367557044301193
0.0028103125972702893559
0.0028724271530713380365
0.0029074148915338737277
0.0029487415340927803677
0.0030241462913790069858
0.0031436310276635273143
0.0032963145614087799827
0.0034559988413180664849
0.0035916549828108124479
0.0036832607514142162719
0.0037346103597299461045
0.0037743638804404438386
0.0038454190920181184794
0.0040145745188237642528
0.0042780398148635229855
0.0045346888606463894855
0.0047317756953405036222
0.0048478134808070004122
0.0048967783396710543725
0.0049129047408250784215
0.0049255200144427456824
0.0049522461687629302715
0.0050268450113557863745
0.005197412050134503532
0.0053852174504970410154
0.0055615390555442765358
0.0057094097971416429838
0.0058166410206877735417
0.0058848333830744036996
0.0059397872280578661863
0.0060319540563569815431
0.0062363102725621882144
0.0065691449533556260654
0.0069598831715694930294
0.0073323538045735256463
0.0076132254878741442358
0.0077667570240849562527
0.0078156558069188558635
0.007816816744454524804
0.007794382429508234407
0.0077599797467820539124
0.0077553106180938092759
0.0077736947628974911034
0.0078805357914787047685
0.0081630720815557920172
0.0083936349257398689544
0.0085275223191315120685
0.0085927001604196480422
0.0086390096754884355967
0.0087243516521589466184
0.008918037831995516071
0.0091947806617986745092
0.0094879814214777688508
0.0097518623201717329063
0.0099490701442133001181
0.010061135619632666921
0.010101848859750078499
0.010105951962941917346
0.010098297556038119197
0.010086359350545486338
0.010087287852142709163
0.010108152520755845152
0.010210619420755035619
0.010447921706842947659
0.010666862772008522259
0.010849082208826120802
0.010999022828629178086
0.011128241757194195019
0.011257024927631581815
0.011409657848825412868
0.011604414655068897091
0.011844830283891338157
0.01212019913003623689
0.01240491301292784114
0.012664894186333685785
0.012869564263312566199
0.012996646283739421435
0.013050092279073657528
0.013057990113842204982
0.013051303008772002431
0.013034847359988721571
0.013033592128175749622
0.013056170992900543656
0.013173337231335669611
0.013466313118796214773
0.013738642625132340552
0.013956329936611416853
0.014117991868432013675
0.014221460034285298563
0.014277838617208929092
0.014319578115881477498
0.014388312084081082698
0.014539108348885186606
0.014770847253070214233
0.015040686801448344481
0.015315619325774722237
0.015567076019572842482
0.015780412975336017417
0.015956262391349639029
0.016104993199980217888
0.01623640777188501555
0.016352488907973226212
0.016448210123513717917
0.016516884178269061745
0.016557038981376809295
0.016574166964437878069
0.016579128519472227654
0.01658015691622299892
0.016581973744849140551
0.016591069252778482129
0.016625363928357179966
0.016732788144125376739
0.016976381722442646094
0.017268257750996367922
0.017589390371763661408
0.017930649734468558781
0.018281075255936966861
0.018622752938974782705
0.018941128859927800626
0.019214009108434522421
0.019426343367515440386
0.01957231212586079197
0.01965399744235250129
0.019688453497239397083
0.019695736662970964731
0.01969287356305912326
0.019669625034218738563
0.019588611466251223958
0.01949648349266697861
0.019434373765229818326
0.019400695008655467755
0.019394379340276733659
0.01940273855044151799
0.019457935244791016438
0.019676363026701521736
0.02021244167446537357
0.020743878891075272913
0.021208178921712738524
0.021613852640178423531
0.021969227591555971768
0.022284935807398067314
0.022565109102291994181
0.022802256342683128315
0.022988517961957687097
0.02462120791815698706
0.024622585875223302471
0.024648696807614042803
0.024762813464653473522
0.025126068001684674635
0.025618920053179266433
0.026073063101306859224
0.026488157220969265476
0.026861113140646132591
0.027190387096505841402
0.027472850690097520843
0.027710205518423104698
0.027899142003550331942
0.028040324014498751309
0.028131738058788321316
0.028180050707891257655
0.02819473622140025032
0.028194118068580728553
0.028177887663080641162
0.028100671064824247342
0.027833201883870811733
0.027467660335929771492
0.027189564726237770709
0.027011346771434917996
0.026922908236406611904
0.026900415704788786797
0.026905008800725702112
0.026941766553251856459
0.027086361278239979439
0.02747711329247710596
0.027893764924710785086
0.028250854122617099357
0.028565144690337204714
0.028841971616475212126
0.029092181177670810299
0.029314728069609673894
0.029510778216203119306
0.029674024275774341097
0.02980021894928711404
0.029888152729712274408
0.029937679834839747706
0.029957971641065027357
0.029959574769789470983
0.029952761666065922525
0.029917114217649785207
0.029781520099914561561
0.029444770926232929215
0.029132425161462003477
0.028901604141922741797
0.028758065052896478186
0.028688459290643786304
0.028670042198608306633
0.028672871866516343869
0.028702477801001886892
0.028827511862194978715
0.029154837000833676297
0.029492729320304281876
0.029798325009213384035
0.030082160903832085713
0.030350910918844457159
0.030603966216891674568
0.030835971973759906256
0.031039562116262631175
0.03120873107664642182
0.031337739622537642836
0.031431501375619459726
0.031494043750620231981
0.031532006676804669176
0.031552500805496909442
0.031562877015506175804
0.031567919958006750158
0.031568407569542773772
0.031560293337305110606
0.031521633299043776144
0.031387843012681153343
0.031148552145583319195
0.030932374536117288044
0.030759928832609792493
0.030633896012136598019
0.030552858618284734621
0.030505540104776816823
0.030484974320838173489
0.030476527551678914141
0.030475204119219639898
0.030484875358861792533
0.030531050698844618141
0.030680403317239111904
0.030918497917555531201
0.031162442375676821515
0.031411791147964517046
0.031660767715171553305
0.03190084123555495671
0.032125963963061915374
0.032330472805215691723
0.032512264218154736384
0.032670326356379730814
0.032804473770450391645
0.032911141963112074127
0.032989641200718608505
0.033038217701603055099
0.033060905150357935978
0.033067092072819402604
0.033065182609557854099
0.033053494157345125748
0.033005357968689766346
0.032844771845500872476
0.032617249692781506709
0.032425771670737617292
0.032277584912362017322
0.032173870762643684562
0.032110665926997156161
0.032080015533460841393
0.032068093028479252582
0.032067145707538234622
0.032075344481953975417
0.032121665880502074664
0.032289846826250821754
0.032576427093942726676
0.032852848780209636947
0.033115433418390509412
0.03335989451459313998
0.033578694555214984308
0.033767026263997121371
0.033922226424889165286
0.034042511122368640519
0.034131650479394239073
0.03419239574128398601
0.034229167533249116318
0.034248256156430102737
0.034253967308683443138
0.034253481306935514017
0.034248627539723172641
0.034228400932173316806
0.03415812738948934002
0.033934761641502789176
0.033610871288963277415